
                                 *****************
                                 * O   R   C   A *
                                 *****************

                                            #,                                       
                                            ###                                      
                                            ####                                     
                                            #####                                    
                                            ######                                   
                                           ########,                                 
                                     ,,################,,,,,                         
                               ,,#################################,,                 
                          ,,##########################################,,             
                       ,#########################################, ''#####,          
                    ,#############################################,,   '####,        
                  ,##################################################,,,,####,       
                ,###########''''           ''''###############################       
              ,#####''   ,,,,##########,,,,          '''####'''          '####       
            ,##' ,,,,###########################,,,                        '##       
           ' ,,###''''                  '''############,,,                           
         ,,##''                                '''############,,,,        ,,,,,,###''
      ,#''                                            '''#######################'''  
     '                                                          ''''####''''         
             ,#######,   #######,   ,#######,      ##                                
            ,#'     '#,  ##    ##  ,#'     '#,    #''#        ,####,   ,####,        
            ##       ##  ##   ,#'  ##            #'  '#       #'       #'  '#        
            ##       ##  #######   ##           ,######,      #####,   #    #        
            '#,     ,#'  ##    ##  '#,     ,#' ,#      #,     #,   #   #,  ,#        
             '#######'   ##     ##  '#######'  #'      '#     '####' # '####'        



                #########################################################
                #                        -***-                          #
                #          Department of theory and spectroscopy        #
                #                                                       #
                #                      Frank Neese                      #
                #                                                       #
                #     Directorship, Architecture, Infrastructure        #
                #                    SHARK, DRIVERS                     #
                #        Core code/Algorithms in most modules           #
                #                                                       #
                #        Max Planck Institute fuer Kohlenforschung      #
                #                Kaiser Wilhelm Platz 1                 #
                #                 D-45470 Muelheim/Ruhr                 #
                #                      Germany                          #
                #                                                       #
                #                  All rights reserved                  #
                #                        -***-                          #
                #########################################################


                         Program Version 6.0.0  -   RELEASE  -


 With contributions from (in alphabetic order):
   Daniel Aravena         : Magnetic Suceptibility
   Michael Atanasov       : Ab Initio Ligand Field Theory (pilot matlab implementation)
   Alexander A. Auer      : GIAO ZORA, VPT2 properties, NMR spectrum
   Ute Becker             : All parallelization in ORCA, NUMFREQ, NUMCALC
   Giovanni Bistoni       : ED, misc. LED, open-shell LED, HFLD
   Martin Brehm           : Molecular dynamics
   Dmytro Bykov           : pre 5.0 version of the SCF Hessian
   Marcos Casanova-Páez   : Triplet and SCS-CIS(D). UHF-(DLPNO)-IP/EA/STEOM-CCSD. UHF-CVS-IP/STEOM-CCSD
   Vijay G. Chilkuri      : MRCI spin determinant printing, contributions to CSF-ICE
   Pauline Colinet        : FMM embedding
   Dipayan Datta          : RHF DLPNO-CCSD density
   Achintya Kumar Dutta   : EOM-CC, STEOM-CC
   Nicolas Foglia         : Exact transition moments, OPA infrastructure, MCD improvements
   Dmitry Ganyushin       : Spin-Orbit,Spin-Spin,Magnetic field MRCI
   Miquel Garcia          : C-PCM and meta-GGA Hessian, CCSD/C-PCM, Gaussian charge scheme
   Tiago L. C. Gouveia    : GS-ROHF, GS-ROCIS
   Yang Guo               : DLPNO-NEVPT2, F12-NEVPT2, CIM, IAO-localization
   Andreas Hansen         : Spin unrestricted coupled pair/coupled cluster methods
   Ingolf Harden          : AUTO-CI MPn and infrastructure 
   Benjamin Helmich-Paris : MC-RPA, TRAH-(SCF,CASSCF), AVAS, COSX integrals, SCF dyn. polar.
   Lee Huntington         : MR-EOM, pCC
   Robert Izsak           : Overlap fitted RIJCOSX, COSX-SCS-MP3, EOM
   Riya Kayal             : Wick's Theorem for AUTO-CI, AUTO-CI UHF-CCSDT
   Emily Kempfer          : AUTO-CI, RHF CISDT and CCSDT
   Christian Kollmar      : KDIIS, OOCD, Brueckner-CCSD(T), CCSD density, CASPT2, CASPT2-K, improved NEVPT2
   Axel Koslowski         : Symmetry handling
   Simone Kossmann        : Meta GGA functionals, TD-DFT gradient, OOMP2, (MP2 Hessian; deprecated post 5.0)
   Lucas Lang             : DCDCAS
   Marvin Lechner         : AUTO-CI (C++ implementation), FIC-MRCC
   Spencer Leger          : CASSCF response
   Dagmar Lenk            : GEPOL surface, SMD, ORCA-2-JSON
   Dimitrios Liakos       : Extrapolation schemes; Compound Job, initial MDCI parallelization
   Dimitrios Manganas     : Further ROCIS development; embedding schemes. LFT, Crystal Embedding
   Dimitrios Pantazis     : SARC Basis sets
   Anastasios Papadopoulos: AUTO-CI, single reference methods and gradients
   Taras Petrenko         : pre 6.0 DFT Hessian and TD-DFT gradient, (ASA, deprecated), ECA, 1-Electron XAS/XES, NRVS
   Peter Pinski           : DLPNO-MP2, DLPNO-MP2 Gradient
   Christoph Reimann      : Effective Core Potentials
   Marius Retegan         : Local ZFS, SOC
   Christoph Riplinger    : Optimizer, TS searches, QM/MM, DLPNO-CCSD(T), (RO)-DLPNO pert. Triples
   Michael Roemelt        : Original ROCIS implementation
   Masaaki Saitow         : Open-shell DLPNO-CCSD energy and density
   Barbara Sandhoefer     : DKH picture change effects
   Kantharuban Sivalingam : CASSCF convergence/infrastructure, NEVPT2 and variants, FIC-MRCI
   Bernardo de Souza      : ESD, SOC TD-DFT
   Georgi Stoychev        : AutoAux, RI-MP2 NMR, DLPNO-MP2 response, X2C
   Van Anh Tran           : RI-MP2 g-tensors
   Willem Van den Heuvel  : Paramagnetic NMR
   Zikuan Wang            : NOTCH, Electric field optimization 
   Frank Wennmohs         : Technical directorship and infrastructure
   Hang Xu                : AUTO-CI-Response properties 


 We gratefully acknowledge several colleagues who have allowed us to
 interface, adapt or use parts of their codes:
   Stefan Grimme, W. Hujo, H. Kruse, P. Pracht,  : VdW corrections, initial TS optimization,
                  C. Bannwarth, S. Ehlert,         DFT functionals, gCP, sTDA/sTD-DF
                  L. Wittmann, M. Mueller
   Ed Valeev, F. Pavosevic, A. Kumar             : LibInt (2-el integral package), F12 methods
   Garnet Chan, S. Sharma, J. Yang, R. Olivares  : DMRG
   Ulf Ekstrom                                   : XCFun DFT Library
   Mihaly Kallay                                 : mrcc  (arbitrary order and MRCC methods)
   Frank Weinhold                                : gennbo (NPA and NBO analysis)
   Simon Mueller                                 : openCOSMO-RS
   Christopher J. Cramer and Donald G. Truhlar   : smd solvation model
   Lars Goerigk                                  : TD-DFT with DH, B97 family of functionals
   V. Asgeirsson, H. Jonsson                     : NEB implementation
   FAccTs GmbH                                   : IRC, NEB, NEB-TS, DLPNO-Multilevel, CI-OPT
                                                   MM, QMMM, 2- and 3-layer-ONIOM, Crystal-QMMM,
                                                   LR-CPCM, SF, NACMEs, symmetry and pop. for TD-DFT,
                                                   nearIR, NL-DFT gradient (VV10), updates on ESD,
                                                   ML-optimized integration grids, MBIS, APM,
                                                   GOAT, DOCKER, SOLVATOR, interface openCOSMO-RS
   S Lehtola, MJT Oliveira, MAL Marques          : LibXC Library
   Liviu Ungur et al                             : ANISO software


 Your calculation uses the libint2 library for the computation of 2-el integrals
 For citations please refer to: http://libint.valeyev.net

 Your ORCA version has been built with support for libXC version: 6.2.2
 For citations please refer to: https://libxc.gitlab.io

 This ORCA versions uses:
   CBLAS   interface :  Fast vector & matrix operations
   LAPACKE interface :  Fast linear algebra routines
   SCALAPACK package :  Parallel linear algebra routines
   Shared memory     :  Shared parallel matrices
   BLAS/LAPACK       :  OpenBLAS 0.3.27  USE64BITINT DYNAMIC_ARCH NO_AFFINITY Zen SINGLE_THREADED
        Core in use  :  Zen
   Copyright (c) 2011-2014, The OpenBLAS Project


Your calculation utilizes the atom-pairwise dispersion correction
with the Becke-Johnson damping scheme (D3BJ)


Warning: RI is on but no J-basis has been assigned. Assigning Def2/J (nothing to worry about!)
================================================================================

----- Orbital basis set information -----
Your calculation utilizes the basis: def2-TZVPPD
   F. Weigend and R. Ahlrichs, Phys. Chem. Chem. Phys. 7, 3297 (2005).
   D. Rappoport and F. Furche, J. Chem. Phys. 133, 134105 (2010)
   D. Rappoport, J. Chem. Phys. 155, 124102 (2021).

----- AuxJ basis set information -----
Your calculation utilizes the auxiliary basis: def2/J
   F. Weigend, Phys. Chem. Chem. Phys. 8, 1057 (2006).

================================================================================
                                        WARNINGS
                       Please study these warnings very carefully!
================================================================================

Using LibXC functional ID 531 : wB97M-V exchange-correlation functional
[ 1]  N. Mardirossian and M. Head-Gordon.,  J. Chem. Phys. 144, 214110 (2016)
Using LibXC functional ID 531 : wB97M-V exchange-correlation functional
[ 1]  N. Mardirossian and M. Head-Gordon.,  J. Chem. Phys. 144, 214110 (2016)

WARNING: B97M-V or wB97M-V functional requested.
  ===> : libXC variant has now been activated.
         Any manually given DFX/HFX/RangeSep scaling parameters are IGNORED!

Your calculation utilizes LibXC
 by S Lehtola, C Steigemann, MJT Oliveira & MAL Marques
Please cite in your paper:
 S Lehtola, C Steigemann, MJT Oliveira & MAL Marques, SoftwareX, 7, (2018), 1.
   


WARNING: your system is open-shell and RHF/RKS was chosen
  ===> : WILL SWITCH to UHF/UKS

INFO   : Checking CIS options ...

WARNING: CIS/ROCIS methods need fully converged wavefunctions
  ===> : Setting SCFConvForced true
         You can overwrite this default with %scf ConvForced false 


================================================================================
                                       INPUT FILE
================================================================================
NAME = orca.inp
|  1> ! Engrad def2-TZVPPD wB97M-D3BJ 
|  2> %pal nprocs 8 end%pal nprocs 64 end 
|  3> %tddft 
|  4>  Iroot 1 Nroots 3 
|  5> sf true 
|  6> end 
|  7> *xyz 0 3 
|  8> O   3.20108036 0.39189787 -0.90704502
|  9> O   -0.64193018 1.53518483 -2.31271664
| 10> O   0.41244517 -3.07920949 -0.35378061
| 11> O   -3.00354552 -1.77532544 -0.4222574
| 12> N   0.33344522 -1.4439819 1.20830403
| 13> N   -2.15815521 -0.18188537 0.95951559
| 14> N   1.55017785 -1.15274083 -0.76256946
| 15> N   -1.49622525 -0.29173717 -1.25195905
| 16> C   1.74606101 0.50755938 0.95690465
| 17> C   -0.86588624 1.61383793 0.04529598
| 18> C   0.39828077 -0.04227444 1.56370619
| 19> C   -1.06726834 0.73309115 1.22795244
| 20> C   2.48577896 1.56857207 1.64963438
| 21> C   -0.69027191 3.06461767 0.19154548
| 22> C   2.24718571 -0.04251832 -0.30009308
| 23> C   -0.96989265 1.00317586 -1.26355357
| 24> C   0.72803272 -1.96933691 0.00990141
| 25> C   -2.2767523 -0.83989415 -0.23850508
| 26> H   0.48770373 0.02493906 2.65373517
| 27> H   -1.32455593 1.29858108 2.1166557
| 28> H   3.4719596 1.73850885 1.19846645
| 29> H   1.93321735 2.4949393 1.56967096
| 30> H   2.57628627 1.33707319 2.72121451
| 31> H   -1.5770727 3.49589325 0.67650475
| 32> H   0.15322981 3.27965663 0.83328889
| 33> H   -0.52762694 3.54076529 -0.7683859
| 34> H   -0.28452789 -2.05335035 1.71756063
| 35> H   -2.68302448 -0.57665667 1.72015309
| 36> H   1.89819959 -1.6151915 -1.58629613
| 37> H   -1.58292036 -0.76297324 -2.14285403
| 38> *
| 39> 
| 40>                          ****END OF INPUT****
================================================================================

                     *******************************
                     * Energy+Gradient Calculation *
                     *******************************

---------------------------------
CARTESIAN COORDINATES (ANGSTROEM)
---------------------------------
  O      3.201080    0.391898   -0.907045
  O     -0.641930    1.535185   -2.312717
  O      0.412445   -3.079209   -0.353781
  O     -3.003546   -1.775325   -0.422257
  N      0.333445   -1.443982    1.208304
  N     -2.158155   -0.181885    0.959516
  N      1.550178   -1.152741   -0.762569
  N     -1.496225   -0.291737   -1.251959
  C      1.746061    0.507559    0.956905
  C     -0.865886    1.613838    0.045296
  C      0.398281   -0.042274    1.563706
  C     -1.067268    0.733091    1.227952
  C      2.485779    1.568572    1.649634
  C     -0.690272    3.064618    0.191545
  C      2.247186   -0.042518   -0.300093
  C     -0.969893    1.003176   -1.263554
  C      0.728033   -1.969337    0.009901
  C     -2.276752   -0.839894   -0.238505
  H      0.487704    0.024939    2.653735
  H     -1.324556    1.298581    2.116656
  H      3.471960    1.738509    1.198466
  H      1.933217    2.494939    1.569671
  H      2.576286    1.337073    2.721215
  H     -1.577073    3.495893    0.676505
  H      0.153230    3.279657    0.833289
  H     -0.527627    3.540765   -0.768386
  H     -0.284528   -2.053350    1.717561
  H     -2.683024   -0.576657    1.720153
  H      1.898200   -1.615191   -1.586296
  H     -1.582920   -0.762973   -2.142854

----------------------------
CARTESIAN COORDINATES (A.U.)
----------------------------
  NO LB      ZA    FRAG     MASS         X           Y           Z
   0 O     8.0000    0    15.999    6.049165    0.740580   -1.714067
   1 O     8.0000    0    15.999   -1.213072    2.901079   -4.370401
   2 O     8.0000    0    15.999    0.779408   -5.818863   -0.668548
   3 O     8.0000    0    15.999   -5.675878   -3.354879   -0.797951
   4 N     7.0000    0    14.007    0.630120   -2.728730    2.283364
   5 N     7.0000    0    14.007   -4.078322   -0.343714    1.813222
   6 N     7.0000    0    14.007    2.929412   -2.178364   -1.441047
   7 N     7.0000    0    14.007   -2.827456   -0.551303   -2.365860
   8 C     6.0000    0    12.011    3.299577    0.959148    1.808288
   9 C     6.0000    0    12.011   -1.636288    3.049712    0.085597
  10 C     6.0000    0    12.011    0.752642   -0.079887    2.954976
  11 C     6.0000    0    12.011   -2.016845    1.385342    2.320494
  12 C     6.0000    0    12.011    4.697441    2.964172    3.117357
  13 C     6.0000    0    12.011   -1.304425    5.791288    0.361968
  14 C     6.0000    0    12.011    4.246566   -0.080348   -0.567094
  15 C     6.0000    0    12.011   -1.832831    1.895728   -2.387770
  16 C     6.0000    0    12.011    1.375782   -3.721507    0.018711
  17 C     6.0000    0    12.011   -4.302438   -1.587170   -0.450709
  18 H     1.0000    0     1.008    0.921626    0.047128    5.014833
  19 H     1.0000    0     1.008   -2.503048    2.453963    3.999900
  20 H     1.0000    0     1.008    6.561053    3.285306    2.264773
  21 H     1.0000    0     1.008    3.653251    4.714752    2.966248
  22 H     1.0000    0     1.008    4.868475    2.526702    5.142350
  23 H     1.0000    0     1.008   -2.980235    6.606281    1.278409
  24 H     1.0000    0     1.008    0.289562    6.197653    1.574688
  25 H     1.0000    0     1.008   -0.997070    6.691077   -1.452039
  26 H     1.0000    0     1.008   -0.537680   -3.880270    3.245719
  27 H     1.0000    0     1.008   -5.070181   -1.089723    3.250618
  28 H     1.0000    0     1.008    3.587077   -3.052270   -2.997665
  29 H     1.0000    0     1.008   -2.991286   -1.441810   -4.049407

--------------------------------
INTERNAL COORDINATES (ANGSTROEM)
--------------------------------
 O      0   0   0     0.000000000000     0.00000000     0.00000000
 O      1   0   0     4.248734845425     0.00000000     0.00000000
 O      1   2   0     4.486777689492    71.74780802     0.00000000
 O      3   1   2     3.657019972707   107.60288727   340.31408604
 N      3   1   2     2.262812118962    63.11232034   279.46490399
 N      4   3   1     2.272230760468    83.74886060   314.64668362
 N      1   2   3     2.265449403209    62.96262602   359.90639205
 N      4   3   1     2.271883223066    67.66193989    15.96288953
 C      1   2   3     2.367438967759    72.02693082   292.42699511
 C      2   1   3     2.369929564993    76.42160540    75.61900223
 C      5   3   1     1.447514472223   150.19407856    36.94929279
 C      6   4   3     1.448887344733   146.68269284    44.32460009
 C      9   1   2     1.467244033118    95.57783719   241.78243713
 C     10   2   1     1.468669861863    96.92459103    99.12402293
 C      1   2   3     1.211207284862    63.25325719   324.19448240
 C      2   1   3     1.221202715908    80.87717622    45.30147154
 C      3   1   2     1.209825300290    33.40771486   289.31011866
 C      4   3   1     1.198759774957    73.08358439   343.33146445
 H     11   5   3     1.095754214045   107.89641658   192.63689690
 H     12   6   4     1.084328939591   107.60974320   177.48764863
 H     13   9   1     1.097717297380   111.76670976   348.03559025
 H     13   9   1     1.081607473255   109.07958556   106.41747651
 H     13   9   1     1.100030581218   110.43947483   223.88376240
 H     14  10   2     1.098908440503   109.58038288   121.44814302
 H     14  10   2     1.081467295039   110.41217795   238.85010417
 H     14  10   2     1.083807269124   111.32904185   359.72717054
 H      5   3   1     1.006261873064    86.16898335   187.45671450
 H      6   4   3     1.004938573397    89.45461162   250.45174404
 H      7   1   2     1.006730043540    90.52156290   100.98543720
 H      8   4   3     1.011569741123    87.74014703    84.75213186

---------------------------
INTERNAL COORDINATES (A.U.)
---------------------------
 O      0   0   0     0.000000000000     0.00000000     0.00000000
 O      1   0   0     8.028945273502     0.00000000     0.00000000
 O      1   2   0     8.478781056928    71.74780802     0.00000000
 O      3   1   2     6.910766214697   107.60288727   340.31408604
 N      3   1   2     4.276095197356    63.11232034   279.46490399
 N      4   3   1     4.293893850356    83.74886060   314.64668362
 N      1   2   3     4.281078942320    62.96262602   359.90639205
 N      4   3   1     4.293237099844    67.66193989    15.96288953
 C      1   2   3     4.473811287837    72.02693082   292.42699511
 C      2   1   3     4.478517834521    76.42160540    75.61900223
 C      5   3   1     2.735405927390   150.19407856    36.94929279
 C      6   4   3     2.738000280450   146.68269284    44.32460009
 C      9   1   2     2.772689394222    95.57783719   241.78243713
 C     10   2   1     2.775383820066    96.92459103    99.12402293
 C      1   2   3     2.288850059799    63.25325719   324.19448240
 C      2   1   3     2.307738687067    80.87717622    45.30147154
 C      3   1   2     2.286238487437    33.40771486   289.31011866
 C      4   3   1     2.265327675029    73.08358439   343.33146445
 H     11   5   3     2.070675374635   107.89641658   192.63689690
 H     12   6   4     2.049084734912   107.60974320   177.48764863
 H     13   9   1     2.074385064517   111.76670976   348.03559025
 H     13   9   1     2.043941908855   109.07958556   106.41747651
 H     13   9   1     2.078756537441   110.43947483   223.88376240
 H     14  10   2     2.076635998804   109.58038288   121.44814302
 H     14  10   2     2.043677010417   110.41217795   238.85010417
 H     14  10   2     2.048098920598   111.32904185   359.72717054
 H      5   3   1     1.901559359097    86.16898335   187.45671450
 H      6   4   3     1.899058685133    89.45461162   250.45174404
 H      7   1   2     1.902444073081    90.52156290   100.98543720
 H      8   4   3     1.911589776085    87.74014703    84.75213186

---------------------
BASIS SET INFORMATION
---------------------
There are 4 groups of distinct atoms

 Group   1 Type O   : 12s7p3d1f contracted to 6s4p3d1f pattern {621111/4111/111/1}
 Group   2 Type N   : 12s6p3d1f contracted to 6s3p3d1f pattern {621111/411/111/1}
 Group   3 Type C   : 12s6p3d1f contracted to 6s3p3d1f pattern {621111/411/111/1}
 Group   4 Type H   : 5s3p1d contracted to 3s3p1d pattern {311/111/1}

Atom   0O    basis set group =>   1
Atom   1O    basis set group =>   1
Atom   2O    basis set group =>   1
Atom   3O    basis set group =>   1
Atom   4N    basis set group =>   2
Atom   5N    basis set group =>   2
Atom   6N    basis set group =>   2
Atom   7N    basis set group =>   2
Atom   8C    basis set group =>   3
Atom   9C    basis set group =>   3
Atom  10C    basis set group =>   3
Atom  11C    basis set group =>   3
Atom  12C    basis set group =>   3
Atom  13C    basis set group =>   3
Atom  14C    basis set group =>   3
Atom  15C    basis set group =>   3
Atom  16C    basis set group =>   3
Atom  17C    basis set group =>   3
Atom  18H    basis set group =>   4
Atom  19H    basis set group =>   4
Atom  20H    basis set group =>   4
Atom  21H    basis set group =>   4
Atom  22H    basis set group =>   4
Atom  23H    basis set group =>   4
Atom  24H    basis set group =>   4
Atom  25H    basis set group =>   4
Atom  26H    basis set group =>   4
Atom  27H    basis set group =>   4
Atom  28H    basis set group =>   4
Atom  29H    basis set group =>   4
---------------------------------
AUXILIARY/J BASIS SET INFORMATION
---------------------------------
There are 4 groups of distinct atoms

 Group   1 Type O   : 12s5p4d2f1g contracted to 6s4p3d1f1g pattern {711111/2111/211/2/1}
 Group   2 Type N   : 12s5p4d2f1g contracted to 6s4p3d1f1g pattern {711111/2111/211/2/1}
 Group   3 Type C   : 12s5p4d2f1g contracted to 6s4p3d1f1g pattern {711111/2111/211/2/1}
 Group   4 Type H   : 5s2p1d contracted to 3s1p1d pattern {311/2/1}

Atom   0O    basis set group =>   1
Atom   1O    basis set group =>   1
Atom   2O    basis set group =>   1
Atom   3O    basis set group =>   1
Atom   4N    basis set group =>   2
Atom   5N    basis set group =>   2
Atom   6N    basis set group =>   2
Atom   7N    basis set group =>   2
Atom   8C    basis set group =>   3
Atom   9C    basis set group =>   3
Atom  10C    basis set group =>   3
Atom  11C    basis set group =>   3
Atom  12C    basis set group =>   3
Atom  13C    basis set group =>   3
Atom  14C    basis set group =>   3
Atom  15C    basis set group =>   3
Atom  16C    basis set group =>   3
Atom  17C    basis set group =>   3
Atom  18H    basis set group =>   4
Atom  19H    basis set group =>   4
Atom  20H    basis set group =>   4
Atom  21H    basis set group =>   4
Atom  22H    basis set group =>   4
Atom  23H    basis set group =>   4
Atom  24H    basis set group =>   4
Atom  25H    basis set group =>   4
Atom  26H    basis set group =>   4
Atom  27H    basis set group =>   4
Atom  28H    basis set group =>   4
Atom  29H    basis set group =>   4
[1741182369.433432] [ohm:82085:0]        ib_iface.c:1059 UCX  ERROR ibv_create_cq(cqe=256) failed: Connection timed out
[1741182369.445698] [ohm:82082:0]        ib_iface.c:1059 UCX  ERROR ibv_create_cq(cqe=256) failed: Connection timed out
[1741182369.489488] [ohm:82094:0]        ib_iface.c:1059 UCX  ERROR ibv_create_cq(cqe=256) failed: Connection timed out
[1741182369.493568] [ohm:82099:0]        ib_iface.c:1059 UCX  ERROR ibv_create_cq(cqe=256) failed: Connection timed out
[1741182369.496021] [ohm:82084:0]        ib_iface.c:1059 UCX  ERROR ibv_create_cq(cqe=256) failed: Connection timed out
[1741182369.498822] [ohm:82081:0]        ib_iface.c:1059 UCX  ERROR ibv_create_cq(cqe=256) failed: Connection timed out
[1741182369.501843] [ohm:82079:0]        ib_iface.c:1059 UCX  ERROR ibv_create_cq(cqe=256) failed: Connection timed out
[1741182369.503479] [ohm:82080:0]        ib_iface.c:1059 UCX  ERROR ibv_create_cq(cqe=256) failed: Connection timed out
[1741182369.505213] [ohm:82083:0]        ib_iface.c:1059 UCX  ERROR ibv_create_cq(cqe=256) failed: Connection timed out
[1741182369.525253] [ohm:82087:0]        ib_iface.c:1059 UCX  ERROR ibv_create_cq(cqe=256) failed: Connection timed out
[1741182369.525495] [ohm:82096:0]        ib_iface.c:1059 UCX  ERROR ibv_create_cq(cqe=256) failed: Connection timed out
[1741182369.528652] [ohm:82086:0]        ib_iface.c:1059 UCX  ERROR ibv_create_cq(cqe=256) failed: Connection timed out
[1741182369.544717] [ohm:82090:0]        ib_iface.c:1059 UCX  ERROR ibv_create_cq(cqe=256) failed: Connection timed out
[1741182369.547725] [ohm:82095:0]        ib_iface.c:1059 UCX  ERROR ibv_create_cq(cqe=256) failed: Connection timed out
[1741182369.585661] [ohm:82100:0]        ib_iface.c:1059 UCX  ERROR ibv_create_cq(cqe=256) failed: Connection timed out
[1741182369.590270] [ohm:82102:0]        ib_iface.c:1059 UCX  ERROR ibv_create_cq(cqe=256) failed: Connection timed out
[1741182369.590769] [ohm:82097:0]        ib_iface.c:1059 UCX  ERROR ibv_create_cq(cqe=256) failed: Connection timed out
[1741182369.633899] [ohm:82128:0]        ib_iface.c:1059 UCX  ERROR ibv_create_cq(cqe=256) failed: Connection timed out
[1741182369.634388] [ohm:82107:0]        ib_iface.c:1059 UCX  ERROR ibv_create_cq(cqe=256) failed: Connection timed out
[1741182369.647229] [ohm:82176:0]        ib_iface.c:1059 UCX  ERROR ibv_create_cq(cqe=256) failed: Connection timed out
[1741182369.652637] [ohm:82206:0]        ib_iface.c:1059 UCX  ERROR ibv_create_cq(cqe=256) failed: Connection timed out
[1741182369.659926] [ohm:82089:0]        ib_iface.c:1059 UCX  ERROR ibv_create_cq(cqe=256) failed: Connection timed out
[1741182369.663626] [ohm:82198:0]        ib_iface.c:1059 UCX  ERROR ibv_create_cq(cqe=256) failed: Connection timed out
[1741182369.663818] [ohm:82184:0]        ib_iface.c:1059 UCX  ERROR ibv_create_cq(cqe=256) failed: Connection timed out
[1741182369.674906] [ohm:82151:0]        ib_iface.c:1059 UCX  ERROR ibv_create_cq(cqe=256) failed: Connection timed out
[1741182369.685071] [ohm:82092:0]        ib_iface.c:1059 UCX  ERROR ibv_create_cq(cqe=256) failed: Connection timed out
[1741182369.689705] [ohm:82136:0]        ib_iface.c:1059 UCX  ERROR ibv_create_cq(cqe=256) failed: Connection timed out
[1741182369.692990] [ohm:82166:0]        ib_iface.c:1059 UCX  ERROR ibv_create_cq(cqe=256) failed: Connection timed out
[1741182369.694078] [ohm:82224:0]        ib_iface.c:1059 UCX  ERROR ibv_create_cq(cqe=256) failed: Connection timed out
[1741182369.709659] [ohm:82131:0]        ib_iface.c:1059 UCX  ERROR ibv_create_cq(cqe=256) failed: Connection timed out
[1741182369.710880] [ohm:82168:0]        ib_iface.c:1059 UCX  ERROR ibv_create_cq(cqe=256) failed: Connection timed out
[1741182369.714763] [ohm:82112:0]        ib_iface.c:1059 UCX  ERROR ibv_create_cq(cqe=256) failed: Connection timed out
[1741182369.715988] [ohm:82194:0]        ib_iface.c:1059 UCX  ERROR ibv_create_cq(cqe=256) failed: Connection timed out
[1741182369.724155] [ohm:82152:0]        ib_iface.c:1059 UCX  ERROR ibv_create_cq(cqe=256) failed: Connection timed out
[1741182369.729938] [ohm:82101:0]        ib_iface.c:1059 UCX  ERROR ibv_create_cq(cqe=256) failed: Connection timed out
[1741182369.732688] [ohm:82098:0]        ib_iface.c:1059 UCX  ERROR ibv_create_cq(cqe=256) failed: Connection timed out
[1741182369.733319] [ohm:82147:0]        ib_iface.c:1059 UCX  ERROR ibv_create_cq(cqe=256) failed: Connection timed out
[1741182369.744984] [ohm:82091:0]        ib_iface.c:1059 UCX  ERROR ibv_create_cq(cqe=256) failed: Connection timed out
[1741182369.750138] [ohm:82221:0]        ib_iface.c:1059 UCX  ERROR ibv_create_cq(cqe=256) failed: Connection timed out
[1741182369.753935] [ohm:82144:0]        ib_iface.c:1059 UCX  ERROR ibv_create_cq(cqe=256) failed: Connection timed out
[1741182369.770594] [ohm:82106:0]        ib_iface.c:1059 UCX  ERROR ibv_create_cq(cqe=256) failed: Connection timed out
[1741182369.770796] [ohm:82173:0]        ib_iface.c:1059 UCX  ERROR ibv_create_cq(cqe=256) failed: Connection timed out
[1741182369.772250] [ohm:82187:0]        ib_iface.c:1059 UCX  ERROR ibv_create_cq(cqe=256) failed: Connection timed out
[1741182369.773762] [ohm:82159:0]        ib_iface.c:1059 UCX  ERROR ibv_create_cq(cqe=256) failed: Connection timed out
[1741182369.773787] [ohm:82160:0]        ib_iface.c:1059 UCX  ERROR ibv_create_cq(cqe=256) failed: Connection timed out
[1741182369.774288] [ohm:82172:0]        ib_iface.c:1059 UCX  ERROR ibv_create_cq(cqe=256) failed: Connection timed out
[1741182369.778129] [ohm:82104:0]        ib_iface.c:1059 UCX  ERROR ibv_create_cq(cqe=256) failed: Connection timed out
[1741182369.781715] [ohm:82088:0]        ib_iface.c:1059 UCX  ERROR ibv_create_cq(cqe=256) failed: Connection timed out
[1741182369.792786] [ohm:82093:0]        ib_iface.c:1059 UCX  ERROR ibv_create_cq(cqe=256) failed: Connection timed out
[1741182369.794519] [ohm:82118:0]        ib_iface.c:1059 UCX  ERROR ibv_create_cq(cqe=256) failed: Connection timed out
[1741182369.797133] [ohm:82140:0]        ib_iface.c:1059 UCX  ERROR ibv_create_cq(cqe=256) failed: Connection timed out
[1741182369.799017] [ohm:82181:0]        ib_iface.c:1059 UCX  ERROR ibv_create_cq(cqe=256) failed: Connection timed out
[1741182369.799628] [ohm:82216:0]        ib_iface.c:1059 UCX  ERROR ibv_create_cq(cqe=256) failed: Connection timed out
[1741182369.802424] [ohm:82103:0]        ib_iface.c:1059 UCX  ERROR ibv_create_cq(cqe=256) failed: Connection timed out
[1741182369.802411] [ohm:82190:0]        ib_iface.c:1059 UCX  ERROR ibv_create_cq(cqe=256) failed: Connection timed out
[1741182369.806711] [ohm:82109:0]        ib_iface.c:1059 UCX  ERROR ibv_create_cq(cqe=256) failed: Connection timed out
[1741182369.807625] [ohm:82214:0]        ib_iface.c:1059 UCX  ERROR ibv_create_cq(cqe=256) failed: Connection timed out
[1741182369.808913] [ohm:82117:0]        ib_iface.c:1059 UCX  ERROR ibv_create_cq(cqe=256) failed: Connection timed out
[1741182369.809883] [ohm:82193:0]        ib_iface.c:1059 UCX  ERROR ibv_create_cq(cqe=256) failed: Connection timed out
[1741182369.810240] [ohm:82126:0]        ib_iface.c:1059 UCX  ERROR ibv_create_cq(cqe=256) failed: Connection timed out
[1741182369.810464] [ohm:82105:0]        ib_iface.c:1059 UCX  ERROR ibv_create_cq(cqe=256) failed: Connection timed out
[1741182369.810454] [ohm:82201:0]        ib_iface.c:1059 UCX  ERROR ibv_create_cq(cqe=256) failed: Connection timed out
[1741182369.810474] [ohm:82203:0]        ib_iface.c:1059 UCX  ERROR ibv_create_cq(cqe=256) failed: Connection timed out
[1741182369.811844] [ohm:82210:0]        ib_iface.c:1059 UCX  ERROR ibv_create_cq(cqe=256) failed: Connection timed out


           ************************************************************
           *        Program running with 64 parallel MPI-processes    *
           *              working on a common directory               *
           ************************************************************
------------------------------------------------------------------------------
                             ORCA STARTUP CALCULATIONS
                           -- RI-GTO INTEGRALS CHOSEN --
------------------------------------------------------------------------------
------------------------------------------------------------------------------
                   ___                                                        
                  /   \      - P O W E R E D   B Y -                         
                 /     \                                                     
                 |  |  |   _    _      __       _____    __    __             
                 |  |  |  | |  | |    /  \     |  _  \  |  |  /  |          
                  \  \/   | |  | |   /    \    | | | |  |  | /  /          
                 / \  \   | |__| |  /  /\  \   | |_| |  |  |/  /          
                |  |  |   |  __  | /  /__\  \  |    /   |      \           
                |  |  |   | |  | | |   __   |  |    \   |  |\   \          
                \     /   | |  | | |  |  |  |  | |\  \  |  | \   \       
                 \___/    |_|  |_| |__|  |__|  |_| \__\ |__|  \__/        
                                                                              
                      - O R C A' S   B I G   F R I E N D -                    
                                      &                                       
                       - I N T E G R A L  F E E D E R -                       
                                                                              
 v1 FN, 2020, v2 2021, v3 2022-2024                                           
------------------------------------------------------------------------------


----------------------
SHARK INTEGRAL PACKAGE
----------------------

Number of atoms                             ...     30
Number of basis functions                   ...    882
Number of shells                            ...    322
Maximum angular momentum                    ...      3
Integral batch strategy                     ... SHARK/LIBINT Hybrid
RI-J (if used) integral strategy            ... SPLIT-RIJ (Revised 2003 algorithm where possible)
Printlevel                                  ...      1
Contraction scheme used                     ... SEGMENTED contraction
Prescreening option                         ... SCHWARTZ
   Thresh                                   ... 2.500e-11
   Tcut                                     ... 2.500e-12
   Tpresel                                  ... 2.500e-12 
Coulomb Range Separation                    ... NOT USED
Exchange Range Separation                   ... Long Range
   Mu parameter                             ... 3.000e-01
   Scaling (regular/separated)              ... 1.500e-01 8.500e-01
Multipole approximations                    ... NOT USED
Finite Nucleus Model                        ... NOT USED
CABS basis                                  ... NOT available
Auxiliary Coulomb fitting basis             ... AVAILABLE
   # of basis functions in Aux-J            ...   1014
   # of shells in Aux-J                     ...    330
   Maximum angular momentum in Aux-J        ...      4
Auxiliary J/K fitting basis                 ... NOT available
Auxiliary Correlation fitting basis         ... NOT available
Auxiliary 'external' fitting basis          ... NOT available

Checking pre-screening integrals            ... done (  0.0 sec) Dimension = 322
Check shell pair data                       ... done (  0.0 sec)
Shell pair information
Shell pair cut-off parameter TPreSel        ...   2.5e-12
Total number of shell pairs                 ...     52003
Shell pairs after pre-screening             ...     45076
Total number of primitive shell pairs       ...    129718
Primitive shell pairs kept                  ...     84140
          la=0 lb=0:   8722 shell pairs
          la=1 lb=0:  11908 shell pairs
          la=1 lb=1:   4106 shell pairs
          la=2 lb=0:   8110 shell pairs
          la=2 lb=1:   5603 shell pairs
          la=2 lb=2:   1935 shell pairs
          la=3 lb=0:   2068 shell pairs
          la=3 lb=1:   1469 shell pairs
          la=3 lb=2:   1011 shell pairs
          la=3 lb=3:    144 shell pairs

Calculating one electron integrals          ... done (  0.2 sec)
Calculating RI/J V-Matrix + Cholesky decomp.... done (  0.0 sec)
Calculating Nuclear repulsion               ... done (  0.0 sec) ENN=   1447.891006490564 Eh

Diagonalization of the overlap matrix:
Smallest eigenvalue                        ... 5.303e-07
Time for diagonalization                   ...    0.124 sec
Threshold for overlap eigenvalues          ... 1.000e-07
Number of eigenvalues below threshold      ... 0

IMPORTANT:
Smallest eigenvalue of S below the DiffSThresh (1.000e-06) while
Thresh>1e-12 and/or TCut>1e-13! In order to avoid SCF convergence issues,
Thresh will be set to at least 1e-12 and TCut to at least 1e-13.
This can be turned off by adding %SCF DiffSThresh -1 END to the input.

Time for construction of square roots      ...    0.135 sec
Total time needed                          ...    0.273 sec

-------------------
DFT GRID GENERATION
-------------------

General Integration Accuracy     IntAcc      ... 4.388
Radial Grid Type                 RadialGrid  ... OptM3 with GC (2021)
Angular Grid (max. ang.)         AngularGrid ... 4 (Lebedev-302)
Angular grid pruning method      GridPruning ... 4 (adaptive)
Weight generation scheme         WeightScheme... mBecke (2022)
Basis function cutoff            BFCut       ... 1.0000e-11
Integration weight cutoff        WCut        ... 1.0000e-14
Partially contracted basis set               ... off
Rotationally invariant grid construction     ... off
Angular grids for H and He will be reduced by one unit
Diffuse basis detected: some atoms will have their outermost
                        angular grid increased by 1.

Total number of grid points                  ...   152083
Total number of batches                      ...     2392
Average number of points per batch           ...       63
Average number of grid points per atom       ...     5069

--------------------
COSX GRID GENERATION
--------------------

GRIDX 1
-------
General Integration Accuracy     IntAcc      ... 3.816
Radial Grid Type                 RadialGrid  ... OptM3 with GC (2021)
Angular Grid (max. ang.)         AngularGrid ... 1 (Lebedev-50)
Angular grid pruning method      GridPruning ... 4 (adaptive)
Weight generation scheme         WeightScheme... mBecke (2022)
Basis function cutoff            BFCut       ... 1.0000e-11
Integration weight cutoff        WCut        ... 1.0000e-14
Partially contracted basis set               ... on
Rotationally invariant grid construction     ... off
Angular grids for H and He will be reduced by one unit
Diffuse basis detected: some atoms will have their outermost
                        angular grid increased by 1.

Total number of grid points                  ...    19036
Total number of batches                      ...      166
Average number of points per batch           ...      114
Average number of grid points per atom       ...      635
UseSFitting                                  ... on

GRIDX 2
-------
General Integration Accuracy     IntAcc      ... 4.020
Radial Grid Type                 RadialGrid  ... OptM3 with GC (2021)
Angular Grid (max. ang.)         AngularGrid ... 2 (Lebedev-110)
Angular grid pruning method      GridPruning ... 4 (adaptive)
Weight generation scheme         WeightScheme... mBecke (2022)
Basis function cutoff            BFCut       ... 1.0000e-11
Integration weight cutoff        WCut        ... 1.0000e-14
Partially contracted basis set               ... on
Rotationally invariant grid construction     ... off
Angular grids for H and He will be reduced by one unit
Diffuse basis detected: some atoms will have their outermost
                        angular grid increased by 1.

Total number of grid points                  ...    45885
Total number of batches                      ...      374
Average number of points per batch           ...      122
Average number of grid points per atom       ...     1530
UseSFitting                                  ... on

GRIDX 3
-------
General Integration Accuracy     IntAcc      ... 4.338
Radial Grid Type                 RadialGrid  ... OptM3 with GC (2021)
Angular Grid (max. ang.)         AngularGrid ... 3 (Lebedev-194)
Angular grid pruning method      GridPruning ... 4 (adaptive)
Weight generation scheme         WeightScheme... mBecke (2022)
Basis function cutoff            BFCut       ... 1.0000e-11
Integration weight cutoff        WCut        ... 1.0000e-14
Partially contracted basis set               ... on
Rotationally invariant grid construction     ... off
Angular grids for H and He will be reduced by one unit
Diffuse basis detected: some atoms will have their outermost
                        angular grid increased by 1.

Total number of grid points                  ...   101077
Total number of batches                      ...      803
Average number of points per batch           ...      125
Average number of grid points per atom       ...     3369
UseSFitting                                  ... on
Initializing property integral containers    ... done (  0.0 sec)

SHARK setup successfully completed in   4.1 seconds

Maximum memory used throughout the entire STARTUP-calculation: 80.1 MB
[1741182375.818636] [ohm:82425:0]        ib_iface.c:1059 UCX  ERROR ibv_create_cq(cqe=256) failed: Connection timed out
[1741182375.832825] [ohm:82424:0]        ib_iface.c:1059 UCX  ERROR ibv_create_cq(cqe=256) failed: Connection timed out
[1741182375.849928] [ohm:82439:0]        ib_iface.c:1059 UCX  ERROR ibv_create_cq(cqe=256) failed: Connection timed out
[1741182375.850936] [ohm:82438:0]        ib_iface.c:1059 UCX  ERROR ibv_create_cq(cqe=256) failed: Connection timed out
[1741182375.854270] [ohm:82441:0]        ib_iface.c:1059 UCX  ERROR ibv_create_cq(cqe=256) failed: Connection timed out
[1741182375.854637] [ohm:82426:0]        ib_iface.c:1059 UCX  ERROR ibv_create_cq(cqe=256) failed: Connection timed out
[1741182375.857801] [ohm:82423:0]        ib_iface.c:1059 UCX  ERROR ibv_create_cq(cqe=256) failed: Connection timed out
[1741182375.858276] [ohm:82422:0]        ib_iface.c:1059 UCX  ERROR ibv_create_cq(cqe=256) failed: Connection timed out
[1741182375.859517] [ohm:82429:0]        ib_iface.c:1059 UCX  ERROR ibv_create_cq(cqe=256) failed: Connection timed out
[1741182375.871694] [ohm:82469:0]        ib_iface.c:1059 UCX  ERROR ibv_create_cq(cqe=256) failed: Connection timed out
[1741182375.872642] [ohm:82544:0]        ib_iface.c:1059 UCX  ERROR ibv_create_cq(cqe=256) failed: Connection timed out
[1741182375.876999] [ohm:82475:0]        ib_iface.c:1059 UCX  ERROR ibv_create_cq(cqe=256) failed: Connection timed out
[1741182375.879156] [ohm:82428:0]        ib_iface.c:1059 UCX  ERROR ibv_create_cq(cqe=256) failed: Connection timed out
[1741182375.910486] [ohm:82521:0]        ib_iface.c:1059 UCX  ERROR ibv_create_cq(cqe=256) failed: Connection timed out
[1741182375.913771] [ohm:82427:0]        ib_iface.c:1059 UCX  ERROR ibv_create_cq(cqe=256) failed: Connection timed out
[1741182375.924689] [ohm:82523:0]        ib_iface.c:1059 UCX  ERROR ibv_create_cq(cqe=256) failed: Connection timed out
[1741182375.927255] [ohm:82514:0]        ib_iface.c:1059 UCX  ERROR ibv_create_cq(cqe=256) failed: Connection timed out
[1741182375.929858] [ohm:82555:0]        ib_iface.c:1059 UCX  ERROR ibv_create_cq(cqe=256) failed: Connection timed out
[1741182375.930560] [ohm:82529:0]        ib_iface.c:1059 UCX  ERROR ibv_create_cq(cqe=256) failed: Connection timed out
[1741182375.935243] [ohm:82479:0]        ib_iface.c:1059 UCX  ERROR ibv_create_cq(cqe=256) failed: Connection timed out
[1741182375.949729] [ohm:82518:0]        ib_iface.c:1059 UCX  ERROR ibv_create_cq(cqe=256) failed: Connection timed out
[1741182375.976134] [ohm:82444:0]        ib_iface.c:1059 UCX  ERROR ibv_create_cq(cqe=256) failed: Connection timed out
[1741182376.023878] [ohm:82575:0]        ib_iface.c:1059 UCX  ERROR ibv_create_cq(cqe=256) failed: Connection timed out
[1741182376.026698] [ohm:82568:0]        ib_iface.c:1059 UCX  ERROR ibv_create_cq(cqe=256) failed: Connection timed out
[1741182376.027083] [ohm:82530:0]        ib_iface.c:1059 UCX  ERROR ibv_create_cq(cqe=256) failed: Connection timed out
[1741182376.034005] [ohm:82472:0]        ib_iface.c:1059 UCX  ERROR ibv_create_cq(cqe=256) failed: Connection timed out
[1741182376.035876] [ohm:82443:0]        ib_iface.c:1059 UCX  ERROR ibv_create_cq(cqe=256) failed: Connection timed out
[1741182376.042651] [ohm:82536:0]        ib_iface.c:1059 UCX  ERROR ibv_create_cq(cqe=256) failed: Connection timed out
[1741182376.043664] [ohm:82437:0]        ib_iface.c:1059 UCX  ERROR ibv_create_cq(cqe=256) failed: Connection timed out
[1741182376.047469] [ohm:82538:0]        ib_iface.c:1059 UCX  ERROR ibv_create_cq(cqe=256) failed: Connection timed out
[1741182376.053498] [ohm:82481:0]        ib_iface.c:1059 UCX  ERROR ibv_create_cq(cqe=256) failed: Connection timed out
[1741182376.053679] [ohm:82550:0]        ib_iface.c:1059 UCX  ERROR ibv_create_cq(cqe=256) failed: Connection timed out
[1741182376.058419] [ohm:82452:0]        ib_iface.c:1059 UCX  ERROR ibv_create_cq(cqe=256) failed: Connection timed out
[1741182376.061196] [ohm:82546:0]        ib_iface.c:1059 UCX  ERROR ibv_create_cq(cqe=256) failed: Connection timed out
[1741182376.069120] [ohm:82446:0]        ib_iface.c:1059 UCX  ERROR ibv_create_cq(cqe=256) failed: Connection timed out
[1741182376.076302] [ohm:82498:0]        ib_iface.c:1059 UCX  ERROR ibv_create_cq(cqe=256) failed: Connection timed out
[1741182376.081127] [ohm:82502:0]        ib_iface.c:1059 UCX  ERROR ibv_create_cq(cqe=256) failed: Connection timed out
[1741182376.081515] [ohm:82442:0]        ib_iface.c:1059 UCX  ERROR ibv_create_cq(cqe=256) failed: Connection timed out
[1741182376.085179] [ohm:82430:0]        ib_iface.c:1059 UCX  ERROR ibv_create_cq(cqe=256) failed: Connection timed out
[1741182376.096486] [ohm:82512:0]        ib_iface.c:1059 UCX  ERROR ibv_create_cq(cqe=256) failed: Connection timed out
[1741182376.101714] [ohm:82562:0]        ib_iface.c:1059 UCX  ERROR ibv_create_cq(cqe=256) failed: Connection timed out
[1741182376.102322] [ohm:82505:0]        ib_iface.c:1059 UCX  ERROR ibv_create_cq(cqe=256) failed: Connection timed out
[1741182376.104155] [ohm:82541:0]        ib_iface.c:1059 UCX  ERROR ibv_create_cq(cqe=256) failed: Connection timed out
[1741182376.109105] [ohm:82534:0]        ib_iface.c:1059 UCX  ERROR ibv_create_cq(cqe=256) failed: Connection timed out
[1741182376.110710] [ohm:82449:0]        ib_iface.c:1059 UCX  ERROR ibv_create_cq(cqe=256) failed: Connection timed out
[1741182376.114388] [ohm:82440:0]        ib_iface.c:1059 UCX  ERROR ibv_create_cq(cqe=256) failed: Connection timed out
[1741182376.116507] [ohm:82509:0]        ib_iface.c:1059 UCX  ERROR ibv_create_cq(cqe=256) failed: Connection timed out
[1741182376.116928] [ohm:82447:0]        ib_iface.c:1059 UCX  ERROR ibv_create_cq(cqe=256) failed: Connection timed out
[1741182376.122057] [ohm:82462:0]        ib_iface.c:1059 UCX  ERROR ibv_create_cq(cqe=256) failed: Connection timed out
[1741182376.124044] [ohm:82490:0]        ib_iface.c:1059 UCX  ERROR ibv_create_cq(cqe=256) failed: Connection timed out
[1741182376.125116] [ohm:82434:0]        ib_iface.c:1059 UCX  ERROR ibv_create_cq(cqe=256) failed: Connection timed out
[1741182376.126831] [ohm:82484:0]        ib_iface.c:1059 UCX  ERROR ibv_create_cq(cqe=256) failed: Connection timed out
[1741182376.129241] [ohm:82435:0]        ib_iface.c:1059 UCX  ERROR ibv_create_cq(cqe=256) failed: Connection timed out
[1741182376.130630] [ohm:82474:0]        ib_iface.c:1059 UCX  ERROR ibv_create_cq(cqe=256) failed: Connection timed out
[1741182376.139790] [ohm:82493:0]        ib_iface.c:1059 UCX  ERROR ibv_create_cq(cqe=256) failed: Connection timed out
[1741182376.140809] [ohm:82432:0]        ib_iface.c:1059 UCX  ERROR ibv_create_cq(cqe=256) failed: Connection timed out
[1741182376.140912] [ohm:82454:0]        ib_iface.c:1059 UCX  ERROR ibv_create_cq(cqe=256) failed: Connection timed out
[1741182376.141826] [ohm:82433:0]        ib_iface.c:1059 UCX  ERROR ibv_create_cq(cqe=256) failed: Connection timed out
[1741182376.142693] [ohm:82466:0]        ib_iface.c:1059 UCX  ERROR ibv_create_cq(cqe=256) failed: Connection timed out
[1741182376.143566] [ohm:82445:0]        ib_iface.c:1059 UCX  ERROR ibv_create_cq(cqe=256) failed: Connection timed out
[1741182376.144683] [ohm:82436:0]        ib_iface.c:1059 UCX  ERROR ibv_create_cq(cqe=256) failed: Connection timed out
[1741182376.146032] [ohm:82431:0]        ib_iface.c:1059 UCX  ERROR ibv_create_cq(cqe=256) failed: Connection timed out
[1741182376.147486] [ohm:82421:0]        ib_iface.c:1059 UCX  ERROR ibv_create_cq(cqe=256) failed: Connection timed out
[1741182376.147656] [ohm:82457:0]        ib_iface.c:1059 UCX  ERROR ibv_create_cq(cqe=256) failed: Connection timed out


           ************************************************************
           *        Program running with 64 parallel MPI-processes    *
           *              working on a common directory               *
           ************************************************************
-------------------------------------------------------------------------------
                                 ORCA GUESS
                   Start orbitals & Density for SCF / CASSCF
-------------------------------------------------------------------------------

------------
SCF SETTINGS
------------
Hamiltonian:
 Density Functional     Method          .... DFT(GTOs)
  Functional kind                       .... Exchange-Correlation
  Functional name                       .... wB97M-V exchange-correlation functional
  Functional family                     .... Hybrid MGGA
  Functional refs                              
    [ 0] N. Mardirossian and M. Head-Gordon.,  J. Chem. Phys. 144, 214110 (2016), doi: 10.1063/1.4952647
  Fraction of HF Exchange (short range) .... 0.1500
  Fraction of HF Exchange (long range)  .... 1.0000
  Range separation parameter mu         .... 0.3000
  Functional external parameters        .... 17
    Parameter  0 _cx00      =  8.500000e-01 : u^00 coefficient for exchange
    Parameter  1 _cx01      =  1.007000e+00 : u^01 coefficient for exchange
    Parameter  2 _cx10      =  2.590000e-01 : u^10 coefficient for exchange
    Parameter  3 _css00     =  4.430000e-01 : u^00 coefficient for same-spin correlation
    Parameter  4 _css04     = -1.437000e+00 : u^04 coefficient for same-spin correlation
    Parameter  5 _css10     = -4.535000e+00 : u^10 coefficient for same-spin correlation
    Parameter  6 _css20     = -3.390000e+00 : u^20 coefficient for same-spin correlation
    Parameter  7 _css43     =  4.278000e+00 : u^43 coefficient for same-spin correlation
    Parameter  8 _cos00     =  1.000000e+00 : u^00 coefficient for opposite-spin correlation
    Parameter  9 _cos10     =  1.358000e+00 : u^10 coefficient for opposite-spin correlation
    Parameter 10 _cos20     =  2.924000e+00 : u^20 coefficient for opposite-spin correlation
    Parameter 11 _cos21     = -8.812000e+00 : u^21 coefficient for opposite-spin correlation
    Parameter 12 _cos60     = -1.390000e+00 : u^60 coefficient for opposite-spin correlation
    Parameter 13 _cos61     =  9.142000e+00 : u^61 coefficient for opposite-spin correlation
    Parameter 14 _alpha     =  1.000000e+00 : fraction of HF exchange
    Parameter 15 _beta      = -8.500000e-01 : fraction of short-range exchange
    Parameter 16 _omega     =  3.000000e-01 : range-separation constant
 Long-range corrected/Screened/Range-Separated Hybrid DFT is turned on
   Amount of maximum screened exact exchange              ....  0.850000
   Range separation parameter mu (erf(mu*r12)/r12)        ....  0.300000
 RI-approximation to the Coulomb term is turned on
   Number of AuxJ basis functions       .... 1014
   RIJ-COSX (HFX calculated with COS-X)).... on


General Settings:
 Integral files         IntName         .... orca
 Hartree-Fock type      HFTyp           .... UHF
 Total Charge           Charge          ....    0
 Multiplicity           Mult            ....    3
 Number of Electrons    NEL             ....  132
 Basis Dimension        Dim             ....  882
 Nuclear Repulsion      ENuc            ....   1447.8910064906 Eh

Convergence Acceleration:
 AO-DIIS                CNVDIIS         .... on
   Start iteration      DIISMaxIt       ....    12
   Startup error        DIISStart       ....  0.200000
   # of expansion vecs  DIISMaxEq       ....     5
   Bias factor          DIISBfac        ....   1.050
   Max. coefficient     DIISMaxC        ....  10.000
 MO-DIIS                CNVKDIIS        .... off
 Trust-Rad. Augm. Hess. CNVTRAH         .... auto
   Auto Start mean grad. ratio tolernc. ....  1.125000
   Auto Start start iteration           ....    50
   Auto Start num. interpolation iter.  ....    10
   Max. Number of Micro iterations      ....    24
   Max. Number of Macro iterations      .... Maxiter - #DIIS iter
   Number of Davidson start vectors     ....     2
   Converg. threshold    (grad. norm)   ....   1.000e-05
   Grad. Scal. Fac. for Micro threshold ....   0.100
   Minimum threshold for Micro iter.    ....   1.000e-02
   NR start threshold (gradient norm)   ....   1.000e-04
   Initial trust radius                 ....   0.400
   Minimum AH scaling param. (alpha)    ....   1.000
   Maximum AH scaling param. (alpha)    .... 1000.000
   Quad. conv. algorithm                .... NR
   White noise on init. David. guess    .... on
   Maximum white noise                  ....   0.010
   Pseudo random numbers                .... off
   Inactive MOs                         .... canonical
   Orbital update algorithm             .... Taylor
   Preconditioner                       .... Diag
   Full preconditioner red. dimension   ....   250
 SOSCF                  CNVSOSCF        .... on
   Start iteration      SOSCFMaxIt      ....   150
   Startup grad/error   SOSCFStart      ....  0.003300
   Hessian update       SOSCFHessUp     .... L-BFGS
 Level Shifting         CNVShift        .... on
   Level shift para.    LevelShift      ....    0.2500
   Turn off err/grad.   ShiftErr        ....    0.0010
 Zerner damping         CNVZerner       .... off
 Static damping         CNVDamp         .... on
   Fraction old density DampFac         ....    0.7000
   Max. Damping (<1)    DampMax         ....    0.9800
   Min. Damping (>=0)   DampMin         ....    0.0000
   Turn off err/grad.   DampErr         ....    0.1000

SCF Procedure:
 Maximum # iterations   MaxIter         ....   125
 SCF integral mode      SCFMode         .... Direct
   Integral package                     .... SHARK and LIBINT hybrid scheme
 Reset frequency        DirectResetFreq ....    20
 Integral Threshold     Thresh          ....  1.000e-12 Eh
 Primitive CutOff       TCut            ....  1.000e-13 Eh

Convergence Tolerance:
 Convergence Check Mode ConvCheckMode   .... Total+1el-Energy
 Convergence forced     ConvForced      .... 1
 Energy Change          TolE            ....  1.000e-08 Eh
 1-El. energy change                    ....  1.000e-05 Eh
 Orbital Gradient       TolG            ....  1.000e-05
 Orbital Rotation angle TolX            ....  1.000e-05
 DIIS Error             TolErr          ....  5.000e-07

------------------------------
INITIAL GUESS: MODEL POTENTIAL
------------------------------
Loading Hartree-Fock densities                     ... done
Calculating cut-offs                               ... done
Initializing the effective Hamiltonian             ... done
Setting up the integral package (SHARK)            ... done
Starting the Coulomb interaction                   ... done (   0.1 sec)
Making the grid                                    ... done (   0.2 sec)
Mapping shells                                     ... done
Starting the XC term evaluation                    ... done (   0.1 sec)
  promolecular density results
     # of electrons  =    131.999750607
     EX              =   -113.535669500
     EC              =     -4.488056238
     EX+EC           =   -118.023725738
Transforming the Hamiltonian                       ... done (   0.1 sec)
Diagonalizing the Hamiltonian                      ... done (   0.1 sec)
Back transforming the eigenvectors                 ... done (   0.1 sec)
Now organizing SCF variables                       ... done
                      ------------------
                      INITIAL GUESS DONE (   1.1 sec)
                      ------------------
             **** ENERGY FILE WAS UPDATED (orca.en.tmp) ****
Finished Guess after   3.6 sec
Maximum memory used throughout the entire GUESS-calculation: 72.5 MB
[1741182379.881589] [ohm:82760:0]        ib_iface.c:1059 UCX  ERROR ibv_create_cq(cqe=256) failed: Connection timed out
[1741182379.893181] [ohm:82755:0]        ib_iface.c:1059 UCX  ERROR ibv_create_cq(cqe=256) failed: Connection timed out
[1741182379.896190] [ohm:82764:0]        ib_iface.c:1059 UCX  ERROR ibv_create_cq(cqe=256) failed: Connection timed out
[1741182379.897156] [ohm:82756:0]        ib_iface.c:1059 UCX  ERROR ibv_create_cq(cqe=256) failed: Connection timed out
[1741182379.902328] [ohm:82781:0]        ib_iface.c:1059 UCX  ERROR ibv_create_cq(cqe=256) failed: Connection timed out
[1741182379.907936] [ohm:82770:0]        ib_iface.c:1059 UCX  ERROR ibv_create_cq(cqe=256) failed: Connection timed out
[1741182379.910392] [ohm:82762:0]        ib_iface.c:1059 UCX  ERROR ibv_create_cq(cqe=256) failed: Connection timed out
[1741182379.917290] [ohm:82758:0]        ib_iface.c:1059 UCX  ERROR ibv_create_cq(cqe=256) failed: Connection timed out
[1741182379.917796] [ohm:82761:0]        ib_iface.c:1059 UCX  ERROR ibv_create_cq(cqe=256) failed: Connection timed out
[1741182379.951025] [ohm:82765:0]        ib_iface.c:1059 UCX  ERROR ibv_create_cq(cqe=256) failed: Connection timed out
[1741182379.953983] [ohm:82763:0]        ib_iface.c:1059 UCX  ERROR ibv_create_cq(cqe=256) failed: Connection timed out
[1741182379.991883] [ohm:82785:0]        ib_iface.c:1059 UCX  ERROR ibv_create_cq(cqe=256) failed: Connection timed out
[1741182379.994186] [ohm:82787:0]        ib_iface.c:1059 UCX  ERROR ibv_create_cq(cqe=256) failed: Connection timed out
[1741182380.008491] [ohm:82769:0]        ib_iface.c:1059 UCX  ERROR ibv_create_cq(cqe=256) failed: Connection timed out
[1741182380.015226] [ohm:82759:0]        ib_iface.c:1059 UCX  ERROR ibv_create_cq(cqe=256) failed: Connection timed out
[1741182380.020591] [ohm:82768:0]        ib_iface.c:1059 UCX  ERROR ibv_create_cq(cqe=256) failed: Connection timed out
[1741182380.022074] [ohm:82794:0]        ib_iface.c:1059 UCX  ERROR ibv_create_cq(cqe=256) failed: Connection timed out
[1741182380.024055] [ohm:82766:0]        ib_iface.c:1059 UCX  ERROR ibv_create_cq(cqe=256) failed: Connection timed out
[1741182380.032660] [ohm:82767:0]        ib_iface.c:1059 UCX  ERROR ibv_create_cq(cqe=256) failed: Connection timed out
[1741182380.042337] [ohm:82757:0]        ib_iface.c:1059 UCX  ERROR ibv_create_cq(cqe=256) failed: Connection timed out
[1741182380.043473] [ohm:82803:0]        ib_iface.c:1059 UCX  ERROR ibv_create_cq(cqe=256) failed: Connection timed out
[1741182380.045780] [ohm:82824:0]        ib_iface.c:1059 UCX  ERROR ibv_create_cq(cqe=256) failed: Connection timed out
[1741182380.078563] [ohm:82779:0]        ib_iface.c:1059 UCX  ERROR ibv_create_cq(cqe=256) failed: Connection timed out
[1741182380.099100] [ohm:82817:0]        ib_iface.c:1059 UCX  ERROR ibv_create_cq(cqe=256) failed: Connection timed out
[1741182380.111589] [ohm:82833:0]        ib_iface.c:1059 UCX  ERROR ibv_create_cq(cqe=256) failed: Connection timed out
[1741182380.115295] [ohm:82872:0]        ib_iface.c:1059 UCX  ERROR ibv_create_cq(cqe=256) failed: Connection timed out
[1741182380.122332] [ohm:82805:0]        ib_iface.c:1059 UCX  ERROR ibv_create_cq(cqe=256) failed: Connection timed out
[1741182380.127900] [ohm:82882:0]        ib_iface.c:1059 UCX  ERROR ibv_create_cq(cqe=256) failed: Connection timed out
[1741182380.135742] [ohm:82857:0]        ib_iface.c:1059 UCX  ERROR ibv_create_cq(cqe=256) failed: Connection timed out
[1741182380.141197] [ohm:82894:0]        ib_iface.c:1059 UCX  ERROR ibv_create_cq(cqe=256) failed: Connection timed out
[1741182380.142917] [ohm:82852:0]        ib_iface.c:1059 UCX  ERROR ibv_create_cq(cqe=256) failed: Connection timed out
[1741182380.146922] [ohm:82822:0]        ib_iface.c:1059 UCX  ERROR ibv_create_cq(cqe=256) failed: Connection timed out
[1741182380.149009] [ohm:82847:0]        ib_iface.c:1059 UCX  ERROR ibv_create_cq(cqe=256) failed: Connection timed out
[1741182380.152597] [ohm:82864:0]        ib_iface.c:1059 UCX  ERROR ibv_create_cq(cqe=256) failed: Connection timed out
[1741182380.153467] [ohm:82808:0]        ib_iface.c:1059 UCX  ERROR ibv_create_cq(cqe=256) failed: Connection timed out
[1741182380.154024] [ohm:82859:0]        ib_iface.c:1059 UCX  ERROR ibv_create_cq(cqe=256) failed: Connection timed out
[1741182380.154357] [ohm:82870:0]        ib_iface.c:1059 UCX  ERROR ibv_create_cq(cqe=256) failed: Connection timed out
[1741182380.159732] [ohm:82814:0]        ib_iface.c:1059 UCX  ERROR ibv_create_cq(cqe=256) failed: Connection timed out
[1741182380.162789] [ohm:82820:0]        ib_iface.c:1059 UCX  ERROR ibv_create_cq(cqe=256) failed: Connection timed out
[1741182380.166975] [ohm:82792:0]        ib_iface.c:1059 UCX  ERROR ibv_create_cq(cqe=256) failed: Connection timed out
[1741182380.174818] [ohm:82827:0]        ib_iface.c:1059 UCX  ERROR ibv_create_cq(cqe=256) failed: Connection timed out
[1741182380.181110] [ohm:82844:0]        ib_iface.c:1059 UCX  ERROR ibv_create_cq(cqe=256) failed: Connection timed out
[1741182380.184276] [ohm:82904:0]        ib_iface.c:1059 UCX  ERROR ibv_create_cq(cqe=256) failed: Connection timed out
[1741182380.185599] [ohm:82851:0]        ib_iface.c:1059 UCX  ERROR ibv_create_cq(cqe=256) failed: Connection timed out
[1741182380.186911] [ohm:82867:0]        ib_iface.c:1059 UCX  ERROR ibv_create_cq(cqe=256) failed: Connection timed out
[1741182380.186976] [ohm:82889:0]        ib_iface.c:1059 UCX  ERROR ibv_create_cq(cqe=256) failed: Connection timed out
[1741182380.188033] [ohm:82884:0]        ib_iface.c:1059 UCX  ERROR ibv_create_cq(cqe=256) failed: Connection timed out
[1741182380.189672] [ohm:82823:0]        ib_iface.c:1059 UCX  ERROR ibv_create_cq(cqe=256) failed: Connection timed out
[1741182380.192696] [ohm:82801:0]        ib_iface.c:1059 UCX  ERROR ibv_create_cq(cqe=256) failed: Connection timed out
[1741182380.193976] [ohm:82812:0]        ib_iface.c:1059 UCX  ERROR ibv_create_cq(cqe=256) failed: Connection timed out
[1741182380.197797] [ohm:82777:0]        ib_iface.c:1059 UCX  ERROR ibv_create_cq(cqe=256) failed: Connection timed out
[1741182380.200056] [ohm:82795:0]        ib_iface.c:1059 UCX  ERROR ibv_create_cq(cqe=256) failed: Connection timed out
[1741182380.200696] [ohm:82791:0]        ib_iface.c:1059 UCX  ERROR ibv_create_cq(cqe=256) failed: Connection timed out
[1741182380.205426] [ohm:82897:0]        ib_iface.c:1059 UCX  ERROR ibv_create_cq(cqe=256) failed: Connection timed out
[1741182380.207098] [ohm:82797:0]        ib_iface.c:1059 UCX  ERROR ibv_create_cq(cqe=256) failed: Connection timed out
[1741182380.207393] [ohm:82890:0]        ib_iface.c:1059 UCX  ERROR ibv_create_cq(cqe=256) failed: Connection timed out
[1741182380.211541] [ohm:82831:0]        ib_iface.c:1059 UCX  ERROR ibv_create_cq(cqe=256) failed: Connection timed out
[1741182380.213342] [ohm:82826:0]        ib_iface.c:1059 UCX  ERROR ibv_create_cq(cqe=256) failed: Connection timed out
[1741182380.213755] [ohm:82825:0]        ib_iface.c:1059 UCX  ERROR ibv_create_cq(cqe=256) failed: Connection timed out
[1741182380.214206] [ohm:82836:0]        ib_iface.c:1059 UCX  ERROR ibv_create_cq(cqe=256) failed: Connection timed out
[1741182380.214228] [ohm:82841:0]        ib_iface.c:1059 UCX  ERROR ibv_create_cq(cqe=256) failed: Connection timed out
[1741182380.216954] [ohm:82877:0]        ib_iface.c:1059 UCX  ERROR ibv_create_cq(cqe=256) failed: Connection timed out
[1741182380.217874] [ohm:82900:0]        ib_iface.c:1059 UCX  ERROR ibv_create_cq(cqe=256) failed: Connection timed out
[1741182380.218373] [ohm:82798:0]        ib_iface.c:1059 UCX  ERROR ibv_create_cq(cqe=256) failed: Connection timed out


           ************************************************************
           *        Program running with 64 parallel MPI-processes    *
           *              working on a common directory               *
           ************************************************************

-------------------------------------------------------------------------------------------
                                      ORCA LEAN-SCF
                              memory conserving SCF solver
-------------------------------------------------------------------------------------------

----------------------------------------D-I-I-S--------------------------------------------
Iteration    Energy (Eh)           Delta-E    RMSDP     MaxDP     DIISErr   Damp  Time(sec)
-------------------------------------------------------------------------------------------
               ***  Starting incremental Fock matrix formation  ***
    1    -908.1353145005055012     0.00e+00  1.68e-03  2.89e-01  1.46e-01  0.700   7.7
    2    -908.4037552029503786    -2.68e-01  1.33e-03  2.14e-01  7.00e-02  0.700   6.6
                               ***Turning on AO-DIIS***
    3    -908.5222409526991214    -1.18e-01  9.41e-04  1.38e-01  2.98e-02  0.700   5.8
    4    -908.5951947282783294    -7.30e-02  2.23e-03  3.02e-01  1.92e-02  0.000   5.7
    5    -908.7593718614962199    -1.64e-01  3.19e-04  6.68e-02  5.40e-03  0.000   5.9
                              *** Initializing SOSCF ***
---------------------------------------S-O-S-C-F--------------------------------------
Iteration    Energy (Eh)           Delta-E    RMSDP     MaxDP     MaxGrad    Time(sec)
--------------------------------------------------------------------------------------
    6    -908.7608012153909840    -1.43e-03  1.46e-04  4.05e-02  3.04e-03     6.5
               *** Restarting incremental Fock matrix formation ***
    7    -908.7614639644584713    -6.63e-04  1.76e-04  3.10e-02  5.17e-03     7.4
    8    -908.7619004408102228    -4.36e-04  2.37e-04  5.87e-02  2.79e-03     6.6
    9    -908.7620484038384348    -1.48e-04  8.73e-05  8.00e-03  1.03e-03     6.7
   10    -908.7621331629156884    -8.48e-05  3.98e-05  1.18e-02  3.98e-04     6.5
   11    -908.7621433013800925    -1.01e-05  7.26e-06  1.16e-03  1.37e-04     6.3
   12    -908.7621454327259016    -2.13e-06  5.39e-06  7.46e-04  1.61e-04     6.1
   13    -908.7621465690535842    -1.14e-06  4.27e-06  8.49e-04  3.98e-05     6.1
   14    -908.7621467140729692    -1.45e-07  1.36e-06  3.31e-04  2.61e-05     6.0
   15    -908.7621467410644982    -2.70e-08  1.72e-06  3.14e-04  1.78e-05     5.8
   16    -908.7621467647559257    -2.37e-08  1.21e-06  2.03e-04  4.63e-06     5.6
   17    -908.7621467538456272     1.09e-08  1.37e-06  2.94e-04  2.31e-06     5.6
                  *** Gradient check signals convergence ***

               *****************************************************
               *                     SUCCESS                       *
               *           SCF CONVERGED AFTER  17 CYCLES          *
               *****************************************************

Recomputing exchange energy using gridx3       ... done (    7.946 sec)
Old exchange energy                            :    -35.038032072 Eh
New exchange energy                            :    -35.038032268 Eh
Exchange energy change after final integration :     -0.000000196 Eh
Total energy after final integration           :   -908.762146949 Eh
             **** ENERGY FILE WAS UPDATED (orca.en.tmp) ****

----------------
TOTAL SCF ENERGY
----------------

Total Energy       :       -908.76214694943440 Eh          -24728.67520 eV

Components:
Nuclear Repulsion  :       1447.89100649056354 Eh           39399.11730 eV
Electronic Energy  :      -2356.65315324440917 Eh          -64127.79249 eV
One Electron Energy:      -4113.23654665122649 Eh         -111926.85669 eV
Two Electron Energy:       1756.58339340681732 Eh           47799.06419 eV

Virial components:
Potential Energy   :      -1814.47960036405857 Eh          -49374.50008 eV
Kinetic Energy     :        905.71745341462406 Eh           24645.82488 eV
Virial Ratio       :          2.00336163725600

DFT components:
N(Alpha)           :       66.999901172685 electrons
N(Beta)            :       64.999895630832 electrons
N(Total)           :      131.999796803517 electrons
E(XC)              :      -86.253848622112 Eh       

---------------
SCF CONVERGENCE
---------------

  Last Energy change         ...   -1.0910e-08  Tolerance :   1.0000e-08
  Last MAX-Density change    ...    2.9412e-04  Tolerance :   1.0000e-07
  Last RMS-Density change    ...    1.3664e-06  Tolerance :   5.0000e-09
  Last DIIS Error            ...    3.0429e-03  Tolerance :   5.0000e-07
  Last Orbital Gradient      ...    2.3140e-06  Tolerance :   1.0000e-05
  Last Orbital Rotation      ...    1.4702e-05  Tolerance :   1.0000e-05


----------------------
UHF SPIN CONTAMINATION
----------------------

Warning: in a DFT calculation there is little theoretical justification to 
         calculate <S**2> as in Hartree-Fock theory. We will do it anyways
         but you should keep in mind that the values have only limited relevance

Expectation value of <S**2>     :     2.014507
Ideal value S*(S+1) for S=1.0   :     2.000000
Deviation                       :     0.014507

----------------
ORBITAL ENERGIES
----------------
                 SPIN UP ORBITALS
  NO   OCC          E(Eh)            E(eV) 
   0   1.0000     -19.332296      -526.0585 
   1   1.0000     -19.331741      -526.0434 
   2   1.0000     -19.318154      -525.6737 
   3   1.0000     -19.314404      -525.5716 
   4   1.0000     -14.563323      -396.2882 
   5   1.0000     -14.558501      -396.1570 
   6   1.0000     -14.556920      -396.1139 
   7   1.0000     -14.556705      -396.1081 
   8   1.0000     -10.501009      -285.7470 
   9   1.0000     -10.499688      -285.7110 
  10   1.0000     -10.479128      -285.1516 
  11   1.0000     -10.477587      -285.1096 
  12   1.0000     -10.452975      -284.4399 
  13   1.0000     -10.447998      -284.3045 
  14   1.0000     -10.423695      -283.6432 
  15   1.0000     -10.412296      -283.3330 
  16   1.0000     -10.374264      -282.2981 
  17   1.0000     -10.372155      -282.2407 
  18   1.0000      -1.220762       -33.2186 
  19   1.0000      -1.215532       -33.0763 
  20   1.0000      -1.196086       -32.5471 
  21   1.0000      -1.193593       -32.4793 
  22   1.0000      -1.115108       -30.3436 
  23   1.0000      -1.095348       -29.8059 
  24   1.0000      -1.062377       -28.9087 
  25   1.0000      -1.052400       -28.6373 
  26   1.0000      -0.975922       -26.5562 
  27   1.0000      -0.953313       -25.9410 
  28   1.0000      -0.882770       -24.0214 
  29   1.0000      -0.839041       -22.8315 
  30   1.0000      -0.828018       -22.5315 
  31   1.0000      -0.803562       -21.8660 
  32   1.0000      -0.782666       -21.2974 
  33   1.0000      -0.774838       -21.0844 
  34   1.0000      -0.697889       -18.9905 
  35   1.0000      -0.691312       -18.8116 
  36   1.0000      -0.682847       -18.5812 
  37   1.0000      -0.661235       -17.9931 
  38   1.0000      -0.650649       -17.7051 
  39   1.0000      -0.645131       -17.5549 
  40   1.0000      -0.614827       -16.7303 
  41   1.0000      -0.603382       -16.4189 
  42   1.0000      -0.590322       -16.0635 
  43   1.0000      -0.584533       -15.9060 
  44   1.0000      -0.582889       -15.8612 
  45   1.0000      -0.569203       -15.4888 
  46   1.0000      -0.564350       -15.3568 
  47   1.0000      -0.557871       -15.1804 
  48   1.0000      -0.555915       -15.1272 
  49   1.0000      -0.552449       -15.0329 
  50   1.0000      -0.544189       -14.8081 
  51   1.0000      -0.540932       -14.7195 
  52   1.0000      -0.532677       -14.4949 
  53   1.0000      -0.525556       -14.3011 
  54   1.0000      -0.514754       -14.0072 
  55   1.0000      -0.507579       -13.8119 
  56   1.0000      -0.490431       -13.3453 
  57   1.0000      -0.420555       -11.4439 
  58   1.0000      -0.417080       -11.3493 
  59   1.0000      -0.408630       -11.1194 
  60   1.0000      -0.405954       -11.0466 
  61   1.0000      -0.394577       -10.7370 
  62   1.0000      -0.391887       -10.6638 
  63   1.0000      -0.387611       -10.5474 
  64   1.0000      -0.382566       -10.4102 
  65   1.0000      -0.338523        -9.2117 
  66   1.0000      -0.327034        -8.8991 
  67   0.0000       0.005894         0.1604 
  68   0.0000       0.028499         0.7755 
  69   0.0000       0.031478         0.8566 
  70   0.0000       0.039578         1.0770 
  71   0.0000       0.056279         1.5314 
  72   0.0000       0.057537         1.5656 
  73   0.0000       0.059513         1.6194 
  74   0.0000       0.063985         1.7411 
  75   0.0000       0.068321         1.8591 
  76   0.0000       0.072276         1.9667 
  77   0.0000       0.087196         2.3727 

                 SPIN DOWN ORBITALS
  NO   OCC          E(Eh)            E(eV) 
   0   1.0000     -19.327984      -525.9412 
   1   1.0000     -19.327103      -525.9172 
   2   1.0000     -19.317930      -525.6676 
   3   1.0000     -19.314175      -525.5654 
   4   1.0000     -14.562777      -396.2733 
   5   1.0000     -14.558063      -396.1450 
   6   1.0000     -14.556554      -396.1040 
   7   1.0000     -14.556318      -396.0976 
   8   1.0000     -10.501036      -285.7477 
   9   1.0000     -10.499710      -285.7116 
  10   1.0000     -10.480188      -285.1804 
  11   1.0000     -10.478607      -285.1374 
  12   1.0000     -10.452585      -284.4293 
  13   1.0000     -10.447861      -284.3007 
  14   1.0000     -10.412084      -283.3272 
  15   1.0000     -10.400962      -283.0246 
  16   1.0000     -10.374836      -282.3136 
  17   1.0000     -10.372709      -282.2558 
  18   1.0000      -1.219373       -33.1808 
  19   1.0000      -1.213423       -33.0189 
  20   1.0000      -1.191483       -32.4219 
  21   1.0000      -1.187695       -32.3188 
  22   1.0000      -1.112620       -30.2759 
  23   1.0000      -1.093114       -29.7452 
  24   1.0000      -1.060672       -28.8624 
  25   1.0000      -1.050900       -28.5964 
  26   1.0000      -0.961304       -26.1584 
  27   1.0000      -0.936602       -25.4862 
  28   1.0000      -0.878650       -23.9093 
  29   1.0000      -0.833967       -22.6934 
  30   1.0000      -0.819077       -22.2882 
  31   1.0000      -0.798048       -21.7160 
  32   1.0000      -0.781339       -21.2613 
  33   1.0000      -0.773249       -21.0412 
  34   1.0000      -0.691870       -18.8268 
  35   1.0000      -0.685065       -18.6416 
  36   1.0000      -0.677201       -18.4276 
  37   1.0000      -0.654499       -17.8098 
  38   1.0000      -0.642156       -17.4740 
  39   1.0000      -0.638787       -17.3823 
  40   1.0000      -0.612276       -16.6609 
  41   1.0000      -0.598782       -16.2937 
  42   1.0000      -0.583411       -15.8754 
  43   1.0000      -0.575191       -15.6517 
  44   1.0000      -0.572145       -15.5689 
  45   1.0000      -0.563985       -15.3468 
  46   1.0000      -0.560039       -15.2394 
  47   1.0000      -0.554235       -15.0815 
  48   1.0000      -0.548165       -14.9163 
  49   1.0000      -0.540971       -14.7206 
  50   1.0000      -0.539481       -14.6800 
  51   1.0000      -0.533747       -14.5240 
  52   1.0000      -0.525500       -14.2996 
  53   1.0000      -0.514923       -14.0118 
  54   1.0000      -0.504370       -13.7246 
  55   1.0000      -0.501825       -13.6553 
  56   1.0000      -0.485211       -13.2033 
  57   1.0000      -0.416394       -11.3307 
  58   1.0000      -0.413334       -11.2474 
  59   1.0000      -0.401981       -10.9385 
  60   1.0000      -0.392826       -10.6893 
  61   1.0000      -0.386055       -10.5051 
  62   1.0000      -0.383677       -10.4404 
  63   1.0000      -0.381106       -10.3704 
  64   1.0000      -0.372433       -10.1344 
  65   0.0000      -0.062523        -1.7013 
  66   0.0000      -0.044051        -1.1987 
  67   0.0000       0.005542         0.1508 
  68   0.0000       0.028378         0.7722 
  69   0.0000       0.031115         0.8467 
  70   0.0000       0.039573         1.0768 
  71   0.0000       0.057465         1.5637 
  72   0.0000       0.058457         1.5907 
  73   0.0000       0.060076         1.6348 
  74   0.0000       0.064598         1.7578 
  75   0.0000       0.068374         1.8605 
*Only the first 10 virtual orbitals were printed.

                    ********************************
                    * MULLIKEN POPULATION ANALYSIS *
                    ********************************

--------------------------------------------
MULLIKEN ATOMIC CHARGES AND SPIN POPULATIONS
--------------------------------------------
   0 O :   -0.660876    0.154974
   1 O :   -0.677624    0.167842
   2 O :   -0.656057    0.008351
   3 O :   -0.632613    0.007851
   4 N :   -0.284564    0.017466
   5 N :   -0.297726    0.022577
   6 N :    0.084831    0.021660
   7 N :    0.041376    0.015970
   8 C :   -0.139674    0.419188
   9 C :   -0.138356    0.423237
  10 C :    0.332689    0.170920
  11 C :    0.713887    0.086457
  12 C :   -1.205429    0.022703
  13 C :   -1.208161    0.033162
  14 C :    0.595766    0.175644
  15 C :    0.424985    0.176592
  16 C :    0.374062   -0.013275
  17 C :    0.370911   -0.003073
  18 H :    0.592928    0.008088
  19 H :    0.528014    0.002277
  20 H :    0.314837    0.008442
  21 H :    0.190233    0.021625
  22 H :    0.302332    0.011980
  23 H :    0.314992    0.018479
  24 H :    0.221818    0.020353
  25 H :    0.318623    0.005171
  26 H :    0.059714   -0.001621
  27 H :    0.055267   -0.001349
  28 H :    0.033373   -0.001527
  29 H :    0.030442   -0.000163
Sum of atomic charges         :    0.0000000
Sum of atomic spin populations:    2.0000000

-----------------------------------------------------
MULLIKEN REDUCED ORBITAL CHARGES AND SPIN POPULATIONS
-----------------------------------------------------
CHARGE
  0 O s       :     4.093712  s :     4.093712
      pz      :     1.585323  p :     4.533310
      px      :     1.334217
      py      :     1.613770
      dz2     :     0.005315  d :     0.031924
      dxz     :     0.006141
      dyz     :     0.005442
      dx2y2   :     0.009581
      dxy     :     0.005444
      f0      :     0.000155  f :     0.001930
      f+1     :     0.000394
      f-1     :     0.000127
      f+2     :     0.000323
      f-2     :     0.000345
      f+3     :     0.000336
      f-3     :     0.000250

  1 O s       :     4.101233  s :     4.101233
      pz      :     1.427030  p :     4.543934
      px      :     1.446794
      py      :     1.670110
      dz2     :     0.005908  d :     0.030576
      dxz     :     0.012019
      dyz     :     0.008026
      dx2y2   :     0.002620
[...]
[1741182679.869865] [ohm:83913:0]        ib_iface.c:1059 UCX  ERROR ibv_create_cq(cqe=256) failed: Connection timed out
[1741182679.870459] [ohm:83956:0]        ib_iface.c:1059 UCX  ERROR ibv_create_cq(cqe=256) failed: Connection timed out
[1741182679.870527] [ohm:83946:0]        ib_iface.c:1059 UCX  ERROR ibv_create_cq(cqe=256) failed: Connection timed out
[1741182679.870881] [ohm:83976:0]        ib_iface.c:1059 UCX  ERROR ibv_create_cq(cqe=256) failed: Connection timed out
[1741182679.871076] [ohm:83905:0]        ib_iface.c:1059 UCX  ERROR ibv_create_cq(cqe=256) failed: Connection timed out
[1741182679.874743] [ohm:84014:0]        ib_iface.c:1059 UCX  ERROR ibv_create_cq(cqe=256) failed: Connection timed out
[1741182679.874838] [ohm:84020:0]        ib_iface.c:1059 UCX  ERROR ibv_create_cq(cqe=256) failed: Connection timed out
[1741182679.875422] [ohm:83982:0]        ib_iface.c:1059 UCX  ERROR ibv_create_cq(cqe=256) failed: Connection timed out
[1741182679.875868] [ohm:83970:0]        ib_iface.c:1059 UCX  ERROR ibv_create_cq(cqe=256) failed: Connection timed out
[1741182679.877142] [ohm:83941:0]        ib_iface.c:1059 UCX  ERROR ibv_create_cq(cqe=256) failed: Connection timed out
[1741182679.877814] [ohm:83965:0]        ib_iface.c:1059 UCX  ERROR ibv_create_cq(cqe=256) failed: Connection timed out


           ************************************************************
           *        Program running with 64 parallel MPI-processes    *
           *              working on a common directory               *
           ************************************************************

------------------------------------------------------------------------------
                              ORCA PROPERTY CALCULATIONS
------------------------------------------------------------------------------

GBWName                                 ... orca.gbw
Number of atoms                         ...     30
Number of basis functions               ...    882
Max core memory                         ...   1024 MB

Electric properties:
Dipole moment                           ... YES
Quadrupole moment                       ...  NO
Static polarizability (Dipole/Dipole)   ...  NO
Static polarizability (Dipole/Quad.)    ...  NO
Static polarizability (Quad./Quad.)     ...  NO
Static polarizability (Velocity)        ...  NO

Atomic electric properties:
Dipole moment                           ...  NO
Quadrupole moment                       ...  NO
Static polarizability                   ...  NO

Choice of electric origin               ... Center of mass
Position of electric origin             ...    -0.014315    -0.077313    -0.036191

General magnetic properties:
Magnetizability                         ...  NO

EPR properties:
g-Tensor (aka g-matrix)                 ...  NO
Zero-Field splitting spin-orbit         ...  NO
Zero-field splitting spin-spin          ...  NO
Hyperfine couplings                     ...  NO (   0 nuclei)
Quadrupole couplings                    ...  NO (   0 nuclei)
Contact density                         ...  NO (   0 nuclei)

NMR properties:
Chemical shifts                         ...  NO (   0 nuclei)
Spin-rotation constants                 ...  NO (   0 nuclei)
Spin-spin couplings                     ...  NO (   0 nuclei,    0 pairs)

Choice of magnetic origin               ... GIAO
Position of magnetic origin             ...     0.000000     0.000000     0.000000

Properties with geometric perturbations:
SCF Hessian                             ...  NO
IR spectrum                             ...  NO
VCD spectrum                            ...  NO
X-ray spectroscopy properties:
SCF XES/XAS/RIXS spectra                ...  NO


-------------
DIPOLE MOMENT
-------------

Method             : SCF
Type of density    : Electron Density
Multiplicity       :   3
Irrep              :   0
Energy             :  -908.7621469494343955 Eh
Relativity type    : 
Basis              : AO
                                X                 Y                 Z
Electronic contribution:     -2.665318922     -10.263812191      -7.383442098
Nuclear contribution   :      2.459455637      11.851516435      10.206512130
                        -----------------------------------------
Total Dipole Moment    :     -0.205863285       1.587704244       2.823070032
                        -----------------------------------------
Magnitude (a.u.)       :      3.245444325
Magnitude (Debye)      :      8.249263893



--------------------
Rotational spectrum 
--------------------
 
Rotational constants in cm-1:             0.018897             0.015261             0.012229 
Rotational constants in MHz :           566.526329           457.504740           366.630729 

Dipole components along the rotational axes: 
x,y,z [a.u.] :     0.597495    -1.550678     2.787706 
x,y,z [Debye]:     1.518712    -3.941511     7.085785 

 

-------------
DIPOLE MOMENT
-------------

Method             : TDA/CIS
Type of density    : Electron Density
Level              : Relaxed density
State              :   1
Multiplicity       :   3
Irrep              :   0
Energy             :     0.0000000000000000 Eh
Relativity type    : 
Basis              : AO
                                X                 Y                 Z
Electronic contribution:     -2.676492753     -10.235034906      -7.271613645
Nuclear contribution   :      2.459455637      11.851516435      10.206512130
                        -----------------------------------------
Total Dipole Moment    :     -0.217037115       1.616481529       2.934898485
                        -----------------------------------------
Magnitude (a.u.)       :      3.357640058
Magnitude (Debye)      :      8.534442785



--------------------
Rotational spectrum 
--------------------
 
Rotational constants in cm-1:             0.018897             0.015261             0.012229 
Rotational constants in MHz :           566.526329           457.504740           366.630729 

Dipole components along the rotational axes: 
x,y,z [a.u.] :     0.609113    -1.580068     2.899330 
x,y,z [Debye]:     1.548243    -4.016214     7.369511 

 

Dipole moment calculation done in   0.2 sec 

Maximum memory used throughout the entire PROP-calculation: 81.7 MB
[1741182682.436411] [ohm:84253:0]        ib_iface.c:1059 UCX  ERROR ibv_create_cq(cqe=256) failed: Connection timed out
[1741182682.441490] [ohm:84251:0]        ib_iface.c:1059 UCX  ERROR ibv_create_cq(cqe=256) failed: Connection timed out
[1741182682.446769] [ohm:84241:0]        ib_iface.c:1059 UCX  ERROR ibv_create_cq(cqe=256) failed: Connection timed out
[1741182682.448002] [ohm:84242:0]        ib_iface.c:1059 UCX  ERROR ibv_create_cq(cqe=256) failed: Connection timed out
[1741182682.466426] [ohm:84254:0]        ib_iface.c:1059 UCX  ERROR ibv_create_cq(cqe=256) failed: Connection timed out
[1741182682.474335] [ohm:84246:0]        ib_iface.c:1059 UCX  ERROR ibv_create_cq(cqe=256) failed: Connection timed out
[1741182682.484955] [ohm:84244:0]        ib_iface.c:1059 UCX  ERROR ibv_create_cq(cqe=256) failed: Connection timed out
[1741182682.488575] [ohm:84260:0]        ib_iface.c:1059 UCX  ERROR ibv_create_cq(cqe=256) failed: Connection timed out
[1741182682.526360] [ohm:84257:0]        ib_iface.c:1059 UCX  ERROR ibv_create_cq(cqe=256) failed: Connection timed out
[1741182682.541518] [ohm:84256:0]        ib_iface.c:1059 UCX  ERROR ibv_create_cq(cqe=256) failed: Connection timed out
[1741182682.555953] [ohm:84255:0]        ib_iface.c:1059 UCX  ERROR ibv_create_cq(cqe=256) failed: Connection timed out
[1741182682.564948] [ohm:84250:0]        ib_iface.c:1059 UCX  ERROR ibv_create_cq(cqe=256) failed: Connection timed out
[1741182682.565666] [ohm:84299:0]        ib_iface.c:1059 UCX  ERROR ibv_create_cq(cqe=256) failed: Connection timed out
[1741182682.566140] [ohm:84297:0]        ib_iface.c:1059 UCX  ERROR ibv_create_cq(cqe=256) failed: Connection timed out
[1741182682.567377] [ohm:84281:0]        ib_iface.c:1059 UCX  ERROR ibv_create_cq(cqe=256) failed: Connection timed out
[1741182682.568022] [ohm:84252:0]        ib_iface.c:1059 UCX  ERROR ibv_create_cq(cqe=256) failed: Connection timed out
[1741182682.649273] [ohm:84258:0]        ib_iface.c:1059 UCX  ERROR ibv_create_cq(cqe=256) failed: Connection timed out
[1741182682.649260] [ohm:84351:0]        ib_iface.c:1059 UCX  ERROR ibv_create_cq(cqe=256) failed: Connection timed out
[1741182682.652906] [ohm:84344:0]        ib_iface.c:1059 UCX  ERROR ibv_create_cq(cqe=256) failed: Connection timed out
[1741182682.665283] [ohm:84293:0]        ib_iface.c:1059 UCX  ERROR ibv_create_cq(cqe=256) failed: Connection timed out
[1741182682.671161] [ohm:84346:0]        ib_iface.c:1059 UCX  ERROR ibv_create_cq(cqe=256) failed: Connection timed out
[1741182682.681058] [ohm:84245:0]        ib_iface.c:1059 UCX  ERROR ibv_create_cq(cqe=256) failed: Connection timed out
[1741182682.687007] [ohm:84291:0]        ib_iface.c:1059 UCX  ERROR ibv_create_cq(cqe=256) failed: Connection timed out
[1741182682.691588] [ohm:84394:0]        ib_iface.c:1059 UCX  ERROR ibv_create_cq(cqe=256) failed: Connection timed out
[1741182682.693022] [ohm:84301:0]        ib_iface.c:1059 UCX  ERROR ibv_create_cq(cqe=256) failed: Connection timed out
[1741182682.693952] [ohm:84286:0]        ib_iface.c:1059 UCX  ERROR ibv_create_cq(cqe=256) failed: Connection timed out
[1741182682.695909] [ohm:84276:0]        ib_iface.c:1059 UCX  ERROR ibv_create_cq(cqe=256) failed: Connection timed out
[1741182682.702571] [ohm:84340:0]        ib_iface.c:1059 UCX  ERROR ibv_create_cq(cqe=256) failed: Connection timed out
[1741182682.735648] [ohm:84262:0]        ib_iface.c:1059 UCX  ERROR ibv_create_cq(cqe=256) failed: Connection timed out
[1741182682.736175] [ohm:84328:0]        ib_iface.c:1059 UCX  ERROR ibv_create_cq(cqe=256) failed: Connection timed out
[1741182682.736138] [ohm:84358:0]        ib_iface.c:1059 UCX  ERROR ibv_create_cq(cqe=256) failed: Connection timed out
[1741182682.740542] [ohm:84261:0]        ib_iface.c:1059 UCX  ERROR ibv_create_cq(cqe=256) failed: Connection timed out
[1741182682.742003] [ohm:84369:0]        ib_iface.c:1059 UCX  ERROR ibv_create_cq(cqe=256) failed: Connection timed out
[1741182682.742833] [ohm:84265:0]        ib_iface.c:1059 UCX  ERROR ibv_create_cq(cqe=256) failed: Connection timed out
[1741182682.751753] [ohm:84275:0]        ib_iface.c:1059 UCX  ERROR ibv_create_cq(cqe=256) failed: Connection timed out
[1741182682.753055] [ohm:84389:0]        ib_iface.c:1059 UCX  ERROR ibv_create_cq(cqe=256) failed: Connection timed out
[1741182682.754772] [ohm:84247:0]        ib_iface.c:1059 UCX  ERROR ibv_create_cq(cqe=256) failed: Connection timed out
[1741182682.756782] [ohm:84377:0]        ib_iface.c:1059 UCX  ERROR ibv_create_cq(cqe=256) failed: Connection timed out
[1741182682.760552] [ohm:84259:0]        ib_iface.c:1059 UCX  ERROR ibv_create_cq(cqe=256) failed: Connection timed out
[1741182682.761212] [ohm:84315:0]        ib_iface.c:1059 UCX  ERROR ibv_create_cq(cqe=256) failed: Connection timed out
[1741182682.765822] [ohm:84365:0]        ib_iface.c:1059 UCX  ERROR ibv_create_cq(cqe=256) failed: Connection timed out
[1741182682.771914] [ohm:84285:0]        ib_iface.c:1059 UCX  ERROR ibv_create_cq(cqe=256) failed: Connection timed out
[1741182682.786253] [ohm:84363:0]        ib_iface.c:1059 UCX  ERROR ibv_create_cq(cqe=256) failed: Connection timed out
[1741182682.787787] [ohm:84249:0]        ib_iface.c:1059 UCX  ERROR ibv_create_cq(cqe=256) failed: Connection timed out
[1741182682.797663] [ohm:84306:0]        ib_iface.c:1059 UCX  ERROR ibv_create_cq(cqe=256) failed: Connection timed out
[1741182682.800057] [ohm:84294:0]        ib_iface.c:1059 UCX  ERROR ibv_create_cq(cqe=256) failed: Connection timed out
[1741182682.802248] [ohm:84329:0]        ib_iface.c:1059 UCX  ERROR ibv_create_cq(cqe=256) failed: Connection timed out
[1741182682.805966] [ohm:84338:0]        ib_iface.c:1059 UCX  ERROR ibv_create_cq(cqe=256) failed: Connection timed out
[1741182682.810832] [ohm:84333:0]        ib_iface.c:1059 UCX  ERROR ibv_create_cq(cqe=256) failed: Connection timed out
[1741182682.812045] [ohm:84380:0]        ib_iface.c:1059 UCX  ERROR ibv_create_cq(cqe=256) failed: Connection timed out
[1741182682.817457] [ohm:84266:0]        ib_iface.c:1059 UCX  ERROR ibv_create_cq(cqe=256) failed: Connection timed out
[1741182682.821019] [ohm:84374:0]        ib_iface.c:1059 UCX  ERROR ibv_create_cq(cqe=256) failed: Connection timed out
[1741182682.822321] [ohm:84271:0]        ib_iface.c:1059 UCX  ERROR ibv_create_cq(cqe=256) failed: Connection timed out
[1741182682.822551] [ohm:84269:0]        ib_iface.c:1059 UCX  ERROR ibv_create_cq(cqe=256) failed: Connection timed out
[1741182682.822720] [ohm:84312:0]        ib_iface.c:1059 UCX  ERROR ibv_create_cq(cqe=256) failed: Connection timed out
[1741182682.823252] [ohm:84360:0]        ib_iface.c:1059 UCX  ERROR ibv_create_cq(cqe=256) failed: Connection timed out
[1741182682.826045] [ohm:84355:0]        ib_iface.c:1059 UCX  ERROR ibv_create_cq(cqe=256) failed: Connection timed out
[1741182682.827054] [ohm:84263:0]        ib_iface.c:1059 UCX  ERROR ibv_create_cq(cqe=256) failed: Connection timed out
[1741182682.827266] [ohm:84240:0]        ib_iface.c:1059 UCX  ERROR ibv_create_cq(cqe=256) failed: Connection timed out
[1741182682.828966] [ohm:84324:0]        ib_iface.c:1059 UCX  ERROR ibv_create_cq(cqe=256) failed: Connection timed out
[1741182682.829073] [ohm:84243:0]        ib_iface.c:1059 UCX  ERROR ibv_create_cq(cqe=256) failed: Connection timed out
[1741182682.829650] [ohm:84248:0]        ib_iface.c:1059 UCX  ERROR ibv_create_cq(cqe=256) failed: Connection timed out
[1741182682.830874] [ohm:84322:0]        ib_iface.c:1059 UCX  ERROR ibv_create_cq(cqe=256) failed: Connection timed out
[1741182682.831852] [ohm:84335:0]        ib_iface.c:1059 UCX  ERROR ibv_create_cq(cqe=256) failed: Connection timed out

--------------------------------
SUGGESTED CITATIONS FOR THIS RUN
--------------------------------

Below you find a list of papers that are relevant to this ORCA run
We neither can nor want to force you to cite these papers, but we appreciate if you do
You receive ORCA, which is the product of decades of hard work by many enthusiastic individuals, for free
The only thing we kindly ask in return is that you cite our papers,
We deeply appreciate it, if you show your appreciation for ORCA by not just citing the generic ORCA reference.

Please note that relegating all ORCA citations to the supporting information does *not* help us.
SI sections are not indexed - citations you put there will not count into any citation statistics
But we need these citations in order to attract the funding resources that allow us to do what we are doing

Therefore, if you are a happy ORCA user, please consider citing a few of the papers listed below in the main body of your paper

In addition to the list printed below, the program has created the file orca.bibtex that contains the list in bibtex format
You can import this file easily into all common literature databanks and citation aid programs


List of essential papers. We consider these as the minimum necessary citations

  1. Neese,F.
     Software update: the ORCA program system, version 5.0
     WIRES Comput. Molec. Sci., 2022 12(1)e1606
     doi.org/10.1002/wcms.1606

List of papers to cite with high priority. The work reported in these papers was absolutely
necessary for this run to complete.
Our perspective: the developers of density functionals and basis sets usually get cited in chemistry papers
Good! But without the algorithms to do something with them, the functionals or basis sets would not do anything.
Hence, in our opinion, the algorithm design and method developments papers are equally worthy of getting cited

  1. Neese,F.; Olbrich,G.
     Efficient use of the resolution of the identity approximation in time-dependent density functional calculations with hybrid density functionals
     Chem. Phys. Lett., 2002 362 170-178
     doi.org/10.1016/s0009-2614(02)01053-9
  2. Neese,F.
     An improvement of the resolution of the identity approximation for the formation of the Coulomb matrix
     J. Comp. Chem., 2003 24(14)1740-1747
     doi.org/10.1002/jcc.10318
  3. Neese,F.; Wennmohs,F.; Hansen,A.; Becker,U.
     Efficient, approximate and parallel Hartree-Fock and hybrid DFT calculations. A 'chain-of-spheres' algorithm for the Hartree-Fock exchange
     Chem. Phys., 2009 356(1-3)98-109
     doi.org/10.1016/j.chemphys.2008.10.036
  4. Petrenko,T.; Kossmann,S.; Neese,F.
     Efficient time-dependent density functional theory approximations for hybrid density functionals: Analytical gradients and parallelization
     J. Chem. Phys., 2011 134 054116
     doi.org/10.1063/1.3533441
  5. Helmich-Paris,B.; de Souza,B.; Neese,F.; Izsák,R.
     An improved chain of spheres for exchange algorithm
     J. Chem. Phys., 2021 155 104109
     doi.org/doi: 10.1063/5.0058766.
  6. Neese,F.
     The SHARK Integral Generation and Digestion System
     J. Comp. Chem., 2022  1-16
     doi.org/10.1002/jcc.26942
  7. Lehtola,S.; Steigemann,C.; Oliveira,M.; Marques,M.
     Recent developments in Libxc - A comprehensive library of functionals for density functional theory
     Software X, 2018 7 
     doi.org/10.1016/j.softx.2017.11.002
  8. Grimme,S.; Antony,J.; Ehrlich,S.; Krieg,H.
     A consistent and accurate ab initio parametrization of density functional dispersion correction (DFT-D) for the 94 elements H-Pu
     J. Chem. Phys., 2010 132 154104-XXXX
     doi.org/10.1063/1.3382344
  9. Grimme,S.; Ehrlich,S.; Goerigk,L.
     Effect of the damping function in dispersion corrected density functional theory
     J. Comput. Chem., 2011 32(7)1456-1465
     doi.org/10.1002/jcc.21759

List of suggested additional citations. These are papers that are important in the 'surrounding' of 
of this run, or papers that preceded the highly important papers. If you like your results we are grateful for a citation.

  1. Izsak,R.; Neese,F.
     An overlap fitted chain of spheres exchange method
     J. Chem. Phys., 2011 135 144105
     doi.org/10.1063/1.3646921
  2. Izsak,R.; Hansen,A.; Neese,F.
     The resolution of identity and chain of spheres approximations for the LPNO-CCSD singles Fock term
     Molec. Phys., 2012 110 2413-2417
     doi.org/10.1080/00268976.2012.687466
  3. Neese,F.
     The ORCA program system
     WIRES Comput. Molec. Sci., 2012 2(1)73-78
     doi.org/10.1002/wcms.81
  4. Izsak,R.; Neese,F.; Klopper,W.
     Robust fitting techniques in the chain of spheres approximation to the Fock exchange: The role of the complementary space
     J. Chem. Phys., 2013 139 
     doi.org/10.1063/1.4819264
  5. Neese,F.
     Software update: the ORCA program system, version 4.0
     WIRES Comput. Molec. Sci., 2018 8(1)1-6
     doi.org/10.1002/wcms.1327
  6. Neese,F.; Wennmohs,F.; Becker,U.; Riplinger,C.
     The ORCA quantum chemistry program package
     J. Chem. Phys., 2020 152 Art. No. L224108
     doi.org/10.1063/5.0004608

List of optional additional citations

  1. Neese,F.
     Approximate second-order SCF convergence for spin unrestricted wavefunctions
     Chem. Phys. Lett., 2000 325(1-3)93-98
     doi.org/10.1016/s0009-2614(00)00662-x

Timings for individual modules:

Sum of individual times          ...      312.877 sec (=   5.215 min)
Startup calculation              ...        6.346 sec (=   0.106 min)   2.0 %
SCF iterations                   ...      124.654 sec (=   2.078 min)  39.8 %
Property integrals               ...        4.552 sec (=   0.076 min)   1.5 %
Property calculations            ...        3.331 sec (=   0.056 min)   1.1 %
CIS module                       ...      173.993 sec (=   2.900 min)  55.6 %
                             ****ORCA TERMINATED NORMALLY****
TOTAL RUN TIME: 0 days 0 hours 5 minutes 15 seconds 164 msec
