
                                 *****************
                                 * O   R   C   A *
                                 *****************

                                            #,                                       
                                            ###                                      
                                            ####                                     
                                            #####                                    
                                            ######                                   
                                           ########,                                 
                                     ,,################,,,,,                         
                               ,,#################################,,                 
                          ,,##########################################,,             
                       ,#########################################, ''#####,          
                    ,#############################################,,   '####,        
                  ,##################################################,,,,####,       
                ,###########''''           ''''###############################       
              ,#####''   ,,,,##########,,,,          '''####'''          '####       
            ,##' ,,,,###########################,,,                        '##       
           ' ,,###''''                  '''############,,,                           
         ,,##''                                '''############,,,,        ,,,,,,###''
      ,#''                                            '''#######################'''  
     '                                                          ''''####''''         
             ,#######,   #######,   ,#######,      ##                                
            ,#'     '#,  ##    ##  ,#'     '#,    #''#        ,####,   ,####,        
            ##       ##  ##   ,#'  ##            #'  '#       #'       #'  '#        
            ##       ##  #######   ##           ,######,      #####,   #    #        
            '#,     ,#'  ##    ##  '#,     ,#' ,#      #,     #,   #   #,  ,#        
             '#######'   ##     ##  '#######'  #'      '#     '####' # '####'        



                #########################################################
                #                        -***-                          #
                #          Department of theory and spectroscopy        #
                #                                                       #
                #                      Frank Neese                      #
                #                                                       #
                #     Directorship, Architecture, Infrastructure        #
                #                    SHARK, DRIVERS                     #
                #        Core code/Algorithms in most modules           #
                #                                                       #
                #        Max Planck Institute fuer Kohlenforschung      #
                #                Kaiser Wilhelm Platz 1                 #
                #                 D-45470 Muelheim/Ruhr                 #
                #                      Germany                          #
                #                                                       #
                #                  All rights reserved                  #
                #                        -***-                          #
                #########################################################


                         Program Version 6.0.0  -   RELEASE  -


 With contributions from (in alphabetic order):
   Daniel Aravena         : Magnetic Suceptibility
   Michael Atanasov       : Ab Initio Ligand Field Theory (pilot matlab implementation)
   Alexander A. Auer      : GIAO ZORA, VPT2 properties, NMR spectrum
   Ute Becker             : All parallelization in ORCA, NUMFREQ, NUMCALC
   Giovanni Bistoni       : ED, misc. LED, open-shell LED, HFLD
   Martin Brehm           : Molecular dynamics
   Dmytro Bykov           : pre 5.0 version of the SCF Hessian
   Marcos Casanova-Páez   : Triplet and SCS-CIS(D). UHF-(DLPNO)-IP/EA/STEOM-CCSD. UHF-CVS-IP/STEOM-CCSD
   Vijay G. Chilkuri      : MRCI spin determinant printing, contributions to CSF-ICE
   Pauline Colinet        : FMM embedding
   Dipayan Datta          : RHF DLPNO-CCSD density
   Achintya Kumar Dutta   : EOM-CC, STEOM-CC
   Nicolas Foglia         : Exact transition moments, OPA infrastructure, MCD improvements
   Dmitry Ganyushin       : Spin-Orbit,Spin-Spin,Magnetic field MRCI
   Miquel Garcia          : C-PCM and meta-GGA Hessian, CCSD/C-PCM, Gaussian charge scheme
   Tiago L. C. Gouveia    : GS-ROHF, GS-ROCIS
   Yang Guo               : DLPNO-NEVPT2, F12-NEVPT2, CIM, IAO-localization
   Andreas Hansen         : Spin unrestricted coupled pair/coupled cluster methods
   Ingolf Harden          : AUTO-CI MPn and infrastructure 
   Benjamin Helmich-Paris : MC-RPA, TRAH-(SCF,CASSCF), AVAS, COSX integrals, SCF dyn. polar.
   Lee Huntington         : MR-EOM, pCC
   Robert Izsak           : Overlap fitted RIJCOSX, COSX-SCS-MP3, EOM
   Riya Kayal             : Wick's Theorem for AUTO-CI, AUTO-CI UHF-CCSDT
   Emily Kempfer          : AUTO-CI, RHF CISDT and CCSDT
   Christian Kollmar      : KDIIS, OOCD, Brueckner-CCSD(T), CCSD density, CASPT2, CASPT2-K, improved NEVPT2
   Axel Koslowski         : Symmetry handling
   Simone Kossmann        : Meta GGA functionals, TD-DFT gradient, OOMP2, (MP2 Hessian; deprecated post 5.0)
   Lucas Lang             : DCDCAS
   Marvin Lechner         : AUTO-CI (C++ implementation), FIC-MRCC
   Spencer Leger          : CASSCF response
   Dagmar Lenk            : GEPOL surface, SMD, ORCA-2-JSON
   Dimitrios Liakos       : Extrapolation schemes; Compound Job, initial MDCI parallelization
   Dimitrios Manganas     : Further ROCIS development; embedding schemes. LFT, Crystal Embedding
   Dimitrios Pantazis     : SARC Basis sets
   Anastasios Papadopoulos: AUTO-CI, single reference methods and gradients
   Taras Petrenko         : pre 6.0 DFT Hessian and TD-DFT gradient, (ASA, deprecated), ECA, 1-Electron XAS/XES, NRVS
   Peter Pinski           : DLPNO-MP2, DLPNO-MP2 Gradient
   Christoph Reimann      : Effective Core Potentials
   Marius Retegan         : Local ZFS, SOC
   Christoph Riplinger    : Optimizer, TS searches, QM/MM, DLPNO-CCSD(T), (RO)-DLPNO pert. Triples
   Michael Roemelt        : Original ROCIS implementation
   Masaaki Saitow         : Open-shell DLPNO-CCSD energy and density
   Barbara Sandhoefer     : DKH picture change effects
   Kantharuban Sivalingam : CASSCF convergence/infrastructure, NEVPT2 and variants, FIC-MRCI
   Bernardo de Souza      : ESD, SOC TD-DFT
   Georgi Stoychev        : AutoAux, RI-MP2 NMR, DLPNO-MP2 response, X2C
   Van Anh Tran           : RI-MP2 g-tensors
   Willem Van den Heuvel  : Paramagnetic NMR
   Zikuan Wang            : NOTCH, Electric field optimization 
   Frank Wennmohs         : Technical directorship and infrastructure
   Hang Xu                : AUTO-CI-Response properties 


 We gratefully acknowledge several colleagues who have allowed us to
 interface, adapt or use parts of their codes:
   Stefan Grimme, W. Hujo, H. Kruse, P. Pracht,  : VdW corrections, initial TS optimization,
                  C. Bannwarth, S. Ehlert,         DFT functionals, gCP, sTDA/sTD-DF
                  L. Wittmann, M. Mueller
   Ed Valeev, F. Pavosevic, A. Kumar             : LibInt (2-el integral package), F12 methods
   Garnet Chan, S. Sharma, J. Yang, R. Olivares  : DMRG
   Ulf Ekstrom                                   : XCFun DFT Library
   Mihaly Kallay                                 : mrcc  (arbitrary order and MRCC methods)
   Frank Weinhold                                : gennbo (NPA and NBO analysis)
   Simon Mueller                                 : openCOSMO-RS
   Christopher J. Cramer and Donald G. Truhlar   : smd solvation model
   Lars Goerigk                                  : TD-DFT with DH, B97 family of functionals
   V. Asgeirsson, H. Jonsson                     : NEB implementation
   FAccTs GmbH                                   : IRC, NEB, NEB-TS, DLPNO-Multilevel, CI-OPT
                                                   MM, QMMM, 2- and 3-layer-ONIOM, Crystal-QMMM,
                                                   LR-CPCM, SF, NACMEs, symmetry and pop. for TD-DFT,
                                                   nearIR, NL-DFT gradient (VV10), updates on ESD,
                                                   ML-optimized integration grids, MBIS, APM,
                                                   GOAT, DOCKER, SOLVATOR, interface openCOSMO-RS
   S Lehtola, MJT Oliveira, MAL Marques          : LibXC Library
   Liviu Ungur et al                             : ANISO software


 Your calculation uses the libint2 library for the computation of 2-el integrals
 For citations please refer to: http://libint.valeyev.net

 Your ORCA version has been built with support for libXC version: 6.2.2
 For citations please refer to: https://libxc.gitlab.io

 This ORCA versions uses:
   CBLAS   interface :  Fast vector & matrix operations
   LAPACKE interface :  Fast linear algebra routines
   SCALAPACK package :  Parallel linear algebra routines
   Shared memory     :  Shared parallel matrices
   BLAS/LAPACK       :  OpenBLAS 0.3.27  USE64BITINT DYNAMIC_ARCH NO_AFFINITY Zen SINGLE_THREADED
        Core in use  :  Zen
   Copyright (c) 2011-2014, The OpenBLAS Project


Your calculation utilizes the atom-pairwise dispersion correction
with the Becke-Johnson damping scheme (D3BJ)


Warning: RI is on but no J-basis has been assigned. Assigning Def2/J (nothing to worry about!)
================================================================================

----- Orbital basis set information -----
Your calculation utilizes the basis: def2-TZVPPD
   F. Weigend and R. Ahlrichs, Phys. Chem. Chem. Phys. 7, 3297 (2005).
   D. Rappoport and F. Furche, J. Chem. Phys. 133, 134105 (2010)
   D. Rappoport, J. Chem. Phys. 155, 124102 (2021).

----- AuxJ basis set information -----
Your calculation utilizes the auxiliary basis: def2/J
   F. Weigend, Phys. Chem. Chem. Phys. 8, 1057 (2006).

================================================================================
                                        WARNINGS
                       Please study these warnings very carefully!
================================================================================

Using LibXC functional ID 531 : wB97M-V exchange-correlation functional
[ 1]  N. Mardirossian and M. Head-Gordon.,  J. Chem. Phys. 144, 214110 (2016)
Using LibXC functional ID 531 : wB97M-V exchange-correlation functional
[ 1]  N. Mardirossian and M. Head-Gordon.,  J. Chem. Phys. 144, 214110 (2016)

WARNING: B97M-V or wB97M-V functional requested.
  ===> : libXC variant has now been activated.
         Any manually given DFX/HFX/RangeSep scaling parameters are IGNORED!

Your calculation utilizes LibXC
 by S Lehtola, C Steigemann, MJT Oliveira & MAL Marques
Please cite in your paper:
 S Lehtola, C Steigemann, MJT Oliveira & MAL Marques, SoftwareX, 7, (2018), 1.
   


WARNING: your system is open-shell and RHF/RKS was chosen
  ===> : WILL SWITCH to UHF/UKS

INFO   : Checking CIS options ...

WARNING: CIS/ROCIS methods need fully converged wavefunctions
  ===> : Setting SCFConvForced true
         You can overwrite this default with %scf ConvForced false 


================================================================================
                                       INPUT FILE
================================================================================
NAME = orca.inp
|  1> ! Engrad def2-TZVPPD wB97M-D3BJ 
|  2> %pal nprocs 8 end%pal nprocs 64 end 
|  3>  %tddft nroots 2 Iroot 2 
|  4> sf true 
|  5> end 
|  6> *xyz 0 3 
|  7> O   2.15877510993491 0.06242199058778 -1.18489691523957
|  8> O   -0.36268759804439 2.55382216276361 -2.41798450433951
|  9> O   0.38989915601579 -3.72363493284621 0.51701787169303
| 10> O   -2.34958898273395 -1.21433534083905 -1.1541598936605
| 11> N   0.41268830157869 -1.89579309422249 1.86211859559998
| 12> N   -1.43912296452956 -0.15061038529992 0.6113207920852
| 13> N   1.10028277152819 -1.74761149244223 -0.35374677531903
| 14> N   -0.9806857403531 0.51395073711198 -1.62729788676894
| 15> C   1.11636303306345 0.33045508212857 0.93779693977364
| 16> C   -0.10674314418132 2.42486773255234 -0.24856173213
| 17> C   0.56755691538374 -0.49826829571881 2.05645238294016
| 18> C   -0.36763025006478 0.45016028249022 1.33258490844145
| 19> C   2.08874767563347 1.41697099258084 1.32698420415944
| 20> C   -1.1213083995001 3.30017977597558 0.36500016398916
| 21> C   1.50593709757108 -0.42756643826011 -0.29857238569071
| 22> C   -0.52551096516364 1.80224254117468 -1.46388532376774
| 23> C   0.60684154298693 -2.54686778603697 0.6772217622632
| 24> C   -1.62840463176677 -0.33722812873533 -0.73769364502121
| 25> H   0.8755396267088 -0.22467958833201 3.05369071404424
| 26> H   -0.60640333843949 1.35288208471962 1.87379798505288
| 27> H   2.35660692020461 2.0124892075139 0.4654359593797
| 28> H   1.64696665301367 2.06875693188275 2.07811359582236
| 29> H   2.98293004311999 0.9582627887879 1.7480936850786
| 30> H   -2.13003195162476 2.88370130063916 0.43329158962904
| 31> H   -0.80727743911594 3.73903549970511 1.30819300915444
| 32> H   -1.17536578700652 4.11261716016729 -0.37358863764894
| 33> H   0.01050097550585 -2.46091914288144 2.58799256514878
| 34> H   -1.94678797657553 -0.85996390356185 1.11604138049126
| 35> H   1.33629822406175 -2.25057426977152 -1.19475553768887
| 36> H   -1.15578487721113 0.27023652816657 -2.59140486747155
| 37> *
| 38> 
| 39>                          ****END OF INPUT****
================================================================================

                     *******************************
                     * Energy+Gradient Calculation *
                     *******************************

---------------------------------
CARTESIAN COORDINATES (ANGSTROEM)
---------------------------------
  O      2.158775    0.062422   -1.184897
  O     -0.362688    2.553822   -2.417985
  O      0.389899   -3.723635    0.517018
  O     -2.349589   -1.214335   -1.154160
  N      0.412688   -1.895793    1.862119
  N     -1.439123   -0.150610    0.611321
  N      1.100283   -1.747611   -0.353747
  N     -0.980686    0.513951   -1.627298
  C      1.116363    0.330455    0.937797
  C     -0.106743    2.424868   -0.248562
  C      0.567557   -0.498268    2.056452
  C     -0.367630    0.450160    1.332585
  C      2.088748    1.416971    1.326984
  C     -1.121308    3.300180    0.365000
  C      1.505937   -0.427566   -0.298572
  C     -0.525511    1.802243   -1.463885
  C      0.606842   -2.546868    0.677222
  C     -1.628405   -0.337228   -0.737694
  H      0.875540   -0.224680    3.053691
  H     -0.606403    1.352882    1.873798
  H      2.356607    2.012489    0.465436
  H      1.646967    2.068757    2.078114
  H      2.982930    0.958263    1.748094
  H     -2.130032    2.883701    0.433292
  H     -0.807277    3.739035    1.308193
  H     -1.175366    4.112617   -0.373589
  H      0.010501   -2.460919    2.587993
  H     -1.946788   -0.859964    1.116041
  H      1.336298   -2.250574   -1.194756
  H     -1.155785    0.270237   -2.591405

----------------------------
CARTESIAN COORDINATES (A.U.)
----------------------------
  NO LB      ZA    FRAG     MASS         X           Y           Z
   0 O     8.0000    0    15.999    4.079494    0.117960   -2.239131
   1 O     8.0000    0    15.999   -0.685380    4.826024   -4.569329
   2 O     8.0000    0    15.999    0.736803   -7.036650    0.977022
   3 O     8.0000    0    15.999   -4.440080   -2.294761   -2.181046
   4 N     7.0000    0    14.007    0.779868   -3.582530    3.518894
   5 N     7.0000    0    14.007   -2.719548   -0.284612    1.155229
   6 N     7.0000    0    14.007    2.079233   -3.302507   -0.668485
   7 N     7.0000    0    14.007   -1.853227    0.971226   -3.075147
   8 C     6.0000    0    12.011    2.109620    0.624470    1.772179
   9 C     6.0000    0    12.011   -0.201715    4.582336   -0.469714
  10 C     6.0000    0    12.011    1.072527   -0.941591    3.886132
  11 C     6.0000    0    12.011   -0.694720    0.850680    2.518221
  12 C     6.0000    0    12.011    3.947161    2.677687    2.507637
  13 C     6.0000    0    12.011   -2.118966    6.236436    0.689750
  14 C     6.0000    0    12.011    2.845809   -0.807983   -0.564220
  15 C     6.0000    0    12.011   -0.993072    3.405745   -2.766342
  16 C     6.0000    0    12.011    1.146764   -4.812883    1.279764
  17 C     6.0000    0    12.011   -3.077239   -0.637269   -1.394039
  18 H     1.0000    0     1.008    1.654530   -0.424583    5.770639
  19 H     1.0000    0     1.008   -1.145936    2.556577    3.540965
  20 H     1.0000    0     1.008    4.453342    3.803053    0.879546
  21 H     1.0000    0     1.008    3.112316    3.909384    3.927066
  22 H     1.0000    0     1.008    5.636921    1.810854    3.303418
  23 H     1.0000    0     1.008   -4.025177    5.449406    0.818802
  24 H     1.0000    0     1.008   -1.525533    7.065753    2.472127
  25 H     1.0000    0     1.008   -2.221119    7.771720   -0.705980
  26 H     1.0000    0     1.008    0.019844   -4.650463    4.890597
  27 H     1.0000    0     1.008   -3.678896   -1.625096    2.109013
  28 H     1.0000    0     1.008    2.525238   -4.252969   -2.257761
  29 H     1.0000    0     1.008   -2.184117    0.510673   -4.897046

--------------------------------
INTERNAL COORDINATES (ANGSTROEM)
--------------------------------
 O      0   0   0     0.000000000000     0.00000000     0.00000000
 O      1   0   0     3.753045964019     0.00000000     0.00000000
 O      1   2   0     4.512168337930   114.68033935     0.00000000
 O      3   1   2     4.073599738341    65.92283902     5.92103384
 N      3   1   2     2.269542044033    62.86011716   280.16395682
 N      4   3   1     2.253304507403    72.40021766   296.06141404
 N      1   2   3     2.255534924413   109.78554439   359.41161242
 N      4   3   1     2.254934237348    98.62400001   354.87166909
 C      1   2   3     2.379977705416    85.64216178   299.44154139
 C      2   1   3     2.188271457821    63.67730234    76.33727198
 C      5   3   1     1.419445480065   151.06619285    13.84301500
 C      6   4   3     1.424515341431   154.12165210    64.09977727
 C      9   1   2     1.509143943940    91.65482061   267.59165621
 C     10   2   1     1.473761185210   107.29063252   185.55240684
 C      1   2   3     1.204930413954    98.48909360   328.88749318
 C      2   1   3     1.225434054870    54.99271342    33.47112458
 C      3   1   2     1.207273872669    33.04236700   285.53676791
 C      4   3   1     1.209490829176    84.51740603   325.76355273
 H     11   5   3     1.078975634715   114.03705102   205.62895552
 H     12   6   4     1.079273289880   116.11917611   140.47015651
 H     13   9   1     1.081043892403   110.53196689    34.93349733
 H     13   9   1     1.088205286533   110.34340639   155.20802857
 H     13   9   1     1.089636874133   108.98583036   274.34089461
 H     14  10   2     1.093453814226   115.77622035    79.76439159
 H     14  10   2     1.086656584897   113.72070054   210.78949423
 H     14  10   2     1.099313477713   101.13248305   325.57447935
 H      5   3   1     1.003999559659    88.34641570   182.20255834
 H      6   4   3     1.007794150949    81.75403689   291.36314827
 H      7   1   2     1.007953663417    89.03105259   103.53235731
 H      8   4   3     1.009731941463    84.84076688   112.26774951

---------------------------
INTERNAL COORDINATES (A.U.)
---------------------------
 O      0   0   0     0.000000000000     0.00000000     0.00000000
 O      1   0   0     7.092229040015     0.00000000     0.00000000
 O      1   2   0     8.526762428838   114.68033935     0.00000000
 O      3   1   2     7.697987884677    65.92283902     5.92103384
 N      3   1   2     4.288812912642    62.86011716   280.16395682
 N      4   3   1     4.258128415322    72.40021766   296.06141404
 N      1   2   3     4.262343292635   109.78554439   359.41161242
 N      4   3   1     4.261208158590    98.62400001   354.87166909
 C      1   2   3     4.497506068075    85.64216178   299.44154139
 C      2   1   3     4.135233761959    63.67730234    76.33727198
 C      5   3   1     2.682363219355   151.06619285    13.84301500
 C      6   4   3     2.691943868873   154.12165210    64.09977727
 C      9   1   2     2.851868750713    91.65482061   267.59165621
 C     10   2   1     2.785005026850   107.29063252   185.55240684
 C      1   2   3     2.276988492806    98.48909360   328.88749318
 C      2   1   3     2.315734758885    54.99271342    33.47112458
 C      3   1   2     2.281416987982    33.04236700   285.53676791
 C      4   3   1     2.285606428631    84.51740603   325.76355273
 H     11   5   3     2.038968454785   114.03705102   205.62895552
 H     12   6   4     2.039530941529   116.11917611   140.47015651
 H     13   9   1     2.042876895390   110.53196689    34.93349733
 H     13   9   1     2.056409969033   110.34340639   155.20802857
 H     13   9   1     2.059115277534   108.98583036   274.34089461
 H     14  10   2     2.066328248979   115.77622035    79.76439159
 H     14  10   2     2.053483347078   113.72070054   210.78949423
 H     14  10   2     2.077401408206   101.13248305   325.57447935
 H      5   3   1     1.897284206333    88.34641570   182.20255834
 H      6   4   3     1.904454944661    81.75403689   291.36314827
 H      7   1   2     1.904756379541    89.03105259   103.53235731
 H      8   4   3     1.908116838037    84.84076688   112.26774951

---------------------
BASIS SET INFORMATION
---------------------
There are 4 groups of distinct atoms

 Group   1 Type O   : 12s7p3d1f contracted to 6s4p3d1f pattern {621111/4111/111/1}
 Group   2 Type N   : 12s6p3d1f contracted to 6s3p3d1f pattern {621111/411/111/1}
 Group   3 Type C   : 12s6p3d1f contracted to 6s3p3d1f pattern {621111/411/111/1}
 Group   4 Type H   : 5s3p1d contracted to 3s3p1d pattern {311/111/1}

Atom   0O    basis set group =>   1
Atom   1O    basis set group =>   1
Atom   2O    basis set group =>   1
Atom   3O    basis set group =>   1
Atom   4N    basis set group =>   2
Atom   5N    basis set group =>   2
Atom   6N    basis set group =>   2
Atom   7N    basis set group =>   2
Atom   8C    basis set group =>   3
Atom   9C    basis set group =>   3
Atom  10C    basis set group =>   3
Atom  11C    basis set group =>   3
Atom  12C    basis set group =>   3
Atom  13C    basis set group =>   3
Atom  14C    basis set group =>   3
Atom  15C    basis set group =>   3
Atom  16C    basis set group =>   3
Atom  17C    basis set group =>   3
Atom  18H    basis set group =>   4
Atom  19H    basis set group =>   4
Atom  20H    basis set group =>   4
Atom  21H    basis set group =>   4
Atom  22H    basis set group =>   4
Atom  23H    basis set group =>   4
Atom  24H    basis set group =>   4
Atom  25H    basis set group =>   4
Atom  26H    basis set group =>   4
Atom  27H    basis set group =>   4
Atom  28H    basis set group =>   4
Atom  29H    basis set group =>   4
---------------------------------
AUXILIARY/J BASIS SET INFORMATION
---------------------------------
There are 4 groups of distinct atoms

 Group   1 Type O   : 12s5p4d2f1g contracted to 6s4p3d1f1g pattern {711111/2111/211/2/1}
 Group   2 Type N   : 12s5p4d2f1g contracted to 6s4p3d1f1g pattern {711111/2111/211/2/1}
 Group   3 Type C   : 12s5p4d2f1g contracted to 6s4p3d1f1g pattern {711111/2111/211/2/1}
 Group   4 Type H   : 5s2p1d contracted to 3s1p1d pattern {311/2/1}

Atom   0O    basis set group =>   1
Atom   1O    basis set group =>   1
Atom   2O    basis set group =>   1
Atom   3O    basis set group =>   1
Atom   4N    basis set group =>   2
Atom   5N    basis set group =>   2
Atom   6N    basis set group =>   2
Atom   7N    basis set group =>   2
Atom   8C    basis set group =>   3
Atom   9C    basis set group =>   3
Atom  10C    basis set group =>   3
Atom  11C    basis set group =>   3
Atom  12C    basis set group =>   3
Atom  13C    basis set group =>   3
Atom  14C    basis set group =>   3
Atom  15C    basis set group =>   3
Atom  16C    basis set group =>   3
Atom  17C    basis set group =>   3
Atom  18H    basis set group =>   4
Atom  19H    basis set group =>   4
Atom  20H    basis set group =>   4
Atom  21H    basis set group =>   4
Atom  22H    basis set group =>   4
Atom  23H    basis set group =>   4
Atom  24H    basis set group =>   4
Atom  25H    basis set group =>   4
Atom  26H    basis set group =>   4
Atom  27H    basis set group =>   4
Atom  28H    basis set group =>   4
Atom  29H    basis set group =>   4
[1738799343.604265] [ohm:3006822:0]        ib_iface.c:1059 UCX  ERROR ibv_create_cq(cqe=256) failed: Connection timed out
[1738799343.609143] [ohm:3006828:0]        ib_iface.c:1059 UCX  ERROR ibv_create_cq(cqe=256) failed: Connection timed out
[1738799343.624156] [ohm:3006937:0]        ib_iface.c:1059 UCX  ERROR ibv_create_cq(cqe=256) failed: Connection timed out
[1738799343.624189] [ohm:3006823:0]        ib_iface.c:1059 UCX  ERROR ibv_create_cq(cqe=256) failed: Connection timed out
[1738799343.629914] [ohm:3006821:0]        ib_iface.c:1059 UCX  ERROR ibv_create_cq(cqe=256) failed: Connection timed out
[1738799343.631353] [ohm:3006815:0]        ib_iface.c:1059 UCX  ERROR ibv_create_cq(cqe=256) failed: Connection timed out
[1738799343.632264] [ohm:3006818:0]        ib_iface.c:1059 UCX  ERROR ibv_create_cq(cqe=256) failed: Connection timed out
[1738799343.663325] [ohm:3006817:0]        ib_iface.c:1059 UCX  ERROR ibv_create_cq(cqe=256) failed: Connection timed out
[1738799343.673811] [ohm:3006819:0]        ib_iface.c:1059 UCX  ERROR ibv_create_cq(cqe=256) failed: Connection timed out
[1738799343.675890] [ohm:3006959:0]        ib_iface.c:1059 UCX  ERROR ibv_create_cq(cqe=256) failed: Connection timed out
[1738799343.693113] [ohm:3006954:0]        ib_iface.c:1059 UCX  ERROR ibv_create_cq(cqe=256) failed: Connection timed out
[1738799343.694562] [ohm:3006896:0]        ib_iface.c:1059 UCX  ERROR ibv_create_cq(cqe=256) failed: Connection timed out
[1738799343.694556] [ohm:3006918:0]        ib_iface.c:1059 UCX  ERROR ibv_create_cq(cqe=256) failed: Connection timed out
[1738799343.696388] [ohm:3006944:0]        ib_iface.c:1059 UCX  ERROR ibv_create_cq(cqe=256) failed: Connection timed out
[1738799343.706544] [ohm:3006961:0]        ib_iface.c:1059 UCX  ERROR ibv_create_cq(cqe=256) failed: Connection timed out
[1738799343.775411] [ohm:3006875:0]        ib_iface.c:1059 UCX  ERROR ibv_create_cq(cqe=256) failed: Connection timed out
[1738799343.786292] [ohm:3006844:0]        ib_iface.c:1059 UCX  ERROR ibv_create_cq(cqe=256) failed: Connection timed out
[1738799343.806805] [ohm:3006825:0]        ib_iface.c:1059 UCX  ERROR ibv_create_cq(cqe=256) failed: Connection timed out
[1738799343.812089] [ohm:3006879:0]        ib_iface.c:1059 UCX  ERROR ibv_create_cq(cqe=256) failed: Connection timed out
[1738799343.818272] [ohm:3006830:0]        ib_iface.c:1059 UCX  ERROR ibv_create_cq(cqe=256) failed: Connection timed out
[1738799343.819367] [ohm:3006891:0]        ib_iface.c:1059 UCX  ERROR ibv_create_cq(cqe=256) failed: Connection timed out
[1738799343.820800] [ohm:3006816:0]        ib_iface.c:1059 UCX  ERROR ibv_create_cq(cqe=256) failed: Connection timed out
[1738799343.826239] [ohm:3006820:0]        ib_iface.c:1059 UCX  ERROR ibv_create_cq(cqe=256) failed: Connection timed out
[1738799343.836307] [ohm:3006907:0]        ib_iface.c:1059 UCX  ERROR ibv_create_cq(cqe=256) failed: Connection timed out
[1738799343.837018] [ohm:3006924:0]        ib_iface.c:1059 UCX  ERROR ibv_create_cq(cqe=256) failed: Connection timed out
[1738799343.837458] [ohm:3006814:0]        ib_iface.c:1059 UCX  ERROR ibv_create_cq(cqe=256) failed: Connection timed out
[1738799343.840850] [ohm:3006827:0]        ib_iface.c:1059 UCX  ERROR ibv_create_cq(cqe=256) failed: Connection timed out
[1738799343.842802] [ohm:3006862:0]        ib_iface.c:1059 UCX  ERROR ibv_create_cq(cqe=256) failed: Connection timed out
[1738799343.843037] [ohm:3006914:0]        ib_iface.c:1059 UCX  ERROR ibv_create_cq(cqe=256) failed: Connection timed out
[1738799343.843810] [ohm:3006878:0]        ib_iface.c:1059 UCX  ERROR ibv_create_cq(cqe=256) failed: Connection timed out
[1738799343.848185] [ohm:3006860:0]        ib_iface.c:1059 UCX  ERROR ibv_create_cq(cqe=256) failed: Connection timed out
[1738799343.849152] [ohm:3006848:0]        ib_iface.c:1059 UCX  ERROR ibv_create_cq(cqe=256) failed: Connection timed out
[1738799343.852650] [ohm:3006919:0]        ib_iface.c:1059 UCX  ERROR ibv_create_cq(cqe=256) failed: Connection timed out
[1738799343.853873] [ohm:3006876:0]        ib_iface.c:1059 UCX  ERROR ibv_create_cq(cqe=256) failed: Connection timed out
[1738799343.855513] [ohm:3006884:0]        ib_iface.c:1059 UCX  ERROR ibv_create_cq(cqe=256) failed: Connection timed out
[1738799343.859662] [ohm:3006929:0]        ib_iface.c:1059 UCX  ERROR ibv_create_cq(cqe=256) failed: Connection timed out
[1738799343.859983] [ohm:3006947:0]        ib_iface.c:1059 UCX  ERROR ibv_create_cq(cqe=256) failed: Connection timed out
[1738799343.869652] [ohm:3006952:0]        ib_iface.c:1059 UCX  ERROR ibv_create_cq(cqe=256) failed: Connection timed out
[1738799343.871846] [ohm:3006829:0]        ib_iface.c:1059 UCX  ERROR ibv_create_cq(cqe=256) failed: Connection timed out
[1738799343.875615] [ohm:3006845:0]        ib_iface.c:1059 UCX  ERROR ibv_create_cq(cqe=256) failed: Connection timed out
[1738799343.876746] [ohm:3006936:0]        ib_iface.c:1059 UCX  ERROR ibv_create_cq(cqe=256) failed: Connection timed out
[1738799343.877249] [ohm:3006883:0]        ib_iface.c:1059 UCX  ERROR ibv_create_cq(cqe=256) failed: Connection timed out
[1738799343.888587] [ohm:3006826:0]        ib_iface.c:1059 UCX  ERROR ibv_create_cq(cqe=256) failed: Connection timed out
[1738799343.894180] [ohm:3006868:0]        ib_iface.c:1059 UCX  ERROR ibv_create_cq(cqe=256) failed: Connection timed out
[1738799343.894180] [ohm:3006869:0]        ib_iface.c:1059 UCX  ERROR ibv_create_cq(cqe=256) failed: Connection timed out
[1738799343.902324] [ohm:3006843:0]        ib_iface.c:1059 UCX  ERROR ibv_create_cq(cqe=256) failed: Connection timed out
[1738799343.904132] [ohm:3006898:0]        ib_iface.c:1059 UCX  ERROR ibv_create_cq(cqe=256) failed: Connection timed out
[1738799343.906447] [ohm:3006911:0]        ib_iface.c:1059 UCX  ERROR ibv_create_cq(cqe=256) failed: Connection timed out
[1738799343.911272] [ohm:3006922:0]        ib_iface.c:1059 UCX  ERROR ibv_create_cq(cqe=256) failed: Connection timed out
[1738799343.911378] [ohm:3006885:0]        ib_iface.c:1059 UCX  ERROR ibv_create_cq(cqe=256) failed: Connection timed out
[1738799343.915663] [ohm:3006966:0]        ib_iface.c:1059 UCX  ERROR ibv_create_cq(cqe=256) failed: Connection timed out
[1738799343.927927] [ohm:3006856:0]        ib_iface.c:1059 UCX  ERROR ibv_create_cq(cqe=256) failed: Connection timed out
[1738799343.930049] [ohm:3006882:0]        ib_iface.c:1059 UCX  ERROR ibv_create_cq(cqe=256) failed: Connection timed out
[1738799343.930755] [ohm:3006901:0]        ib_iface.c:1059 UCX  ERROR ibv_create_cq(cqe=256) failed: Connection timed out
[1738799343.931372] [ohm:3006852:0]        ib_iface.c:1059 UCX  ERROR ibv_create_cq(cqe=256) failed: Connection timed out
[1738799343.931370] [ohm:3006890:0]        ib_iface.c:1059 UCX  ERROR ibv_create_cq(cqe=256) failed: Connection timed out
[1738799343.932255] [ohm:3006846:0]        ib_iface.c:1059 UCX  ERROR ibv_create_cq(cqe=256) failed: Connection timed out
[1738799343.933229] [ohm:3006887:0]        ib_iface.c:1059 UCX  ERROR ibv_create_cq(cqe=256) failed: Connection timed out
[1738799343.935516] [ohm:3006902:0]        ib_iface.c:1059 UCX  ERROR ibv_create_cq(cqe=256) failed: Connection timed out
[1738799343.936683] [ohm:3006880:0]        ib_iface.c:1059 UCX  ERROR ibv_create_cq(cqe=256) failed: Connection timed out
[1738799343.938335] [ohm:3006881:0]        ib_iface.c:1059 UCX  ERROR ibv_create_cq(cqe=256) failed: Connection timed out
[1738799343.938660] [ohm:3006932:0]        ib_iface.c:1059 UCX  ERROR ibv_create_cq(cqe=256) failed: Connection timed out
[1738799343.940511] [ohm:3006824:0]        ib_iface.c:1059 UCX  ERROR ibv_create_cq(cqe=256) failed: Connection timed out
[1738799343.940531] [ohm:3006886:0]        ib_iface.c:1059 UCX  ERROR ibv_create_cq(cqe=256) failed: Connection timed out


           ************************************************************
           *        Program running with 64 parallel MPI-processes    *
           *              working on a common directory               *
           ************************************************************
------------------------------------------------------------------------------
                             ORCA STARTUP CALCULATIONS
                           -- RI-GTO INTEGRALS CHOSEN --
------------------------------------------------------------------------------
------------------------------------------------------------------------------
                   ___                                                        
                  /   \      - P O W E R E D   B Y -                         
                 /     \                                                     
                 |  |  |   _    _      __       _____    __    __             
                 |  |  |  | |  | |    /  \     |  _  \  |  |  /  |          
                  \  \/   | |  | |   /    \    | | | |  |  | /  /          
                 / \  \   | |__| |  /  /\  \   | |_| |  |  |/  /          
                |  |  |   |  __  | /  /__\  \  |    /   |      \           
                |  |  |   | |  | | |   __   |  |    \   |  |\   \          
                \     /   | |  | | |  |  |  |  | |\  \  |  | \   \       
                 \___/    |_|  |_| |__|  |__|  |_| \__\ |__|  \__/        
                                                                              
                      - O R C A' S   B I G   F R I E N D -                    
                                      &                                       
                       - I N T E G R A L  F E E D E R -                       
                                                                              
 v1 FN, 2020, v2 2021, v3 2022-2024                                           
------------------------------------------------------------------------------


----------------------
SHARK INTEGRAL PACKAGE
----------------------

Number of atoms                             ...     30
Number of basis functions                   ...    882
Number of shells                            ...    322
Maximum angular momentum                    ...      3
Integral batch strategy                     ... SHARK/LIBINT Hybrid
RI-J (if used) integral strategy            ... SPLIT-RIJ (Revised 2003 algorithm where possible)
Printlevel                                  ...      1
Contraction scheme used                     ... SEGMENTED contraction
Prescreening option                         ... SCHWARTZ
   Thresh                                   ... 2.500e-11
   Tcut                                     ... 2.500e-12
   Tpresel                                  ... 2.500e-12 
Coulomb Range Separation                    ... NOT USED
Exchange Range Separation                   ... Long Range
   Mu parameter                             ... 3.000e-01
   Scaling (regular/separated)              ... 1.500e-01 8.500e-01
Multipole approximations                    ... NOT USED
Finite Nucleus Model                        ... NOT USED
CABS basis                                  ... NOT available
Auxiliary Coulomb fitting basis             ... AVAILABLE
   # of basis functions in Aux-J            ...   1014
   # of shells in Aux-J                     ...    330
   Maximum angular momentum in Aux-J        ...      4
Auxiliary J/K fitting basis                 ... NOT available
Auxiliary Correlation fitting basis         ... NOT available
Auxiliary 'external' fitting basis          ... NOT available

Checking pre-screening integrals            ... done (  0.0 sec) Dimension = 322
Check shell pair data                       ... done (  0.0 sec)
Shell pair information
Shell pair cut-off parameter TPreSel        ...   2.5e-12
Total number of shell pairs                 ...     52003
Shell pairs after pre-screening             ...     45129
Total number of primitive shell pairs       ...    129718
Primitive shell pairs kept                  ...     84589
          la=0 lb=0:   8738 shell pairs
          la=1 lb=0:  11928 shell pairs
          la=1 lb=1:   4111 shell pairs
          la=2 lb=0:   8106 shell pairs
          la=2 lb=1:   5587 shell pairs
          la=2 lb=2:   1933 shell pairs
          la=3 lb=0:   2094 shell pairs
          la=3 lb=1:   1478 shell pairs
          la=3 lb=2:   1010 shell pairs
          la=3 lb=3:    144 shell pairs

Calculating one electron integrals          ... done (  0.2 sec)
Calculating RI/J V-Matrix + Cholesky decomp.... done (  0.1 sec)
Calculating Nuclear repulsion               ... done (  0.0 sec) ENN=   1458.037614729847 Eh

Diagonalization of the overlap matrix:
Smallest eigenvalue                        ... 3.365e-07
Time for diagonalization                   ...    0.124 sec
Threshold for overlap eigenvalues          ... 1.000e-07
Number of eigenvalues below threshold      ... 0

IMPORTANT:
Smallest eigenvalue of S below the DiffSThresh (1.000e-06) while
Thresh>1e-12 and/or TCut>1e-13! In order to avoid SCF convergence issues,
Thresh will be set to at least 1e-12 and TCut to at least 1e-13.
This can be turned off by adding %SCF DiffSThresh -1 END to the input.

Time for construction of square roots      ...    0.129 sec
Total time needed                          ...    0.270 sec

-------------------
DFT GRID GENERATION
-------------------

General Integration Accuracy     IntAcc      ... 4.388
Radial Grid Type                 RadialGrid  ... OptM3 with GC (2021)
Angular Grid (max. ang.)         AngularGrid ... 4 (Lebedev-302)
Angular grid pruning method      GridPruning ... 4 (adaptive)
Weight generation scheme         WeightScheme... mBecke (2022)
Basis function cutoff            BFCut       ... 1.0000e-11
Integration weight cutoff        WCut        ... 1.0000e-14
Partially contracted basis set               ... off
Rotationally invariant grid construction     ... off
Angular grids for H and He will be reduced by one unit
Diffuse basis detected: some atoms will have their outermost
                        angular grid increased by 1.

Total number of grid points                  ...   151854
Total number of batches                      ...     2386
Average number of points per batch           ...       63
Average number of grid points per atom       ...     5062

--------------------
COSX GRID GENERATION
--------------------

GRIDX 1
-------
General Integration Accuracy     IntAcc      ... 3.816
Radial Grid Type                 RadialGrid  ... OptM3 with GC (2021)
Angular Grid (max. ang.)         AngularGrid ... 1 (Lebedev-50)
Angular grid pruning method      GridPruning ... 4 (adaptive)
Weight generation scheme         WeightScheme... mBecke (2022)
Basis function cutoff            BFCut       ... 1.0000e-11
Integration weight cutoff        WCut        ... 1.0000e-14
Partially contracted basis set               ... on
Rotationally invariant grid construction     ... off
Angular grids for H and He will be reduced by one unit
Diffuse basis detected: some atoms will have their outermost
                        angular grid increased by 1.

Total number of grid points                  ...    19030
Total number of batches                      ...      165
Average number of points per batch           ...      115
Average number of grid points per atom       ...      634
UseSFitting                                  ... on

GRIDX 2
-------
General Integration Accuracy     IntAcc      ... 4.020
Radial Grid Type                 RadialGrid  ... OptM3 with GC (2021)
Angular Grid (max. ang.)         AngularGrid ... 2 (Lebedev-110)
Angular grid pruning method      GridPruning ... 4 (adaptive)
Weight generation scheme         WeightScheme... mBecke (2022)
Basis function cutoff            BFCut       ... 1.0000e-11
Integration weight cutoff        WCut        ... 1.0000e-14
Partially contracted basis set               ... on
Rotationally invariant grid construction     ... off
Angular grids for H and He will be reduced by one unit
Diffuse basis detected: some atoms will have their outermost
                        angular grid increased by 1.

Total number of grid points                  ...    45796
Total number of batches                      ...      374
Average number of points per batch           ...      122
Average number of grid points per atom       ...     1527
UseSFitting                                  ... on

GRIDX 3
-------
General Integration Accuracy     IntAcc      ... 4.338
Radial Grid Type                 RadialGrid  ... OptM3 with GC (2021)
Angular Grid (max. ang.)         AngularGrid ... 3 (Lebedev-194)
Angular grid pruning method      GridPruning ... 4 (adaptive)
Weight generation scheme         WeightScheme... mBecke (2022)
Basis function cutoff            BFCut       ... 1.0000e-11
Integration weight cutoff        WCut        ... 1.0000e-14
Partially contracted basis set               ... on
Rotationally invariant grid construction     ... off
Angular grids for H and He will be reduced by one unit
Diffuse basis detected: some atoms will have their outermost
                        angular grid increased by 1.

Total number of grid points                  ...   100770
Total number of batches                      ...      805
Average number of points per batch           ...      125
Average number of grid points per atom       ...     3359
UseSFitting                                  ... on
Initializing property integral containers    ... done (  0.0 sec)

SHARK setup successfully completed in   4.1 seconds

Maximum memory used throughout the entire STARTUP-calculation: 80.2 MB
[1738799349.807532] [ohm:3007158:0]        ib_iface.c:1059 UCX  ERROR ibv_create_cq(cqe=256) failed: Connection timed out
[1738799349.822670] [ohm:3007151:0]        ib_iface.c:1059 UCX  ERROR ibv_create_cq(cqe=256) failed: Connection timed out
[1738799349.825565] [ohm:3007157:0]        ib_iface.c:1059 UCX  ERROR ibv_create_cq(cqe=256) failed: Connection timed out
[1738799349.828035] [ohm:3007160:0]        ib_iface.c:1059 UCX  ERROR ibv_create_cq(cqe=256) failed: Connection timed out
[1738799349.842755] [ohm:3007149:0]        ib_iface.c:1059 UCX  ERROR ibv_create_cq(cqe=256) failed: Connection timed out
[1738799349.847583] [ohm:3007153:0]        ib_iface.c:1059 UCX  ERROR ibv_create_cq(cqe=256) failed: Connection timed out
[1738799349.872187] [ohm:3007165:0]        ib_iface.c:1059 UCX  ERROR ibv_create_cq(cqe=256) failed: Connection timed out
[1738799349.873928] [ohm:3007215:0]        ib_iface.c:1059 UCX  ERROR ibv_create_cq(cqe=256) failed: Connection timed out
[1738799349.874779] [ohm:3007172:0]        ib_iface.c:1059 UCX  ERROR ibv_create_cq(cqe=256) failed: Connection timed out
[1738799349.877427] [ohm:3007275:0]        ib_iface.c:1059 UCX  ERROR ibv_create_cq(cqe=256) failed: Connection timed out
[1738799349.877908] [ohm:3007272:0]        ib_iface.c:1059 UCX  ERROR ibv_create_cq(cqe=256) failed: Connection timed out
[1738799349.881815] [ohm:3007197:0]        ib_iface.c:1059 UCX  ERROR ibv_create_cq(cqe=256) failed: Connection timed out
[1738799349.882037] [ohm:3007162:0]        ib_iface.c:1059 UCX  ERROR ibv_create_cq(cqe=256) failed: Connection timed out
[1738799349.934360] [ohm:3007180:0]        ib_iface.c:1059 UCX  ERROR ibv_create_cq(cqe=256) failed: Connection timed out
[1738799349.947072] [ohm:3007161:0]        ib_iface.c:1059 UCX  ERROR ibv_create_cq(cqe=256) failed: Connection timed out
[1738799349.947810] [ohm:3007200:0]        ib_iface.c:1059 UCX  ERROR ibv_create_cq(cqe=256) failed: Connection timed out
[1738799349.955947] [ohm:3007187:0]        ib_iface.c:1059 UCX  ERROR ibv_create_cq(cqe=256) failed: Connection timed out
[1738799349.958818] [ohm:3007155:0]        ib_iface.c:1059 UCX  ERROR ibv_create_cq(cqe=256) failed: Connection timed out
[1738799349.960130] [ohm:3007231:0]        ib_iface.c:1059 UCX  ERROR ibv_create_cq(cqe=256) failed: Connection timed out
[1738799349.965053] [ohm:3007164:0]        ib_iface.c:1059 UCX  ERROR ibv_create_cq(cqe=256) failed: Connection timed out
[1738799349.971483] [ohm:3007167:0]        ib_iface.c:1059 UCX  ERROR ibv_create_cq(cqe=256) failed: Connection timed out
[1738799349.973839] [ohm:3007173:0]        ib_iface.c:1059 UCX  ERROR ibv_create_cq(cqe=256) failed: Connection timed out
[1738799349.977303] [ohm:3007166:0]        ib_iface.c:1059 UCX  ERROR ibv_create_cq(cqe=256) failed: Connection timed out
[1738799350.013001] [ohm:3007152:0]        ib_iface.c:1059 UCX  ERROR ibv_create_cq(cqe=256) failed: Connection timed out
[1738799350.014863] [ohm:3007282:0]        ib_iface.c:1059 UCX  ERROR ibv_create_cq(cqe=256) failed: Connection timed out
[1738799350.015096] [ohm:3007163:0]        ib_iface.c:1059 UCX  ERROR ibv_create_cq(cqe=256) failed: Connection timed out
[1738799350.017805] [ohm:3007291:0]        ib_iface.c:1059 UCX  ERROR ibv_create_cq(cqe=256) failed: Connection timed out
[1738799350.034603] [ohm:3007150:0]        ib_iface.c:1059 UCX  ERROR ibv_create_cq(cqe=256) failed: Connection timed out
[1738799350.043045] [ohm:3007154:0]        ib_iface.c:1059 UCX  ERROR ibv_create_cq(cqe=256) failed: Connection timed out
[1738799350.048180] [ohm:3007258:0]        ib_iface.c:1059 UCX  ERROR ibv_create_cq(cqe=256) failed: Connection timed out
[1738799350.061124] [ohm:3007170:0]        ib_iface.c:1059 UCX  ERROR ibv_create_cq(cqe=256) failed: Connection timed out
[1738799350.062569] [ohm:3007247:0]        ib_iface.c:1059 UCX  ERROR ibv_create_cq(cqe=256) failed: Connection timed out
[1738799350.069853] [ohm:3007262:0]        ib_iface.c:1059 UCX  ERROR ibv_create_cq(cqe=256) failed: Connection timed out
[1738799350.076655] [ohm:3007254:0]        ib_iface.c:1059 UCX  ERROR ibv_create_cq(cqe=256) failed: Connection timed out
[1738799350.077757] [ohm:3007159:0]        ib_iface.c:1059 UCX  ERROR ibv_create_cq(cqe=256) failed: Connection timed out
[1738799350.081004] [ohm:3007203:0]        ib_iface.c:1059 UCX  ERROR ibv_create_cq(cqe=256) failed: Connection timed out
[1738799350.084472] [ohm:3007268:0]        ib_iface.c:1059 UCX  ERROR ibv_create_cq(cqe=256) failed: Connection timed out
[1738799350.085848] [ohm:3007251:0]        ib_iface.c:1059 UCX  ERROR ibv_create_cq(cqe=256) failed: Connection timed out
[1738799350.091624] [ohm:3007255:0]        ib_iface.c:1059 UCX  ERROR ibv_create_cq(cqe=256) failed: Connection timed out
[1738799350.093165] [ohm:3007196:0]        ib_iface.c:1059 UCX  ERROR ibv_create_cq(cqe=256) failed: Connection timed out
[1738799350.095310] [ohm:3007168:0]        ib_iface.c:1059 UCX  ERROR ibv_create_cq(cqe=256) failed: Connection timed out
[1738799350.096491] [ohm:3007217:0]        ib_iface.c:1059 UCX  ERROR ibv_create_cq(cqe=256) failed: Connection timed out
[1738799350.100678] [ohm:3007169:0]        ib_iface.c:1059 UCX  ERROR ibv_create_cq(cqe=256) failed: Connection timed out
[1738799350.105362] [ohm:3007156:0]        ib_iface.c:1059 UCX  ERROR ibv_create_cq(cqe=256) failed: Connection timed out
[1738799350.108421] [ohm:3007189:0]        ib_iface.c:1059 UCX  ERROR ibv_create_cq(cqe=256) failed: Connection timed out
[1738799350.111753] [ohm:3007297:0]        ib_iface.c:1059 UCX  ERROR ibv_create_cq(cqe=256) failed: Connection timed out
[1738799350.113310] [ohm:3007228:0]        ib_iface.c:1059 UCX  ERROR ibv_create_cq(cqe=256) failed: Connection timed out
[1738799350.113534] [ohm:3007177:0]        ib_iface.c:1059 UCX  ERROR ibv_create_cq(cqe=256) failed: Connection timed out
[1738799350.113991] [ohm:3007224:0]        ib_iface.c:1059 UCX  ERROR ibv_create_cq(cqe=256) failed: Connection timed out
[1738799350.129424] [ohm:3007206:0]        ib_iface.c:1059 UCX  ERROR ibv_create_cq(cqe=256) failed: Connection timed out
[1738799350.137667] [ohm:3007261:0]        ib_iface.c:1059 UCX  ERROR ibv_create_cq(cqe=256) failed: Connection timed out
[1738799350.141469] [ohm:3007209:0]        ib_iface.c:1059 UCX  ERROR ibv_create_cq(cqe=256) failed: Connection timed out
[1738799350.144619] [ohm:3007221:0]        ib_iface.c:1059 UCX  ERROR ibv_create_cq(cqe=256) failed: Connection timed out
[1738799350.145041] [ohm:3007240:0]        ib_iface.c:1059 UCX  ERROR ibv_create_cq(cqe=256) failed: Connection timed out
[1738799350.145317] [ohm:3007295:0]        ib_iface.c:1059 UCX  ERROR ibv_create_cq(cqe=256) failed: Connection timed out
[1738799350.147337] [ohm:3007288:0]        ib_iface.c:1059 UCX  ERROR ibv_create_cq(cqe=256) failed: Connection timed out
[1738799350.149185] [ohm:3007212:0]        ib_iface.c:1059 UCX  ERROR ibv_create_cq(cqe=256) failed: Connection timed out
[1738799350.151188] [ohm:3007192:0]        ib_iface.c:1059 UCX  ERROR ibv_create_cq(cqe=256) failed: Connection timed out
[1738799350.151190] [ohm:3007242:0]        ib_iface.c:1059 UCX  ERROR ibv_create_cq(cqe=256) failed: Connection timed out
[1738799350.153378] [ohm:3007182:0]        ib_iface.c:1059 UCX  ERROR ibv_create_cq(cqe=256) failed: Connection timed out
[1738799350.153395] [ohm:3007249:0]        ib_iface.c:1059 UCX  ERROR ibv_create_cq(cqe=256) failed: Connection timed out
[1738799350.153904] [ohm:3007193:0]        ib_iface.c:1059 UCX  ERROR ibv_create_cq(cqe=256) failed: Connection timed out
[1738799350.155632] [ohm:3007235:0]        ib_iface.c:1059 UCX  ERROR ibv_create_cq(cqe=256) failed: Connection timed out
[1738799350.155761] [ohm:3007281:0]        ib_iface.c:1059 UCX  ERROR ibv_create_cq(cqe=256) failed: Connection timed out


           ************************************************************
           *        Program running with 64 parallel MPI-processes    *
           *              working on a common directory               *
           ************************************************************
-------------------------------------------------------------------------------
                                 ORCA GUESS
                   Start orbitals & Density for SCF / CASSCF
-------------------------------------------------------------------------------

------------
SCF SETTINGS
------------
Hamiltonian:
 Density Functional     Method          .... DFT(GTOs)
  Functional kind                       .... Exchange-Correlation
  Functional name                       .... wB97M-V exchange-correlation functional
  Functional family                     .... Hybrid MGGA
  Functional refs                              
    [ 0] N. Mardirossian and M. Head-Gordon.,  J. Chem. Phys. 144, 214110 (2016), doi: 10.1063/1.4952647
  Fraction of HF Exchange (short range) .... 0.1500
  Fraction of HF Exchange (long range)  .... 1.0000
  Range separation parameter mu         .... 0.3000
  Functional external parameters        .... 17
    Parameter  0 _cx00      =  8.500000e-01 : u^00 coefficient for exchange
    Parameter  1 _cx01      =  1.007000e+00 : u^01 coefficient for exchange
    Parameter  2 _cx10      =  2.590000e-01 : u^10 coefficient for exchange
    Parameter  3 _css00     =  4.430000e-01 : u^00 coefficient for same-spin correlation
    Parameter  4 _css04     = -1.437000e+00 : u^04 coefficient for same-spin correlation
    Parameter  5 _css10     = -4.535000e+00 : u^10 coefficient for same-spin correlation
    Parameter  6 _css20     = -3.390000e+00 : u^20 coefficient for same-spin correlation
    Parameter  7 _css43     =  4.278000e+00 : u^43 coefficient for same-spin correlation
    Parameter  8 _cos00     =  1.000000e+00 : u^00 coefficient for opposite-spin correlation
    Parameter  9 _cos10     =  1.358000e+00 : u^10 coefficient for opposite-spin correlation
    Parameter 10 _cos20     =  2.924000e+00 : u^20 coefficient for opposite-spin correlation
    Parameter 11 _cos21     = -8.812000e+00 : u^21 coefficient for opposite-spin correlation
    Parameter 12 _cos60     = -1.390000e+00 : u^60 coefficient for opposite-spin correlation
    Parameter 13 _cos61     =  9.142000e+00 : u^61 coefficient for opposite-spin correlation
    Parameter 14 _alpha     =  1.000000e+00 : fraction of HF exchange
    Parameter 15 _beta      = -8.500000e-01 : fraction of short-range exchange
    Parameter 16 _omega     =  3.000000e-01 : range-separation constant
 Long-range corrected/Screened/Range-Separated Hybrid DFT is turned on
   Amount of maximum screened exact exchange              ....  0.850000
   Range separation parameter mu (erf(mu*r12)/r12)        ....  0.300000
 RI-approximation to the Coulomb term is turned on
   Number of AuxJ basis functions       .... 1014
   RIJ-COSX (HFX calculated with COS-X)).... on


General Settings:
 Integral files         IntName         .... orca
 Hartree-Fock type      HFTyp           .... UHF
 Total Charge           Charge          ....    0
 Multiplicity           Mult            ....    3
 Number of Electrons    NEL             ....  132
 Basis Dimension        Dim             ....  882
 Nuclear Repulsion      ENuc            ....   1458.0376147298 Eh

Convergence Acceleration:
 AO-DIIS                CNVDIIS         .... on
   Start iteration      DIISMaxIt       ....    12
   Startup error        DIISStart       ....  0.200000
   # of expansion vecs  DIISMaxEq       ....     5
   Bias factor          DIISBfac        ....   1.050
   Max. coefficient     DIISMaxC        ....  10.000
 MO-DIIS                CNVKDIIS        .... off
 Trust-Rad. Augm. Hess. CNVTRAH         .... auto
   Auto Start mean grad. ratio tolernc. ....  1.125000
   Auto Start start iteration           ....    50
   Auto Start num. interpolation iter.  ....    10
   Max. Number of Micro iterations      ....    24
   Max. Number of Macro iterations      .... Maxiter - #DIIS iter
   Number of Davidson start vectors     ....     2
   Converg. threshold    (grad. norm)   ....   1.000e-05
   Grad. Scal. Fac. for Micro threshold ....   0.100
   Minimum threshold for Micro iter.    ....   1.000e-02
   NR start threshold (gradient norm)   ....   1.000e-04
   Initial trust radius                 ....   0.400
   Minimum AH scaling param. (alpha)    ....   1.000
   Maximum AH scaling param. (alpha)    .... 1000.000
   Quad. conv. algorithm                .... NR
   White noise on init. David. guess    .... on
   Maximum white noise                  ....   0.010
   Pseudo random numbers                .... off
   Inactive MOs                         .... canonical
   Orbital update algorithm             .... Taylor
   Preconditioner                       .... Diag
   Full preconditioner red. dimension   ....   250
 SOSCF                  CNVSOSCF        .... on
   Start iteration      SOSCFMaxIt      ....   150
   Startup grad/error   SOSCFStart      ....  0.003300
   Hessian update       SOSCFHessUp     .... L-BFGS
 Level Shifting         CNVShift        .... on
   Level shift para.    LevelShift      ....    0.2500
   Turn off err/grad.   ShiftErr        ....    0.0010
 Zerner damping         CNVZerner       .... off
 Static damping         CNVDamp         .... on
   Fraction old density DampFac         ....    0.7000
   Max. Damping (<1)    DampMax         ....    0.9800
   Min. Damping (>=0)   DampMin         ....    0.0000
   Turn off err/grad.   DampErr         ....    0.1000

SCF Procedure:
 Maximum # iterations   MaxIter         ....   125
 SCF integral mode      SCFMode         .... Direct
   Integral package                     .... SHARK and LIBINT hybrid scheme
 Reset frequency        DirectResetFreq ....    20
 Integral Threshold     Thresh          ....  1.000e-12 Eh
 Primitive CutOff       TCut            ....  1.000e-13 Eh

Convergence Tolerance:
 Convergence Check Mode ConvCheckMode   .... Total+1el-Energy
 Convergence forced     ConvForced      .... 1
 Energy Change          TolE            ....  1.000e-08 Eh
 1-El. energy change                    ....  1.000e-05 Eh
 Orbital Gradient       TolG            ....  1.000e-05
 Orbital Rotation angle TolX            ....  1.000e-05
 DIIS Error             TolErr          ....  5.000e-07

------------------------------
INITIAL GUESS: MODEL POTENTIAL
------------------------------
Loading Hartree-Fock densities                     ... done
Calculating cut-offs                               ... done
Initializing the effective Hamiltonian             ... done
Setting up the integral package (SHARK)            ... done
Starting the Coulomb interaction                   ... done (   0.1 sec)
Making the grid                                    ... done (   0.3 sec)
Mapping shells                                     ... done
Starting the XC term evaluation                    ... done (   0.1 sec)
  promolecular density results
     # of electrons  =    131.990213567
     EX              =   -113.575294195
     EC              =     -4.496630393
     EX+EC           =   -118.071924588
Transforming the Hamiltonian                       ... done (   0.1 sec)
Diagonalizing the Hamiltonian                      ... done (   0.1 sec)
Back transforming the eigenvectors                 ... done (   0.1 sec)
Now organizing SCF variables                       ... done
                      ------------------
                      INITIAL GUESS DONE (   1.1 sec)
                      ------------------
             **** ENERGY FILE WAS UPDATED (orca.en.tmp) ****
Finished Guess after   3.5 sec
Maximum memory used throughout the entire GUESS-calculation: 72.6 MB
[1738799354.113512] [ohm:3007485:0]        ib_iface.c:1059 UCX  ERROR ibv_create_cq(cqe=256) failed: Connection timed out
[1738799354.138335] [ohm:3007491:0]        ib_iface.c:1059 UCX  ERROR ibv_create_cq(cqe=256) failed: Connection timed out
[1738799354.155980] [ohm:3007505:0]        ib_iface.c:1059 UCX  ERROR ibv_create_cq(cqe=256) failed: Connection timed out
[1738799354.156757] [ohm:3007501:0]        ib_iface.c:1059 UCX  ERROR ibv_create_cq(cqe=256) failed: Connection timed out
[1738799354.157552] [ohm:3007490:0]        ib_iface.c:1059 UCX  ERROR ibv_create_cq(cqe=256) failed: Connection timed out
[1738799354.158538] [ohm:3007487:0]        ib_iface.c:1059 UCX  ERROR ibv_create_cq(cqe=256) failed: Connection timed out
[1738799354.161096] [ohm:3007562:0]        ib_iface.c:1059 UCX  ERROR ibv_create_cq(cqe=256) failed: Connection timed out
[1738799354.162963] [ohm:3007489:0]        ib_iface.c:1059 UCX  ERROR ibv_create_cq(cqe=256) failed: Connection timed out
[1738799354.163140] [ohm:3007484:0]        ib_iface.c:1059 UCX  ERROR ibv_create_cq(cqe=256) failed: Connection timed out
[1738799354.178498] [ohm:3007535:0]        ib_iface.c:1059 UCX  ERROR ibv_create_cq(cqe=256) failed: Connection timed out
[1738799354.183026] [ohm:3007605:0]        ib_iface.c:1059 UCX  ERROR ibv_create_cq(cqe=256) failed: Connection timed out
[1738799354.185135] [ohm:3007488:0]        ib_iface.c:1059 UCX  ERROR ibv_create_cq(cqe=256) failed: Connection timed out
[1738799354.188223] [ohm:3007512:0]        ib_iface.c:1059 UCX  ERROR ibv_create_cq(cqe=256) failed: Connection timed out
[1738799354.197459] [ohm:3007553:0]        ib_iface.c:1059 UCX  ERROR ibv_create_cq(cqe=256) failed: Connection timed out
[1738799354.233261] [ohm:3007500:0]        ib_iface.c:1059 UCX  ERROR ibv_create_cq(cqe=256) failed: Connection timed out
[1738799354.249491] [ohm:3007496:0]        ib_iface.c:1059 UCX  ERROR ibv_create_cq(cqe=256) failed: Connection timed out
[1738799354.250998] [ohm:3007495:0]        ib_iface.c:1059 UCX  ERROR ibv_create_cq(cqe=256) failed: Connection timed out
[1738799354.273803] [ohm:3007603:0]        ib_iface.c:1059 UCX  ERROR ibv_create_cq(cqe=256) failed: Connection timed out
[1738799354.284339] [ohm:3007610:0]        ib_iface.c:1059 UCX  ERROR ibv_create_cq(cqe=256) failed: Connection timed out
[1738799354.289258] [ohm:3007510:0]        ib_iface.c:1059 UCX  ERROR ibv_create_cq(cqe=256) failed: Connection timed out
[1738799354.294388] [ohm:3007578:0]        ib_iface.c:1059 UCX  ERROR ibv_create_cq(cqe=256) failed: Connection timed out
[1738799354.318921] [ohm:3007502:0]        ib_iface.c:1059 UCX  ERROR ibv_create_cq(cqe=256) failed: Connection timed out
[1738799354.326093] [ohm:3007574:0]        ib_iface.c:1059 UCX  ERROR ibv_create_cq(cqe=256) failed: Connection timed out
[1738799354.326630] [ohm:3007614:0]        ib_iface.c:1059 UCX  ERROR ibv_create_cq(cqe=256) failed: Connection timed out
[1738799354.330450] [ohm:3007498:0]        ib_iface.c:1059 UCX  ERROR ibv_create_cq(cqe=256) failed: Connection timed out
[1738799354.339381] [ohm:3007626:0]        ib_iface.c:1059 UCX  ERROR ibv_create_cq(cqe=256) failed: Connection timed out
[1738799354.345640] [ohm:3007509:0]        ib_iface.c:1059 UCX  ERROR ibv_create_cq(cqe=256) failed: Connection timed out
[1738799354.345724] [ohm:3007565:0]        ib_iface.c:1059 UCX  ERROR ibv_create_cq(cqe=256) failed: Connection timed out
[1738799354.345995] [ohm:3007590:0]        ib_iface.c:1059 UCX  ERROR ibv_create_cq(cqe=256) failed: Connection timed out
[1738799354.356346] [ohm:3007506:0]        ib_iface.c:1059 UCX  ERROR ibv_create_cq(cqe=256) failed: Connection timed out
[1738799354.358816] [ohm:3007621:0]        ib_iface.c:1059 UCX  ERROR ibv_create_cq(cqe=256) failed: Connection timed out
[1738799354.359540] [ohm:3007511:0]        ib_iface.c:1059 UCX  ERROR ibv_create_cq(cqe=256) failed: Connection timed out
[1738799354.366321] [ohm:3007493:0]        ib_iface.c:1059 UCX  ERROR ibv_create_cq(cqe=256) failed: Connection timed out
[1738799354.369413] [ohm:3007619:0]        ib_iface.c:1059 UCX  ERROR ibv_create_cq(cqe=256) failed: Connection timed out
[1738799354.375050] [ohm:3007499:0]        ib_iface.c:1059 UCX  ERROR ibv_create_cq(cqe=256) failed: Connection timed out
[1738799354.377838] [ohm:3007592:0]        ib_iface.c:1059 UCX  ERROR ibv_create_cq(cqe=256) failed: Connection timed out
[1738799354.383289] [ohm:3007547:0]        ib_iface.c:1059 UCX  ERROR ibv_create_cq(cqe=256) failed: Connection timed out
[1738799354.383579] [ohm:3007628:0]        ib_iface.c:1059 UCX  ERROR ibv_create_cq(cqe=256) failed: Connection timed out
[1738799354.388240] [ohm:3007538:0]        ib_iface.c:1059 UCX  ERROR ibv_create_cq(cqe=256) failed: Connection timed out
[1738799354.392400] [ohm:3007497:0]        ib_iface.c:1059 UCX  ERROR ibv_create_cq(cqe=256) failed: Connection timed out
[1738799354.400973] [ohm:3007567:0]        ib_iface.c:1059 UCX  ERROR ibv_create_cq(cqe=256) failed: Connection timed out
[1738799354.402368] [ohm:3007523:0]        ib_iface.c:1059 UCX  ERROR ibv_create_cq(cqe=256) failed: Connection timed out
[1738799354.406658] [ohm:3007492:0]        ib_iface.c:1059 UCX  ERROR ibv_create_cq(cqe=256) failed: Connection timed out
[1738799354.408367] [ohm:3007557:0]        ib_iface.c:1059 UCX  ERROR ibv_create_cq(cqe=256) failed: Connection timed out
[1738799354.410231] [ohm:3007585:0]        ib_iface.c:1059 UCX  ERROR ibv_create_cq(cqe=256) failed: Connection timed out
[1738799354.411082] [ohm:3007528:0]        ib_iface.c:1059 UCX  ERROR ibv_create_cq(cqe=256) failed: Connection timed out
[1738799354.415583] [ohm:3007494:0]        ib_iface.c:1059 UCX  ERROR ibv_create_cq(cqe=256) failed: Connection timed out
[1738799354.427052] [ohm:3007545:0]        ib_iface.c:1059 UCX  ERROR ibv_create_cq(cqe=256) failed: Connection timed out
[1738799354.434045] [ohm:3007612:0]        ib_iface.c:1059 UCX  ERROR ibv_create_cq(cqe=256) failed: Connection timed out
[1738799354.435094] [ohm:3007503:0]        ib_iface.c:1059 UCX  ERROR ibv_create_cq(cqe=256) failed: Connection timed out
[1738799354.436777] [ohm:3007532:0]        ib_iface.c:1059 UCX  ERROR ibv_create_cq(cqe=256) failed: Connection timed out
[1738799354.441167] [ohm:3007486:0]        ib_iface.c:1059 UCX  ERROR ibv_create_cq(cqe=256) failed: Connection timed out
[1738799354.441811] [ohm:3007516:0]        ib_iface.c:1059 UCX  ERROR ibv_create_cq(cqe=256) failed: Connection timed out
[1738799354.444368] [ohm:3007581:0]        ib_iface.c:1059 UCX  ERROR ibv_create_cq(cqe=256) failed: Connection timed out
[1738799354.445142] [ohm:3007507:0]        ib_iface.c:1059 UCX  ERROR ibv_create_cq(cqe=256) failed: Connection timed out
[1738799354.445178] [ohm:3007504:0]        ib_iface.c:1059 UCX  ERROR ibv_create_cq(cqe=256) failed: Connection timed out
[1738799354.445294] [ohm:3007570:0]        ib_iface.c:1059 UCX  ERROR ibv_create_cq(cqe=256) failed: Connection timed out
[1738799354.447017] [ohm:3007599:0]        ib_iface.c:1059 UCX  ERROR ibv_create_cq(cqe=256) failed: Connection timed out
[1738799354.448967] [ohm:3007540:0]        ib_iface.c:1059 UCX  ERROR ibv_create_cq(cqe=256) failed: Connection timed out
[1738799354.450902] [ohm:3007518:0]        ib_iface.c:1059 UCX  ERROR ibv_create_cq(cqe=256) failed: Connection timed out
[1738799354.451135] [ohm:3007508:0]        ib_iface.c:1059 UCX  ERROR ibv_create_cq(cqe=256) failed: Connection timed out
[1738799354.451113] [ohm:3007583:0]        ib_iface.c:1059 UCX  ERROR ibv_create_cq(cqe=256) failed: Connection timed out
[1738799354.451871] [ohm:3007559:0]        ib_iface.c:1059 UCX  ERROR ibv_create_cq(cqe=256) failed: Connection timed out
[1738799354.451856] [ohm:3007595:0]        ib_iface.c:1059 UCX  ERROR ibv_create_cq(cqe=256) failed: Connection timed out


           ************************************************************
           *        Program running with 64 parallel MPI-processes    *
           *              working on a common directory               *
           ************************************************************

-------------------------------------------------------------------------------------------
                                      ORCA LEAN-SCF
                              memory conserving SCF solver
-------------------------------------------------------------------------------------------

----------------------------------------D-I-I-S--------------------------------------------
Iteration    Energy (Eh)           Delta-E    RMSDP     MaxDP     DIISErr   Damp  Time(sec)
-------------------------------------------------------------------------------------------
               ***  Starting incremental Fock matrix formation  ***
    1    -908.0429957425160410     0.00e+00  2.19e-03  6.25e-01  1.47e-01  0.700   7.8
    2    -908.3050532070826648    -2.62e-01  1.73e-03  4.94e-01  7.05e-02  0.700   6.7
                               ***Turning on AO-DIIS***
    3    -908.4212531821183347    -1.16e-01  1.28e-03  3.76e-01  2.81e-02  0.700   5.9
    4    -908.4927012960536103    -7.14e-02  3.01e-03  8.94e-01  1.85e-02  0.000   5.8
    5    -908.6530885020818005    -1.60e-01  1.93e-04  3.29e-02  5.05e-03  0.000   6.0
                              *** Initializing SOSCF ***
---------------------------------------S-O-S-C-F--------------------------------------
Iteration    Energy (Eh)           Delta-E    RMSDP     MaxDP     MaxGrad    Time(sec)
--------------------------------------------------------------------------------------
    6    -908.6542661438963933    -1.18e-03  8.59e-05  1.15e-02  3.04e-03     6.5
               *** Restarting incremental Fock matrix formation ***
    7    -908.6547389566446782    -4.73e-04  3.18e-04  2.72e-02  2.45e-03     7.4
    8    -908.6549861961332226    -2.47e-04  2.36e-04  1.86e-02  1.80e-03     6.6
    9    -908.6550509490236891    -6.48e-05  1.99e-04  2.56e-02  7.22e-04     6.6
   10    -908.6551079107082387    -5.70e-05  1.49e-05  1.74e-03  4.14e-04     6.5
   11    -908.6551127135955994    -4.80e-06  9.12e-06  9.33e-04  3.50e-04     6.3
   12    -908.6551152187050775    -2.51e-06  6.52e-06  6.84e-04  1.69e-04     6.2
   13    -908.6551159171447125    -6.98e-07  1.67e-06  2.92e-04  3.00e-05     6.1
   14    -908.6551159808102511    -6.37e-08  1.28e-06  2.08e-04  1.66e-05     5.9
   15    -908.6551160014594188    -2.06e-08  1.52e-06  4.40e-04  5.80e-06     5.8
   16    -908.6551160182277727    -1.68e-08  1.45e-06  3.16e-04  2.91e-06     5.6
   17    -908.6551160039855404     1.42e-08  1.83e-06  7.14e-04  1.63e-06     5.5
                  *** Gradient check signals convergence ***

               *****************************************************
               *                     SUCCESS                       *
               *           SCF CONVERGED AFTER  17 CYCLES          *
               *****************************************************

Recomputing exchange energy using gridx3       ... done (    8.383 sec)
Old exchange energy                            :    -35.051183054 Eh
New exchange energy                            :    -35.051187005 Eh
Exchange energy change after final integration :     -0.000003951 Eh
Total energy after final integration           :   -908.655119955 Eh
             **** ENERGY FILE WAS UPDATED (orca.en.tmp) ****

----------------
TOTAL SCF ENERGY
----------------

Total Energy       :       -908.65511995503050 Eh          -24725.76285 eV

Components:
Nuclear Repulsion  :       1458.03761472984684 Eh           39675.22055 eV
Electronic Energy  :      -2366.69273073383283 Eh          -64400.98329 eV
One Electron Energy:      -4133.03648862201771 Eh         -112465.64050 eV
Two Electron Energy:       1766.34375788818511 Eh           48064.65721 eV

Virial components:
Potential Energy   :      -1814.66600338890817 Eh          -49379.57236 eV
Kinetic Energy     :        906.01088343387767 Eh           24653.80951 eV
Virial Ratio       :          2.00291854829727

DFT components:
N(Alpha)           :       67.000128127578 electrons
N(Beta)            :       65.000133500244 electrons
N(Total)           :      132.000261627822 electrons
E(XC)              :      -86.302357105190 Eh       

---------------
SCF CONVERGENCE
---------------

  Last Energy change         ...   -1.4242e-08  Tolerance :   1.0000e-08
  Last MAX-Density change    ...    7.1353e-04  Tolerance :   1.0000e-07
  Last RMS-Density change    ...    1.8275e-06  Tolerance :   5.0000e-09
  Last DIIS Error            ...    3.0419e-03  Tolerance :   5.0000e-07
  Last Orbital Gradient      ...    1.6344e-06  Tolerance :   1.0000e-05
  Last Orbital Rotation      ...    5.5473e-06  Tolerance :   1.0000e-05


----------------------
UHF SPIN CONTAMINATION
----------------------

Warning: in a DFT calculation there is little theoretical justification to 
         calculate <S**2> as in Hartree-Fock theory. We will do it anyways
         but you should keep in mind that the values have only limited relevance

Expectation value of <S**2>     :     2.010524
Ideal value S*(S+1) for S=1.0   :     2.000000
Deviation                       :     0.010524

----------------
ORBITAL ENERGIES
----------------
                 SPIN UP ORBITALS
  NO   OCC          E(Eh)            E(eV) 
   0   1.0000     -19.337835      -526.2092 
   1   1.0000     -19.333778      -526.0989 
   2   1.0000     -19.322186      -525.7834 
   3   1.0000     -19.320884      -525.7480 
   4   1.0000     -14.568662      -396.4334 
   5   1.0000     -14.567504      -396.4019 
   6   1.0000     -14.566893      -396.3853 
   7   1.0000     -14.563845      -396.3024 
   8   1.0000     -10.510469      -286.0044 
   9   1.0000     -10.508578      -285.9529 
  10   1.0000     -10.492634      -285.5191 
  11   1.0000     -10.480816      -285.1975 
  12   1.0000     -10.437253      -284.0121 
  13   1.0000     -10.435398      -283.9616 
  14   1.0000     -10.416736      -283.4538 
  15   1.0000     -10.396437      -282.9014 
  16   1.0000     -10.373128      -282.2672 
  17   1.0000     -10.368747      -282.1480 
  18   1.0000      -1.227439       -33.4003 
  19   1.0000      -1.220287       -33.2057 
  20   1.0000      -1.204478       -32.7755 
  21   1.0000      -1.199180       -32.6314 
  22   1.0000      -1.129707       -30.7409 
  23   1.0000      -1.091382       -29.6980 
  24   1.0000      -1.074637       -29.2424 
  25   1.0000      -1.063508       -28.9395 
  26   1.0000      -1.013253       -27.5720 
  27   1.0000      -0.937411       -25.5082 
  28   1.0000      -0.881527       -23.9876 
  29   1.0000      -0.823326       -22.4039 
  30   1.0000      -0.818072       -22.2609 
  31   1.0000      -0.809607       -22.0305 
  32   1.0000      -0.791874       -21.5480 
  33   1.0000      -0.775523       -21.1030 
  34   1.0000      -0.727607       -19.7992 
  35   1.0000      -0.702350       -19.1119 
  36   1.0000      -0.695569       -18.9274 
  37   1.0000      -0.666354       -18.1324 
  38   1.0000      -0.642477       -17.4827 
  39   1.0000      -0.630863       -17.1667 
  40   1.0000      -0.614396       -16.7186 
  41   1.0000      -0.610205       -16.6045 
  42   1.0000      -0.598215       -16.2782 
  43   1.0000      -0.590291       -16.0626 
  44   1.0000      -0.579987       -15.7822 
  45   1.0000      -0.569240       -15.4898 
  46   1.0000      -0.564742       -15.3674 
  47   1.0000      -0.562596       -15.3090 
  48   1.0000      -0.555277       -15.1099 
  49   1.0000      -0.553741       -15.0681 
  50   1.0000      -0.544744       -14.8233 
  51   1.0000      -0.541425       -14.7329 
  52   1.0000      -0.536317       -14.5939 
  53   1.0000      -0.512717       -13.9517 
  54   1.0000      -0.505711       -13.7611 
  55   1.0000      -0.481909       -13.1134 
  56   1.0000      -0.450471       -12.2579 
  57   1.0000      -0.427915       -11.6442 
  58   1.0000      -0.419387       -11.4121 
  59   1.0000      -0.410269       -11.1640 
  60   1.0000      -0.403517       -10.9802 
  61   1.0000      -0.400120       -10.8878 
  62   1.0000      -0.395135       -10.7522 
  63   1.0000      -0.390024       -10.6131 
  64   1.0000      -0.383935       -10.4474 
  65   1.0000      -0.370997       -10.0953 
  66   1.0000      -0.297080        -8.0840 
  67   0.0000       0.009393         0.2556 
  68   0.0000       0.029787         0.8105 
  69   0.0000       0.032252         0.8776 
  70   0.0000       0.036797         1.0013 
  71   0.0000       0.045817         1.2467 
  72   0.0000       0.056680         1.5423 
  73   0.0000       0.058584         1.5941 
  74   0.0000       0.060649         1.6503 
  75   0.0000       0.063244         1.7210 
  76   0.0000       0.065065         1.7705 
  77   0.0000       0.070635         1.9221 

                 SPIN DOWN ORBITALS
  NO   OCC          E(Eh)            E(eV) 
   0   1.0000     -19.337796      -526.2082 
   1   1.0000     -19.328231      -525.9479 
   2   1.0000     -19.322224      -525.7844 
   3   1.0000     -19.320881      -525.7479 
   4   1.0000     -14.568619      -396.4323 
   5   1.0000     -14.567412      -396.3994 
   6   1.0000     -14.566786      -396.3824 
   7   1.0000     -14.563823      -396.3018 
   8   1.0000     -10.510487      -286.0049 
   9   1.0000     -10.508582      -285.9530 
  10   1.0000     -10.492653      -285.5196 
  11   1.0000     -10.481388      -285.2131 
  12   1.0000     -10.436943      -284.0037 
  13   1.0000     -10.435031      -283.9516 
  14   1.0000     -10.416082      -283.4360 
  15   1.0000     -10.373419      -282.2751 
  16   1.0000     -10.368742      -282.1478 
  17   1.0000     -10.368490      -282.1410 
  18   1.0000      -1.227130       -33.3919 
  19   1.0000      -1.219186       -33.1757 
  20   1.0000      -1.204370       -32.7726 
  21   1.0000      -1.191202       -32.4142 
  22   1.0000      -1.129149       -30.7257 
  23   1.0000      -1.090528       -29.6748 
  24   1.0000      -1.073487       -29.2111 
  25   1.0000      -1.062870       -28.9222 
  26   1.0000      -1.011970       -27.5371 
  27   1.0000      -0.908905       -24.7326 
  28   1.0000      -0.880537       -23.9606 
  29   1.0000      -0.822606       -22.3842 
  30   1.0000      -0.814323       -22.1589 
  31   1.0000      -0.803845       -21.8737 
  32   1.0000      -0.788332       -21.4516 
  33   1.0000      -0.770506       -20.9665 
  34   1.0000      -0.722661       -19.6646 
  35   1.0000      -0.700254       -19.0549 
  36   1.0000      -0.687127       -18.6977 
  37   1.0000      -0.665299       -18.1037 
  38   1.0000      -0.635631       -17.2964 
  39   1.0000      -0.626801       -17.0561 
  40   1.0000      -0.612146       -16.6573 
  41   1.0000      -0.606943       -16.5158 
  42   1.0000      -0.588912       -16.0251 
  43   1.0000      -0.580553       -15.7976 
  44   1.0000      -0.575991       -15.6735 
  45   1.0000      -0.563042       -15.3212 
  46   1.0000      -0.560239       -15.2449 
  47   1.0000      -0.553509       -15.0618 
  48   1.0000      -0.551864       -15.0170 
  49   1.0000      -0.551550       -15.0084 
  50   1.0000      -0.540093       -14.6967 
  51   1.0000      -0.531868       -14.4729 
  52   1.0000      -0.526856       -14.3365 
  53   1.0000      -0.511647       -13.9226 
  54   1.0000      -0.493725       -13.4349 
  55   1.0000      -0.480595       -13.0776 
  56   1.0000      -0.442038       -12.0285 
  57   1.0000      -0.422007       -11.4834 
  58   1.0000      -0.418219       -11.3803 
  59   1.0000      -0.406385       -11.0583 
  60   1.0000      -0.399172       -10.8620 
  61   1.0000      -0.393027       -10.6948 
  62   1.0000      -0.388214       -10.5638 
  63   1.0000      -0.381454       -10.3799 
  64   1.0000      -0.369629       -10.0581 
  65   0.0000      -0.052647        -1.4326 
  66   0.0000       0.008860         0.2411 
  67   0.0000       0.025424         0.6918 
  68   0.0000       0.031879         0.8675 
  69   0.0000       0.035645         0.9700 
  70   0.0000       0.038801         1.0558 
  71   0.0000       0.048596         1.3224 
  72   0.0000       0.058023         1.5789 
  73   0.0000       0.059664         1.6235 
  74   0.0000       0.060623         1.6496 
  75   0.0000       0.064736         1.7616 
*Only the first 10 virtual orbitals were printed.

                    ********************************
                    * MULLIKEN POPULATION ANALYSIS *
                    ********************************

--------------------------------------------
MULLIKEN ATOMIC CHARGES AND SPIN POPULATIONS
--------------------------------------------
   0 O :   -0.636592    0.002618
   1 O :   -0.618453    0.185262
   2 O :   -0.649046    0.000096
   3 O :   -0.663977   -0.000940
   4 N :   -0.130253    0.003429
   5 N :   -0.102485    0.003934
   6 N :    0.009118    0.000417
   7 N :    0.088548    0.002330
   8 C :    1.974626    0.069690
   9 C :    0.260213    1.540981
  10 C :   -0.447104    0.002177
  11 C :   -0.655009    0.029446
  12 C :   -1.647938   -0.002905
  13 C :   -1.370379    0.067229
  14 C :   -0.067934    0.001934
  15 C :    0.607245    0.032055
  16 C :    0.454735    0.000661
  17 C :    0.547760    0.004257
  18 H :    0.244369   -0.000165
  19 H :    0.385102   -0.019077
  20 H :    0.353746    0.002827
  21 H :    0.348970    0.003667
  22 H :    0.459843    0.003041
  23 H :    0.307114    0.017031
  24 H :    0.333083    0.018898
  25 H :    0.433927    0.031382
  26 H :    0.034786    0.000166
  27 H :    0.091896   -0.000369
  28 H :    0.037723   -0.000267
  29 H :    0.016369    0.000196
Sum of atomic charges         :   -0.0000000
Sum of atomic spin populations:    2.0000000

-----------------------------------------------------
[...]
[1738799627.591560] [ohm:3008661:0]        ib_iface.c:1059 UCX  ERROR ibv_create_cq(cqe=256) failed: Connection timed out
[1738799627.592271] [ohm:3008724:0]        ib_iface.c:1059 UCX  ERROR ibv_create_cq(cqe=256) failed: Connection timed out
[1738799627.592714] [ohm:3008646:0]        ib_iface.c:1059 UCX  ERROR ibv_create_cq(cqe=256) failed: Connection timed out
[1738799627.593839] [ohm:3008628:0]        ib_iface.c:1059 UCX  ERROR ibv_create_cq(cqe=256) failed: Connection timed out
[1738799627.595255] [ohm:3008638:0]        ib_iface.c:1059 UCX  ERROR ibv_create_cq(cqe=256) failed: Connection timed out
[1738799627.595689] [ohm:3008707:0]        ib_iface.c:1059 UCX  ERROR ibv_create_cq(cqe=256) failed: Connection timed out
[1738799627.596011] [ohm:3008629:0]        ib_iface.c:1059 UCX  ERROR ibv_create_cq(cqe=256) failed: Connection timed out
[1738799627.597947] [ohm:3008651:0]        ib_iface.c:1059 UCX  ERROR ibv_create_cq(cqe=256) failed: Connection timed out
[1738799627.599012] [ohm:3008748:0]        ib_iface.c:1059 UCX  ERROR ibv_create_cq(cqe=256) failed: Connection timed out
[1738799627.598994] [ohm:3008763:0]        ib_iface.c:1059 UCX  ERROR ibv_create_cq(cqe=256) failed: Connection timed out


           ************************************************************
           *        Program running with 64 parallel MPI-processes    *
           *              working on a common directory               *
           ************************************************************

------------------------------------------------------------------------------
                              ORCA PROPERTY CALCULATIONS
------------------------------------------------------------------------------

GBWName                                 ... orca.gbw
Number of atoms                         ...     30
Number of basis functions               ...    882
Max core memory                         ...   1024 MB

Electric properties:
Dipole moment                           ... YES
Quadrupole moment                       ...  NO
Static polarizability (Dipole/Dipole)   ...  NO
Static polarizability (Dipole/Quad.)    ...  NO
Static polarizability (Quad./Quad.)     ...  NO
Static polarizability (Velocity)        ...  NO

Atomic electric properties:
Dipole moment                           ...  NO
Quadrupole moment                       ...  NO
Static polarizability                   ...  NO

Choice of electric origin               ... Center of mass
Position of electric origin             ...     0.087900    -0.002623    -0.022018

General magnetic properties:
Magnetizability                         ...  NO

EPR properties:
g-Tensor (aka g-matrix)                 ...  NO
Zero-Field splitting spin-orbit         ...  NO
Zero-field splitting spin-spin          ...  NO
Hyperfine couplings                     ...  NO (   0 nuclei)
Quadrupole couplings                    ...  NO (   0 nuclei)
Contact density                         ...  NO (   0 nuclei)

NMR properties:
Chemical shifts                         ...  NO (   0 nuclei)
Spin-rotation constants                 ...  NO (   0 nuclei)
Spin-spin couplings                     ...  NO (   0 nuclei,    0 pairs)

Choice of magnetic origin               ... GIAO
Position of magnetic origin             ...     0.000000     0.000000     0.000000

Properties with geometric perturbations:
SCF Hessian                             ...  NO
IR spectrum                             ...  NO
VCD spectrum                            ...  NO
X-ray spectroscopy properties:
SCF XES/XAS/RIXS spectra                ...  NO


-------------
DIPOLE MOMENT
-------------

Method             : SCF
Type of density    : Electron Density
Multiplicity       :   3
Irrep              :   0
Energy             :  -908.6551199550305000 Eh
Relativity type    : 
Basis              : AO
                                X                 Y                 Z
Electronic contribution:     -0.709863079      -9.901708873      -7.245114082
Nuclear contribution   :      0.766571739      10.847916514       9.927575835
                        -----------------------------------------
Total Dipole Moment    :      0.056708660       0.946207640       2.682461754
                        -----------------------------------------
Magnitude (a.u.)       :      2.845017721
Magnitude (Debye)      :      7.231460352



--------------------
Rotational spectrum 
--------------------
 
Rotational constants in cm-1:             0.022525             0.013611             0.011993 
Rotational constants in MHz :           675.268967           408.040923           359.552178 

Dipole components along the rotational axes: 
x,y,z [a.u.] :    -0.078735     1.848939     2.160869 
x,y,z [Debye]:    -0.200129     4.699628     5.492491 

 

-------------
DIPOLE MOMENT
-------------

Method             : TDA/CIS
Type of density    : Electron Density
Level              : Relaxed density
State              :   2
Multiplicity       :   3
Irrep              :   0
Energy             :     0.0000000000000000 Eh
Relativity type    : 
Basis              : AO
                                X                 Y                 Z
Electronic contribution:     -0.839714152      -9.861282324      -7.292180988
Nuclear contribution   :      0.766571739      10.847916514       9.927575835
                        -----------------------------------------
Total Dipole Moment    :     -0.073142413       0.986634189       2.635394848
                        -----------------------------------------
Magnitude (a.u.)       :      2.814978302
Magnitude (Debye)      :      7.155106218



--------------------
Rotational spectrum 
--------------------
 
Rotational constants in cm-1:             0.022525             0.013611             0.011993 
Rotational constants in MHz :           675.268967           408.040923           359.552178 

Dipole components along the rotational axes: 
x,y,z [a.u.] :     0.002599     1.741580     2.211560 
x,y,z [Debye]:     0.006607     4.426743     5.621338 

 

Dipole moment calculation done in   0.2 sec 

Maximum memory used throughout the entire PROP-calculation: 81.8 MB
[1738799630.025866] [ohm:3008984:0]        ib_iface.c:1059 UCX  ERROR ibv_create_cq(cqe=256) failed: Connection timed out
[1738799630.025945] [ohm:3008952:0]        ib_iface.c:1059 UCX  ERROR ibv_create_cq(cqe=256) failed: Connection timed out
[1738799630.030816] [ohm:3008963:0]        ib_iface.c:1059 UCX  ERROR ibv_create_cq(cqe=256) failed: Connection timed out
[1738799630.035706] [ohm:3008954:0]        ib_iface.c:1059 UCX  ERROR ibv_create_cq(cqe=256) failed: Connection timed out
[1738799630.044677] [ohm:3008980:0]        ib_iface.c:1059 UCX  ERROR ibv_create_cq(cqe=256) failed: Connection timed out
[1738799630.049740] [ohm:3008950:0]        ib_iface.c:1059 UCX  ERROR ibv_create_cq(cqe=256) failed: Connection timed out
[1738799630.053152] [ohm:3008948:0]        ib_iface.c:1059 UCX  ERROR ibv_create_cq(cqe=256) failed: Connection timed out
[1738799630.064221] [ohm:3008949:0]        ib_iface.c:1059 UCX  ERROR ibv_create_cq(cqe=256) failed: Connection timed out
[1738799630.065521] [ohm:3008957:0]        ib_iface.c:1059 UCX  ERROR ibv_create_cq(cqe=256) failed: Connection timed out
[1738799630.072237] [ohm:3009014:0]        ib_iface.c:1059 UCX  ERROR ibv_create_cq(cqe=256) failed: Connection timed out
[1738799630.077543] [ohm:3009018:0]        ib_iface.c:1059 UCX  ERROR ibv_create_cq(cqe=256) failed: Connection timed out
[1738799630.079532] [ohm:3009006:0]        ib_iface.c:1059 UCX  ERROR ibv_create_cq(cqe=256) failed: Connection timed out
[1738799630.079629] [ohm:3008979:0]        ib_iface.c:1059 UCX  ERROR ibv_create_cq(cqe=256) failed: Connection timed out
[1738799630.080137] [ohm:3008956:0]        ib_iface.c:1059 UCX  ERROR ibv_create_cq(cqe=256) failed: Connection timed out
[1738799630.081691] [ohm:3008951:0]        ib_iface.c:1059 UCX  ERROR ibv_create_cq(cqe=256) failed: Connection timed out
[1738799630.087391] [ohm:3009033:0]        ib_iface.c:1059 UCX  ERROR ibv_create_cq(cqe=256) failed: Connection timed out
[1738799630.090364] [ohm:3008958:0]        ib_iface.c:1059 UCX  ERROR ibv_create_cq(cqe=256) failed: Connection timed out
[1738799630.107792] [ohm:3009026:0]        ib_iface.c:1059 UCX  ERROR ibv_create_cq(cqe=256) failed: Connection timed out
[1738799630.111001] [ohm:3008962:0]        ib_iface.c:1059 UCX  ERROR ibv_create_cq(cqe=256) failed: Connection timed out
[1738799630.135539] [ohm:3008960:0]        ib_iface.c:1059 UCX  ERROR ibv_create_cq(cqe=256) failed: Connection timed out
[1738799630.149768] [ohm:3008961:0]        ib_iface.c:1059 UCX  ERROR ibv_create_cq(cqe=256) failed: Connection timed out
[1738799630.150448] [ohm:3008955:0]        ib_iface.c:1059 UCX  ERROR ibv_create_cq(cqe=256) failed: Connection timed out
[1738799630.151881] [ohm:3009082:0]        ib_iface.c:1059 UCX  ERROR ibv_create_cq(cqe=256) failed: Connection timed out
[1738799630.151926] [ohm:3009009:0]        ib_iface.c:1059 UCX  ERROR ibv_create_cq(cqe=256) failed: Connection timed out
[1738799630.162973] [ohm:3008990:0]        ib_iface.c:1059 UCX  ERROR ibv_create_cq(cqe=256) failed: Connection timed out
[1738799630.165721] [ohm:3008977:0]        ib_iface.c:1059 UCX  ERROR ibv_create_cq(cqe=256) failed: Connection timed out
[1738799630.165706] [ohm:3008953:0]        ib_iface.c:1059 UCX  ERROR ibv_create_cq(cqe=256) failed: Connection timed out
[1738799630.167015] [ohm:3008976:0]        ib_iface.c:1059 UCX  ERROR ibv_create_cq(cqe=256) failed: Connection timed out
[1738799630.201470] [ohm:3009057:0]        ib_iface.c:1059 UCX  ERROR ibv_create_cq(cqe=256) failed: Connection timed out
[1738799630.207066] [ohm:3009004:0]        ib_iface.c:1059 UCX  ERROR ibv_create_cq(cqe=256) failed: Connection timed out
[1738799630.207586] [ohm:3009062:0]        ib_iface.c:1059 UCX  ERROR ibv_create_cq(cqe=256) failed: Connection timed out
[1738799630.217956] [ohm:3009070:0]        ib_iface.c:1059 UCX  ERROR ibv_create_cq(cqe=256) failed: Connection timed out
[1738799630.221246] [ohm:3008999:0]        ib_iface.c:1059 UCX  ERROR ibv_create_cq(cqe=256) failed: Connection timed out
[1738799630.230590] [ohm:3009064:0]        ib_iface.c:1059 UCX  ERROR ibv_create_cq(cqe=256) failed: Connection timed out
[1738799630.231832] [ohm:3009072:0]        ib_iface.c:1059 UCX  ERROR ibv_create_cq(cqe=256) failed: Connection timed out
[1738799630.238319] [ohm:3009042:0]        ib_iface.c:1059 UCX  ERROR ibv_create_cq(cqe=256) failed: Connection timed out
[1738799630.244911] [ohm:3009013:0]        ib_iface.c:1059 UCX  ERROR ibv_create_cq(cqe=256) failed: Connection timed out
[1738799630.252419] [ohm:3008992:0]        ib_iface.c:1059 UCX  ERROR ibv_create_cq(cqe=256) failed: Connection timed out
[1738799630.257504] [ohm:3009045:0]        ib_iface.c:1059 UCX  ERROR ibv_create_cq(cqe=256) failed: Connection timed out
[1738799630.259398] [ohm:3009075:0]        ib_iface.c:1059 UCX  ERROR ibv_create_cq(cqe=256) failed: Connection timed out
[1738799630.260641] [ohm:3009012:0]        ib_iface.c:1059 UCX  ERROR ibv_create_cq(cqe=256) failed: Connection timed out
[1738799630.263410] [ohm:3009078:0]        ib_iface.c:1059 UCX  ERROR ibv_create_cq(cqe=256) failed: Connection timed out
[1738799630.273941] [ohm:3009035:0]        ib_iface.c:1059 UCX  ERROR ibv_create_cq(cqe=256) failed: Connection timed out
[1738799630.274950] [ohm:3009010:0]        ib_iface.c:1059 UCX  ERROR ibv_create_cq(cqe=256) failed: Connection timed out
[1738799630.277069] [ohm:3009020:0]        ib_iface.c:1059 UCX  ERROR ibv_create_cq(cqe=256) failed: Connection timed out
[1738799630.277784] [ohm:3008986:0]        ib_iface.c:1059 UCX  ERROR ibv_create_cq(cqe=256) failed: Connection timed out
[1738799630.278589] [ohm:3009028:0]        ib_iface.c:1059 UCX  ERROR ibv_create_cq(cqe=256) failed: Connection timed out
[1738799630.280049] [ohm:3008959:0]        ib_iface.c:1059 UCX  ERROR ibv_create_cq(cqe=256) failed: Connection timed out
[1738799630.281595] [ohm:3009052:0]        ib_iface.c:1059 UCX  ERROR ibv_create_cq(cqe=256) failed: Connection timed out
[1738799630.283079] [ohm:3009089:0]        ib_iface.c:1059 UCX  ERROR ibv_create_cq(cqe=256) failed: Connection timed out
[1738799630.289536] [ohm:3009016:0]        ib_iface.c:1059 UCX  ERROR ibv_create_cq(cqe=256) failed: Connection timed out
[1738799630.306416] [ohm:3009011:0]        ib_iface.c:1059 UCX  ERROR ibv_create_cq(cqe=256) failed: Connection timed out
[1738799630.308091] [ohm:3009054:0]        ib_iface.c:1059 UCX  ERROR ibv_create_cq(cqe=256) failed: Connection timed out
[1738799630.310267] [ohm:3009007:0]        ib_iface.c:1059 UCX  ERROR ibv_create_cq(cqe=256) failed: Connection timed out
[1738799630.312433] [ohm:3009022:0]        ib_iface.c:1059 UCX  ERROR ibv_create_cq(cqe=256) failed: Connection timed out
[1738799630.312782] [ohm:3008996:0]        ib_iface.c:1059 UCX  ERROR ibv_create_cq(cqe=256) failed: Connection timed out
[1738799630.313413] [ohm:3009032:0]        ib_iface.c:1059 UCX  ERROR ibv_create_cq(cqe=256) failed: Connection timed out
[1738799630.313684] [ohm:3009015:0]        ib_iface.c:1059 UCX  ERROR ibv_create_cq(cqe=256) failed: Connection timed out
[1738799630.313699] [ohm:3009048:0]        ib_iface.c:1059 UCX  ERROR ibv_create_cq(cqe=256) failed: Connection timed out
[1738799630.313742] [ohm:3009086:0]        ib_iface.c:1059 UCX  ERROR ibv_create_cq(cqe=256) failed: Connection timed out
[1738799630.315298] [ohm:3009017:0]        ib_iface.c:1059 UCX  ERROR ibv_create_cq(cqe=256) failed: Connection timed out
[1738799630.316508] [ohm:3009038:0]        ib_iface.c:1059 UCX  ERROR ibv_create_cq(cqe=256) failed: Connection timed out
[1738799630.317855] [ohm:3009092:0]        ib_iface.c:1059 UCX  ERROR ibv_create_cq(cqe=256) failed: Connection timed out
[1738799630.318156] [ohm:3009081:0]        ib_iface.c:1059 UCX  ERROR ibv_create_cq(cqe=256) failed: Connection timed out

--------------------------------
SUGGESTED CITATIONS FOR THIS RUN
--------------------------------

Below you find a list of papers that are relevant to this ORCA run
We neither can nor want to force you to cite these papers, but we appreciate if you do
You receive ORCA, which is the product of decades of hard work by many enthusiastic individuals, for free
The only thing we kindly ask in return is that you cite our papers,
We deeply appreciate it, if you show your appreciation for ORCA by not just citing the generic ORCA reference.

Please note that relegating all ORCA citations to the supporting information does *not* help us.
SI sections are not indexed - citations you put there will not count into any citation statistics
But we need these citations in order to attract the funding resources that allow us to do what we are doing

Therefore, if you are a happy ORCA user, please consider citing a few of the papers listed below in the main body of your paper

In addition to the list printed below, the program has created the file orca.bibtex that contains the list in bibtex format
You can import this file easily into all common literature databanks and citation aid programs


List of essential papers. We consider these as the minimum necessary citations

  1. Neese,F.
     Software update: the ORCA program system, version 5.0
     WIRES Comput. Molec. Sci., 2022 12(1)e1606
     doi.org/10.1002/wcms.1606

List of papers to cite with high priority. The work reported in these papers was absolutely
necessary for this run to complete.
Our perspective: the developers of density functionals and basis sets usually get cited in chemistry papers
Good! But without the algorithms to do something with them, the functionals or basis sets would not do anything.
Hence, in our opinion, the algorithm design and method developments papers are equally worthy of getting cited

  1. Neese,F.; Olbrich,G.
     Efficient use of the resolution of the identity approximation in time-dependent density functional calculations with hybrid density functionals
     Chem. Phys. Lett., 2002 362 170-178
     doi.org/10.1016/s0009-2614(02)01053-9
  2. Neese,F.
     An improvement of the resolution of the identity approximation for the formation of the Coulomb matrix
     J. Comp. Chem., 2003 24(14)1740-1747
     doi.org/10.1002/jcc.10318
  3. Neese,F.; Wennmohs,F.; Hansen,A.; Becker,U.
     Efficient, approximate and parallel Hartree-Fock and hybrid DFT calculations. A 'chain-of-spheres' algorithm for the Hartree-Fock exchange
     Chem. Phys., 2009 356(1-3)98-109
     doi.org/10.1016/j.chemphys.2008.10.036
  4. Petrenko,T.; Kossmann,S.; Neese,F.
     Efficient time-dependent density functional theory approximations for hybrid density functionals: Analytical gradients and parallelization
     J. Chem. Phys., 2011 134 054116
     doi.org/10.1063/1.3533441
  5. Helmich-Paris,B.; de Souza,B.; Neese,F.; Izsák,R.
     An improved chain of spheres for exchange algorithm
     J. Chem. Phys., 2021 155 104109
     doi.org/doi: 10.1063/5.0058766.
  6. Neese,F.
     The SHARK Integral Generation and Digestion System
     J. Comp. Chem., 2022  1-16
     doi.org/10.1002/jcc.26942
  7. Lehtola,S.; Steigemann,C.; Oliveira,M.; Marques,M.
     Recent developments in Libxc - A comprehensive library of functionals for density functional theory
     Software X, 2018 7 
     doi.org/10.1016/j.softx.2017.11.002
  8. Grimme,S.; Antony,J.; Ehrlich,S.; Krieg,H.
     A consistent and accurate ab initio parametrization of density functional dispersion correction (DFT-D) for the 94 elements H-Pu
     J. Chem. Phys., 2010 132 154104-XXXX
     doi.org/10.1063/1.3382344
  9. Grimme,S.; Ehrlich,S.; Goerigk,L.
     Effect of the damping function in dispersion corrected density functional theory
     J. Comput. Chem., 2011 32(7)1456-1465
     doi.org/10.1002/jcc.21759

List of suggested additional citations. These are papers that are important in the 'surrounding' of 
of this run, or papers that preceded the highly important papers. If you like your results we are grateful for a citation.

  1. Izsak,R.; Neese,F.
     An overlap fitted chain of spheres exchange method
     J. Chem. Phys., 2011 135 144105
     doi.org/10.1063/1.3646921
  2. Izsak,R.; Hansen,A.; Neese,F.
     The resolution of identity and chain of spheres approximations for the LPNO-CCSD singles Fock term
     Molec. Phys., 2012 110 2413-2417
     doi.org/10.1080/00268976.2012.687466
  3. Neese,F.
     The ORCA program system
     WIRES Comput. Molec. Sci., 2012 2(1)73-78
     doi.org/10.1002/wcms.81
  4. Izsak,R.; Neese,F.; Klopper,W.
     Robust fitting techniques in the chain of spheres approximation to the Fock exchange: The role of the complementary space
     J. Chem. Phys., 2013 139 
     doi.org/10.1063/1.4819264
  5. Neese,F.
     Software update: the ORCA program system, version 4.0
     WIRES Comput. Molec. Sci., 2018 8(1)1-6
     doi.org/10.1002/wcms.1327
  6. Neese,F.; Wennmohs,F.; Becker,U.; Riplinger,C.
     The ORCA quantum chemistry program package
     J. Chem. Phys., 2020 152 Art. No. L224108
     doi.org/10.1063/5.0004608

List of optional additional citations

  1. Neese,F.
     Approximate second-order SCF convergence for spin unrestricted wavefunctions
     Chem. Phys. Lett., 2000 325(1-3)93-98
     doi.org/10.1016/s0009-2614(00)00662-x

Timings for individual modules:

Sum of individual times          ...      286.372 sec (=   4.773 min)
Startup calculation              ...        6.231 sec (=   0.104 min)   2.2 %
SCF iterations                   ...      125.455 sec (=   2.091 min)  43.8 %
Property integrals               ...        4.153 sec (=   0.069 min)   1.5 %
Property calculations            ...        3.380 sec (=   0.056 min)   1.2 %
CIS module                       ...      147.153 sec (=   2.453 min)  51.4 %
                             ****ORCA TERMINATED NORMALLY****
TOTAL RUN TIME: 0 days 0 hours 4 minutes 48 seconds 353 msec
