
                                 *****************
                                 * O   R   C   A *
                                 *****************

                                            #,                                       
                                            ###                                      
                                            ####                                     
                                            #####                                    
                                            ######                                   
                                           ########,                                 
                                     ,,################,,,,,                         
                               ,,#################################,,                 
                          ,,##########################################,,             
                       ,#########################################, ''#####,          
                    ,#############################################,,   '####,        
                  ,##################################################,,,,####,       
                ,###########''''           ''''###############################       
              ,#####''   ,,,,##########,,,,          '''####'''          '####       
            ,##' ,,,,###########################,,,                        '##       
           ' ,,###''''                  '''############,,,                           
         ,,##''                                '''############,,,,        ,,,,,,###''
      ,#''                                            '''#######################'''  
     '                                                          ''''####''''         
             ,#######,   #######,   ,#######,      ##                                
            ,#'     '#,  ##    ##  ,#'     '#,    #''#        ,####,   ,####,        
            ##       ##  ##   ,#'  ##            #'  '#       #'       #'  '#        
            ##       ##  #######   ##           ,######,      #####,   #    #        
            '#,     ,#'  ##    ##  '#,     ,#' ,#      #,     #,   #   #,  ,#        
             '#######'   ##     ##  '#######'  #'      '#     '####' # '####'        



                #########################################################
                #                        -***-                          #
                #          Department of theory and spectroscopy        #
                #                                                       #
                #                      Frank Neese                      #
                #                                                       #
                #     Directorship, Architecture, Infrastructure        #
                #                    SHARK, DRIVERS                     #
                #        Core code/Algorithms in most modules           #
                #                                                       #
                #        Max Planck Institute fuer Kohlenforschung      #
                #                Kaiser Wilhelm Platz 1                 #
                #                 D-45470 Muelheim/Ruhr                 #
                #                      Germany                          #
                #                                                       #
                #                  All rights reserved                  #
                #                        -***-                          #
                #########################################################


                         Program Version 6.0.0  -   RELEASE  -


 With contributions from (in alphabetic order):
   Daniel Aravena         : Magnetic Suceptibility
   Michael Atanasov       : Ab Initio Ligand Field Theory (pilot matlab implementation)
   Alexander A. Auer      : GIAO ZORA, VPT2 properties, NMR spectrum
   Ute Becker             : All parallelization in ORCA, NUMFREQ, NUMCALC
   Giovanni Bistoni       : ED, misc. LED, open-shell LED, HFLD
   Martin Brehm           : Molecular dynamics
   Dmytro Bykov           : pre 5.0 version of the SCF Hessian
   Marcos Casanova-Páez   : Triplet and SCS-CIS(D). UHF-(DLPNO)-IP/EA/STEOM-CCSD. UHF-CVS-IP/STEOM-CCSD
   Vijay G. Chilkuri      : MRCI spin determinant printing, contributions to CSF-ICE
   Pauline Colinet        : FMM embedding
   Dipayan Datta          : RHF DLPNO-CCSD density
   Achintya Kumar Dutta   : EOM-CC, STEOM-CC
   Nicolas Foglia         : Exact transition moments, OPA infrastructure, MCD improvements
   Dmitry Ganyushin       : Spin-Orbit,Spin-Spin,Magnetic field MRCI
   Miquel Garcia          : C-PCM and meta-GGA Hessian, CCSD/C-PCM, Gaussian charge scheme
   Tiago L. C. Gouveia    : GS-ROHF, GS-ROCIS
   Yang Guo               : DLPNO-NEVPT2, F12-NEVPT2, CIM, IAO-localization
   Andreas Hansen         : Spin unrestricted coupled pair/coupled cluster methods
   Ingolf Harden          : AUTO-CI MPn and infrastructure 
   Benjamin Helmich-Paris : MC-RPA, TRAH-(SCF,CASSCF), AVAS, COSX integrals, SCF dyn. polar.
   Lee Huntington         : MR-EOM, pCC
   Robert Izsak           : Overlap fitted RIJCOSX, COSX-SCS-MP3, EOM
   Riya Kayal             : Wick's Theorem for AUTO-CI, AUTO-CI UHF-CCSDT
   Emily Kempfer          : AUTO-CI, RHF CISDT and CCSDT
   Christian Kollmar      : KDIIS, OOCD, Brueckner-CCSD(T), CCSD density, CASPT2, CASPT2-K, improved NEVPT2
   Axel Koslowski         : Symmetry handling
   Simone Kossmann        : Meta GGA functionals, TD-DFT gradient, OOMP2, (MP2 Hessian; deprecated post 5.0)
   Lucas Lang             : DCDCAS
   Marvin Lechner         : AUTO-CI (C++ implementation), FIC-MRCC
   Spencer Leger          : CASSCF response
   Dagmar Lenk            : GEPOL surface, SMD, ORCA-2-JSON
   Dimitrios Liakos       : Extrapolation schemes; Compound Job, initial MDCI parallelization
   Dimitrios Manganas     : Further ROCIS development; embedding schemes. LFT, Crystal Embedding
   Dimitrios Pantazis     : SARC Basis sets
   Anastasios Papadopoulos: AUTO-CI, single reference methods and gradients
   Taras Petrenko         : pre 6.0 DFT Hessian and TD-DFT gradient, (ASA, deprecated), ECA, 1-Electron XAS/XES, NRVS
   Peter Pinski           : DLPNO-MP2, DLPNO-MP2 Gradient
   Christoph Reimann      : Effective Core Potentials
   Marius Retegan         : Local ZFS, SOC
   Christoph Riplinger    : Optimizer, TS searches, QM/MM, DLPNO-CCSD(T), (RO)-DLPNO pert. Triples
   Michael Roemelt        : Original ROCIS implementation
   Masaaki Saitow         : Open-shell DLPNO-CCSD energy and density
   Barbara Sandhoefer     : DKH picture change effects
   Kantharuban Sivalingam : CASSCF convergence/infrastructure, NEVPT2 and variants, FIC-MRCI
   Bernardo de Souza      : ESD, SOC TD-DFT
   Georgi Stoychev        : AutoAux, RI-MP2 NMR, DLPNO-MP2 response, X2C
   Van Anh Tran           : RI-MP2 g-tensors
   Willem Van den Heuvel  : Paramagnetic NMR
   Zikuan Wang            : NOTCH, Electric field optimization 
   Frank Wennmohs         : Technical directorship and infrastructure
   Hang Xu                : AUTO-CI-Response properties 


 We gratefully acknowledge several colleagues who have allowed us to
 interface, adapt or use parts of their codes:
   Stefan Grimme, W. Hujo, H. Kruse, P. Pracht,  : VdW corrections, initial TS optimization,
                  C. Bannwarth, S. Ehlert,         DFT functionals, gCP, sTDA/sTD-DF
                  L. Wittmann, M. Mueller
   Ed Valeev, F. Pavosevic, A. Kumar             : LibInt (2-el integral package), F12 methods
   Garnet Chan, S. Sharma, J. Yang, R. Olivares  : DMRG
   Ulf Ekstrom                                   : XCFun DFT Library
   Mihaly Kallay                                 : mrcc  (arbitrary order and MRCC methods)
   Frank Weinhold                                : gennbo (NPA and NBO analysis)
   Simon Mueller                                 : openCOSMO-RS
   Christopher J. Cramer and Donald G. Truhlar   : smd solvation model
   Lars Goerigk                                  : TD-DFT with DH, B97 family of functionals
   V. Asgeirsson, H. Jonsson                     : NEB implementation
   FAccTs GmbH                                   : IRC, NEB, NEB-TS, DLPNO-Multilevel, CI-OPT
                                                   MM, QMMM, 2- and 3-layer-ONIOM, Crystal-QMMM,
                                                   LR-CPCM, SF, NACMEs, symmetry and pop. for TD-DFT,
                                                   nearIR, NL-DFT gradient (VV10), updates on ESD,
                                                   ML-optimized integration grids, MBIS, APM,
                                                   GOAT, DOCKER, SOLVATOR, interface openCOSMO-RS
   S Lehtola, MJT Oliveira, MAL Marques          : LibXC Library
   Liviu Ungur et al                             : ANISO software


 Your calculation uses the libint2 library for the computation of 2-el integrals
 For citations please refer to: http://libint.valeyev.net

 Your ORCA version has been built with support for libXC version: 6.2.2
 For citations please refer to: https://libxc.gitlab.io

 This ORCA versions uses:
   CBLAS   interface :  Fast vector & matrix operations
   LAPACKE interface :  Fast linear algebra routines
   SCALAPACK package :  Parallel linear algebra routines
   Shared memory     :  Shared parallel matrices
   BLAS/LAPACK       :  OpenBLAS 0.3.27  USE64BITINT DYNAMIC_ARCH NO_AFFINITY Zen SINGLE_THREADED
        Core in use  :  Zen
   Copyright (c) 2011-2014, The OpenBLAS Project


Your calculation utilizes the atom-pairwise dispersion correction
with the Becke-Johnson damping scheme (D3BJ)


Warning: RI is on but no J-basis has been assigned. Assigning Def2/J (nothing to worry about!)
================================================================================

----- Orbital basis set information -----
Your calculation utilizes the basis: def2-TZVPPD
   F. Weigend and R. Ahlrichs, Phys. Chem. Chem. Phys. 7, 3297 (2005).
   D. Rappoport and F. Furche, J. Chem. Phys. 133, 134105 (2010)
   D. Rappoport, J. Chem. Phys. 155, 124102 (2021).

----- AuxJ basis set information -----
Your calculation utilizes the auxiliary basis: def2/J
   F. Weigend, Phys. Chem. Chem. Phys. 8, 1057 (2006).

================================================================================
                                        WARNINGS
                       Please study these warnings very carefully!
================================================================================

Using LibXC functional ID 531 : wB97M-V exchange-correlation functional
[ 1]  N. Mardirossian and M. Head-Gordon.,  J. Chem. Phys. 144, 214110 (2016)
Using LibXC functional ID 531 : wB97M-V exchange-correlation functional
[ 1]  N. Mardirossian and M. Head-Gordon.,  J. Chem. Phys. 144, 214110 (2016)

WARNING: B97M-V or wB97M-V functional requested.
  ===> : libXC variant has now been activated.
         Any manually given DFX/HFX/RangeSep scaling parameters are IGNORED!

Your calculation utilizes LibXC
 by S Lehtola, C Steigemann, MJT Oliveira & MAL Marques
Please cite in your paper:
 S Lehtola, C Steigemann, MJT Oliveira & MAL Marques, SoftwareX, 7, (2018), 1.
   


WARNING: your system is open-shell and RHF/RKS was chosen
  ===> : WILL SWITCH to UHF/UKS

INFO   : Checking CIS options ...

WARNING: CIS/ROCIS methods need fully converged wavefunctions
  ===> : Setting SCFConvForced true
         You can overwrite this default with %scf ConvForced false 


================================================================================
                                       INPUT FILE
================================================================================
NAME = orca.inp
|  1> ! EnGrad wB97M-D3BJ def2-TZVPPD 
|  2> %pal nprocs 8 end%pal nprocs 16 end 
|  3> %tddft 
|  4>  sf true 
|  5>  nroots 2 Iroot 1 end 
|  6> *xyz 0 3 
|  7> O   0.35384981752381 1.01963273130395 -0.00256153973431
|  8> C   0.62631338098167 -0.2913040530629 -0.00063359714338
|  9> C   -0.74132947583341 -0.71454549746264 0.00052292775363
| 10> H   1.18117948289384 -0.63362150137375 0.88428985723958
| 11> H   1.18201245216017 -0.63595757975724 -0.88403377547103
| 12> H   -1.30097403570707 -0.73336112838688 -0.92358201202676
| 13> H   -1.29885162201901 -0.72924297126054 0.92599813938228
| 14> *
| 15> 
| 16>                          ****END OF INPUT****
================================================================================

                     *******************************
                     * Energy+Gradient Calculation *
                     *******************************

---------------------------------
CARTESIAN COORDINATES (ANGSTROEM)
---------------------------------
  O      0.353850    1.019633   -0.002562
  C      0.626313   -0.291304   -0.000634
  C     -0.741329   -0.714545    0.000523
  H      1.181179   -0.633622    0.884290
  H      1.182012   -0.635958   -0.884034
  H     -1.300974   -0.733361   -0.923582
  H     -1.298852   -0.729243    0.925998

----------------------------
CARTESIAN COORDINATES (A.U.)
----------------------------
  NO LB      ZA    FRAG     MASS         X           Y           Z
   0 O     8.0000    0    15.999    0.668679    1.926827   -0.004841
   1 C     6.0000    0    12.011    1.183561   -0.550485   -0.001197
   2 C     6.0000    0    12.011   -1.400910   -1.350295    0.000988
   3 H     1.0000    0     1.008    2.232106   -1.197371    1.671066
   4 H     1.0000    0     1.008    2.233680   -1.201786   -1.670582
   5 H     1.0000    0     1.008   -2.458485   -1.385852   -1.745317
   6 H     1.0000    0     1.008   -2.454474   -1.378070    1.749883

--------------------------------
INTERNAL COORDINATES (ANGSTROEM)
--------------------------------
 O      0   0   0     0.000000000000     0.00000000     0.00000000
 C      1   0   0     1.338953084683     0.00000000     0.00000000
 C      2   1   0     1.431636001784    95.45454112     0.00000000
 H      2   1   3     1.099157471242   114.12965235   241.86615278
 H      2   1   3     1.099082975139   114.12628023   118.23439938
 H      3   2   1     1.080521171051   119.95006660    80.85850280
 H      3   2   1     1.080532890088   119.84261783   279.17938760

---------------------------
INTERNAL COORDINATES (A.U.)
---------------------------
 O      0   0   0     0.000000000000     0.00000000     0.00000000
 C      1   0   0     2.530254636219     0.00000000     0.00000000
 C      2   1   0     2.705399966834    95.45454112     0.00000000
 H      2   1   3     2.077106598700   114.12965235   241.86615278
 H      2   1   3     2.076965821468   114.12628023   118.23439938
 H      3   2   1     2.041889095191   119.95006660    80.85850280
 H      3   2   1     2.041911240961   119.84261783   279.17938760

---------------------
BASIS SET INFORMATION
---------------------
There are 3 groups of distinct atoms

 Group   1 Type O   : 12s7p3d1f contracted to 6s4p3d1f pattern {621111/4111/111/1}
 Group   2 Type C   : 12s6p3d1f contracted to 6s3p3d1f pattern {621111/411/111/1}
 Group   3 Type H   : 5s3p1d contracted to 3s3p1d pattern {311/111/1}

Atom   0O    basis set group =>   1
Atom   1C    basis set group =>   2
Atom   2C    basis set group =>   2
Atom   3H    basis set group =>   3
Atom   4H    basis set group =>   3
Atom   5H    basis set group =>   3
Atom   6H    basis set group =>   3
---------------------------------
AUXILIARY/J BASIS SET INFORMATION
---------------------------------
There are 3 groups of distinct atoms

 Group   1 Type O   : 12s5p4d2f1g contracted to 6s4p3d1f1g pattern {711111/2111/211/2/1}
 Group   2 Type C   : 12s5p4d2f1g contracted to 6s4p3d1f1g pattern {711111/2111/211/2/1}
 Group   3 Type H   : 5s2p1d contracted to 3s1p1d pattern {311/2/1}

Atom   0O    basis set group =>   1
Atom   1C    basis set group =>   2
Atom   2C    basis set group =>   2
Atom   3H    basis set group =>   3
Atom   4H    basis set group =>   3
Atom   5H    basis set group =>   3
Atom   6H    basis set group =>   3
[1740996955.634037] [ohm:3148620:0]        ib_iface.c:1059 UCX  ERROR ibv_create_cq(cqe=256) failed: Connection timed out
[1740996955.634148] [ohm:3148618:0]        ib_iface.c:1059 UCX  ERROR ibv_create_cq(cqe=256) failed: Connection timed out
[1740996955.634181] [ohm:3148616:0]        ib_iface.c:1059 UCX  ERROR ibv_create_cq(cqe=256) failed: Connection timed out
[1740996955.634425] [ohm:3148622:0]        ib_iface.c:1059 UCX  ERROR ibv_create_cq(cqe=256) failed: Connection timed out
[1740996955.635847] [ohm:3148625:0]        ib_iface.c:1059 UCX  ERROR ibv_create_cq(cqe=256) failed: Connection timed out
[1740996955.637825] [ohm:3148628:0]        ib_iface.c:1059 UCX  ERROR ibv_create_cq(cqe=256) failed: Connection timed out
[1740996955.642587] [ohm:3148623:0]        ib_iface.c:1059 UCX  ERROR ibv_create_cq(cqe=256) failed: Connection timed out
[1740996955.642611] [ohm:3148615:0]        ib_iface.c:1059 UCX  ERROR ibv_create_cq(cqe=256) failed: Connection timed out
[1740996955.642611] [ohm:3148619:0]        ib_iface.c:1059 UCX  ERROR ibv_create_cq(cqe=256) failed: Connection timed out
[1740996955.642749] [ohm:3148621:0]        ib_iface.c:1059 UCX  ERROR ibv_create_cq(cqe=256) failed: Connection timed out
[1740996955.642757] [ohm:3148617:0]        ib_iface.c:1059 UCX  ERROR ibv_create_cq(cqe=256) failed: Connection timed out
[1740996955.650417] [ohm:3148626:0]        ib_iface.c:1059 UCX  ERROR ibv_create_cq(cqe=256) failed: Connection timed out
[1740996955.652498] [ohm:3148630:0]        ib_iface.c:1059 UCX  ERROR ibv_create_cq(cqe=256) failed: Connection timed out
[1740996955.654700] [ohm:3148643:0]        ib_iface.c:1059 UCX  ERROR ibv_create_cq(cqe=256) failed: Connection timed out
[1740996955.660349] [ohm:3148634:0]        ib_iface.c:1059 UCX  ERROR ibv_create_cq(cqe=256) failed: Connection timed out
[1740996955.662956] [ohm:3148639:0]        ib_iface.c:1059 UCX  ERROR ibv_create_cq(cqe=256) failed: Connection timed out


           ************************************************************
           *        Program running with 16 parallel MPI-processes    *
           *              working on a common directory               *
           ************************************************************
------------------------------------------------------------------------------
                             ORCA STARTUP CALCULATIONS
                           -- RI-GTO INTEGRALS CHOSEN --
------------------------------------------------------------------------------
------------------------------------------------------------------------------
                   ___                                                        
                  /   \      - P O W E R E D   B Y -                         
                 /     \                                                     
                 |  |  |   _    _      __       _____    __    __             
                 |  |  |  | |  | |    /  \     |  _  \  |  |  /  |          
                  \  \/   | |  | |   /    \    | | | |  |  | /  /          
                 / \  \   | |__| |  /  /\  \   | |_| |  |  |/  /          
                |  |  |   |  __  | /  /__\  \  |    /   |      \           
                |  |  |   | |  | | |   __   |  |    \   |  |\   \          
                \     /   | |  | | |  |  |  |  | |\  \  |  | \   \       
                 \___/    |_|  |_| |__|  |__|  |_| \__\ |__|  \__/        
                                                                              
                      - O R C A' S   B I G   F R I E N D -                    
                                      &                                       
                       - I N T E G R A L  F E E D E R -                       
                                                                              
 v1 FN, 2020, v2 2021, v3 2022-2024                                           
------------------------------------------------------------------------------


----------------------
SHARK INTEGRAL PACKAGE
----------------------

Number of atoms                             ...      7
Number of basis functions                   ...    182
Number of shells                            ...     68
Maximum angular momentum                    ...      3
Integral batch strategy                     ... SHARK/LIBINT Hybrid
RI-J (if used) integral strategy            ... SPLIT-RIJ (Revised 2003 algorithm where possible)
Printlevel                                  ...      1
Contraction scheme used                     ... SEGMENTED contraction
Prescreening option                         ... SCHWARTZ
   Thresh                                   ... 2.500e-11
   Tcut                                     ... 2.500e-12
   Tpresel                                  ... 2.500e-12 
Coulomb Range Separation                    ... NOT USED
Exchange Range Separation                   ... Long Range
   Mu parameter                             ... 3.000e-01
   Scaling (regular/separated)              ... 1.500e-01 8.500e-01
Multipole approximations                    ... NOT USED
Finite Nucleus Model                        ... NOT USED
CABS basis                                  ... NOT available
Auxiliary Coulomb fitting basis             ... AVAILABLE
   # of basis functions in Aux-J            ...    191
   # of shells in Aux-J                     ...     65
   Maximum angular momentum in Aux-J        ...      4
Auxiliary J/K fitting basis                 ... NOT available
Auxiliary Correlation fitting basis         ... NOT available
Auxiliary 'external' fitting basis          ... NOT available

Checking pre-screening integrals            ... done (  0.0 sec) Dimension = 68
Check shell pair data                       ... done (  0.0 sec)
Shell pair information
Shell pair cut-off parameter TPreSel        ...   2.5e-12
Total number of shell pairs                 ...      2346
Shell pairs after pre-screening             ...      2335
Total number of primitive shell pairs       ...      5434
Primitive shell pairs kept                  ...      4868
          la=0 lb=0:    457 shell pairs
          la=1 lb=0:    658 shell pairs
          la=1 lb=1:    253 shell pairs
          la=2 lb=0:    389 shell pairs
          la=2 lb=1:    286 shell pairs
          la=2 lb=2:     91 shell pairs
          la=3 lb=0:     90 shell pairs
          la=3 lb=1:     66 shell pairs
          la=3 lb=2:     39 shell pairs
          la=3 lb=3:      6 shell pairs

Calculating one electron integrals          ... done (  0.0 sec)
Calculating RI/J V-Matrix + Cholesky decomp.... done (  0.0 sec)
Calculating Nuclear repulsion               ... done (  0.0 sec) ENN=     70.991884485162 Eh

Diagonalization of the overlap matrix:
Smallest eigenvalue                        ... 1.476e-05
Time for diagonalization                   ...    0.003 sec
Threshold for overlap eigenvalues          ... 1.000e-07
Number of eigenvalues below threshold      ... 0
Time for construction of square roots      ...    0.001 sec
Total time needed                          ...    0.005 sec

-------------------
DFT GRID GENERATION
-------------------

General Integration Accuracy     IntAcc      ... 4.388
Radial Grid Type                 RadialGrid  ... OptM3 with GC (2021)
Angular Grid (max. ang.)         AngularGrid ... 4 (Lebedev-302)
Angular grid pruning method      GridPruning ... 4 (adaptive)
Weight generation scheme         WeightScheme... mBecke (2022)
Basis function cutoff            BFCut       ... 1.0000e-11
Integration weight cutoff        WCut        ... 1.0000e-14
Partially contracted basis set               ... off
Rotationally invariant grid construction     ... off
Angular grids for H and He will be reduced by one unit
Diffuse basis detected: some atoms will have their outermost
                        angular grid increased by 1.

Total number of grid points                  ...    33076
Total number of batches                      ...      520
Average number of points per batch           ...       63
Average number of grid points per atom       ...     4725

--------------------
COSX GRID GENERATION
--------------------

GRIDX 1
-------
General Integration Accuracy     IntAcc      ... 3.816
Radial Grid Type                 RadialGrid  ... OptM3 with GC (2021)
Angular Grid (max. ang.)         AngularGrid ... 1 (Lebedev-50)
Angular grid pruning method      GridPruning ... 4 (adaptive)
Weight generation scheme         WeightScheme... mBecke (2022)
Basis function cutoff            BFCut       ... 1.0000e-11
Integration weight cutoff        WCut        ... 1.0000e-14
Partially contracted basis set               ... on
Rotationally invariant grid construction     ... off
Angular grids for H and He will be reduced by one unit
Diffuse basis detected: some atoms will have their outermost
                        angular grid increased by 1.

Total number of grid points                  ...     4171
Total number of batches                      ...       36
Average number of points per batch           ...      115
Average number of grid points per atom       ...      596
UseSFitting                                  ... on

GRIDX 2
-------
General Integration Accuracy     IntAcc      ... 4.020
Radial Grid Type                 RadialGrid  ... OptM3 with GC (2021)
Angular Grid (max. ang.)         AngularGrid ... 2 (Lebedev-110)
Angular grid pruning method      GridPruning ... 4 (adaptive)
Weight generation scheme         WeightScheme... mBecke (2022)
Basis function cutoff            BFCut       ... 1.0000e-11
Integration weight cutoff        WCut        ... 1.0000e-14
Partially contracted basis set               ... on
Rotationally invariant grid construction     ... off
Angular grids for H and He will be reduced by one unit
Diffuse basis detected: some atoms will have their outermost
                        angular grid increased by 1.

Total number of grid points                  ...    10247
Total number of batches                      ...       84
Average number of points per batch           ...      121
Average number of grid points per atom       ...     1464
UseSFitting                                  ... on

GRIDX 3
-------
General Integration Accuracy     IntAcc      ... 4.338
Radial Grid Type                 RadialGrid  ... OptM3 with GC (2021)
Angular Grid (max. ang.)         AngularGrid ... 3 (Lebedev-194)
Angular grid pruning method      GridPruning ... 4 (adaptive)
Weight generation scheme         WeightScheme... mBecke (2022)
Basis function cutoff            BFCut       ... 1.0000e-11
Integration weight cutoff        WCut        ... 1.0000e-14
Partially contracted basis set               ... on
Rotationally invariant grid construction     ... off
Angular grids for H and He will be reduced by one unit
Diffuse basis detected: some atoms will have their outermost
                        angular grid increased by 1.

Total number of grid points                  ...    23087
Total number of batches                      ...      184
Average number of points per batch           ...      125
Average number of grid points per atom       ...     3298
UseSFitting                                  ... on
Initializing property integral containers    ... done (  0.0 sec)

SHARK setup successfully completed in   0.3 seconds

Maximum memory used throughout the entire STARTUP-calculation: 13.8 MB
[1740996956.621400] [ohm:3148702:0]        ib_iface.c:1059 UCX  ERROR ibv_create_cq(cqe=256) failed: Connection timed out
[1740996956.621422] [ohm:3148706:0]        ib_iface.c:1059 UCX  ERROR ibv_create_cq(cqe=256) failed: Connection timed out
[1740996956.639984] [ohm:3148704:0]        ib_iface.c:1059 UCX  ERROR ibv_create_cq(cqe=256) failed: Connection timed out
[1740996956.644049] [ohm:3148707:0]        ib_iface.c:1059 UCX  ERROR ibv_create_cq(cqe=256) failed: Connection timed out
[1740996956.644049] [ohm:3148703:0]        ib_iface.c:1059 UCX  ERROR ibv_create_cq(cqe=256) failed: Connection timed out
[1740996956.644101] [ohm:3148705:0]        ib_iface.c:1059 UCX  ERROR ibv_create_cq(cqe=256) failed: Connection timed out
[1740996956.644563] [ohm:3148701:0]        ib_iface.c:1059 UCX  ERROR ibv_create_cq(cqe=256) failed: Connection timed out
[1740996956.650326] [ohm:3148714:0]        ib_iface.c:1059 UCX  ERROR ibv_create_cq(cqe=256) failed: Connection timed out
[1740996956.661358] [ohm:3148720:0]        ib_iface.c:1059 UCX  ERROR ibv_create_cq(cqe=256) failed: Connection timed out
[1740996956.661465] [ohm:3148709:0]        ib_iface.c:1059 UCX  ERROR ibv_create_cq(cqe=256) failed: Connection timed out
[1740996956.662441] [ohm:3148711:0]        ib_iface.c:1059 UCX  ERROR ibv_create_cq(cqe=256) failed: Connection timed out
[1740996956.662513] [ohm:3148708:0]        ib_iface.c:1059 UCX  ERROR ibv_create_cq(cqe=256) failed: Connection timed out
[1740996956.666140] [ohm:3148713:0]        ib_iface.c:1059 UCX  ERROR ibv_create_cq(cqe=256) failed: Connection timed out
[1740996956.666231] [ohm:3148716:0]        ib_iface.c:1059 UCX  ERROR ibv_create_cq(cqe=256) failed: Connection timed out
[1740996956.690891] [ohm:3148730:0]        ib_iface.c:1059 UCX  ERROR ibv_create_cq(cqe=256) failed: Connection timed out
[1740996956.692850] [ohm:3148727:0]        ib_iface.c:1059 UCX  ERROR ibv_create_cq(cqe=256) failed: Connection timed out


           ************************************************************
           *        Program running with 16 parallel MPI-processes    *
           *              working on a common directory               *
           ************************************************************
-------------------------------------------------------------------------------
                                 ORCA GUESS
                   Start orbitals & Density for SCF / CASSCF
-------------------------------------------------------------------------------

------------
SCF SETTINGS
------------
Hamiltonian:
 Density Functional     Method          .... DFT(GTOs)
  Functional kind                       .... Exchange-Correlation
  Functional name                       .... wB97M-V exchange-correlation functional
  Functional family                     .... Hybrid MGGA
  Functional refs                              
    [ 0] N. Mardirossian and M. Head-Gordon.,  J. Chem. Phys. 144, 214110 (2016), doi: 10.1063/1.4952647
  Fraction of HF Exchange (short range) .... 0.1500
  Fraction of HF Exchange (long range)  .... 1.0000
  Range separation parameter mu         .... 0.3000
  Functional external parameters        .... 17
    Parameter  0 _cx00      =  8.500000e-01 : u^00 coefficient for exchange
    Parameter  1 _cx01      =  1.007000e+00 : u^01 coefficient for exchange
    Parameter  2 _cx10      =  2.590000e-01 : u^10 coefficient for exchange
    Parameter  3 _css00     =  4.430000e-01 : u^00 coefficient for same-spin correlation
    Parameter  4 _css04     = -1.437000e+00 : u^04 coefficient for same-spin correlation
    Parameter  5 _css10     = -4.535000e+00 : u^10 coefficient for same-spin correlation
    Parameter  6 _css20     = -3.390000e+00 : u^20 coefficient for same-spin correlation
    Parameter  7 _css43     =  4.278000e+00 : u^43 coefficient for same-spin correlation
    Parameter  8 _cos00     =  1.000000e+00 : u^00 coefficient for opposite-spin correlation
    Parameter  9 _cos10     =  1.358000e+00 : u^10 coefficient for opposite-spin correlation
    Parameter 10 _cos20     =  2.924000e+00 : u^20 coefficient for opposite-spin correlation
    Parameter 11 _cos21     = -8.812000e+00 : u^21 coefficient for opposite-spin correlation
    Parameter 12 _cos60     = -1.390000e+00 : u^60 coefficient for opposite-spin correlation
    Parameter 13 _cos61     =  9.142000e+00 : u^61 coefficient for opposite-spin correlation
    Parameter 14 _alpha     =  1.000000e+00 : fraction of HF exchange
    Parameter 15 _beta      = -8.500000e-01 : fraction of short-range exchange
    Parameter 16 _omega     =  3.000000e-01 : range-separation constant
 Long-range corrected/Screened/Range-Separated Hybrid DFT is turned on
   Amount of maximum screened exact exchange              ....  0.850000
   Range separation parameter mu (erf(mu*r12)/r12)        ....  0.300000
 RI-approximation to the Coulomb term is turned on
   Number of AuxJ basis functions       .... 191
   RIJ-COSX (HFX calculated with COS-X)).... on


General Settings:
 Integral files         IntName         .... orca
 Hartree-Fock type      HFTyp           .... UHF
 Total Charge           Charge          ....    0
 Multiplicity           Mult            ....    3
 Number of Electrons    NEL             ....   24
 Basis Dimension        Dim             ....  182
 Nuclear Repulsion      ENuc            ....     70.9918844852 Eh

Convergence Acceleration:
 AO-DIIS                CNVDIIS         .... on
   Start iteration      DIISMaxIt       ....    12
   Startup error        DIISStart       ....  0.200000
   # of expansion vecs  DIISMaxEq       ....     5
   Bias factor          DIISBfac        ....   1.050
   Max. coefficient     DIISMaxC        ....  10.000
 MO-DIIS                CNVKDIIS        .... off
 Trust-Rad. Augm. Hess. CNVTRAH         .... auto
   Auto Start mean grad. ratio tolernc. ....  1.125000
   Auto Start start iteration           ....    50
   Auto Start num. interpolation iter.  ....    10
   Max. Number of Micro iterations      ....    24
   Max. Number of Macro iterations      .... Maxiter - #DIIS iter
   Number of Davidson start vectors     ....     2
   Converg. threshold    (grad. norm)   ....   1.000e-05
   Grad. Scal. Fac. for Micro threshold ....   0.100
   Minimum threshold for Micro iter.    ....   1.000e-02
   NR start threshold (gradient norm)   ....   1.000e-04
   Initial trust radius                 ....   0.400
   Minimum AH scaling param. (alpha)    ....   1.000
   Maximum AH scaling param. (alpha)    .... 1000.000
   Quad. conv. algorithm                .... NR
   White noise on init. David. guess    .... on
   Maximum white noise                  ....   0.010
   Pseudo random numbers                .... off
   Inactive MOs                         .... canonical
   Orbital update algorithm             .... Taylor
   Preconditioner                       .... Diag
   Full preconditioner red. dimension   ....   250
 SOSCF                  CNVSOSCF        .... on
   Start iteration      SOSCFMaxIt      ....   150
   Startup grad/error   SOSCFStart      ....  0.003300
   Hessian update       SOSCFHessUp     .... L-BFGS
 Level Shifting         CNVShift        .... on
   Level shift para.    LevelShift      ....    0.2500
   Turn off err/grad.   ShiftErr        ....    0.0010
 Zerner damping         CNVZerner       .... off
 Static damping         CNVDamp         .... on
   Fraction old density DampFac         ....    0.7000
   Max. Damping (<1)    DampMax         ....    0.9800
   Min. Damping (>=0)   DampMin         ....    0.0000
   Turn off err/grad.   DampErr         ....    0.1000

SCF Procedure:
 Maximum # iterations   MaxIter         ....   125
 SCF integral mode      SCFMode         .... Direct
   Integral package                     .... SHARK and LIBINT hybrid scheme
 Reset frequency        DirectResetFreq ....    20
 Integral Threshold     Thresh          ....  2.500e-11 Eh
 Primitive CutOff       TCut            ....  2.500e-12 Eh

Convergence Tolerance:
 Convergence Check Mode ConvCheckMode   .... Total+1el-Energy
 Convergence forced     ConvForced      .... 1
 Energy Change          TolE            ....  1.000e-08 Eh
 1-El. energy change                    ....  1.000e-05 Eh
 Orbital Gradient       TolG            ....  1.000e-05
 Orbital Rotation angle TolX            ....  1.000e-05
 DIIS Error             TolErr          ....  5.000e-07

------------------------------
INITIAL GUESS: MODEL POTENTIAL
------------------------------
Loading Hartree-Fock densities                     ... done
Calculating cut-offs                               ... done
Initializing the effective Hamiltonian             ... done
Setting up the integral package (SHARK)            ... done
Starting the Coulomb interaction                   ... done (   0.0 sec)
Making the grid                                    ... done (   0.0 sec)
Mapping shells                                     ... done
Starting the XC term evaluation                    ... done (   0.0 sec)
  promolecular density results
     # of electrons  =     23.997421717
     EX              =    -19.495087022
     EC              =     -0.771706406
     EX+EC           =    -20.266793428
Transforming the Hamiltonian                       ... done (   0.0 sec)
Diagonalizing the Hamiltonian                      ... done (   0.0 sec)
Back transforming the eigenvectors                 ... done (   0.0 sec)
Now organizing SCF variables                       ... done
                      ------------------
                      INITIAL GUESS DONE (   0.1 sec)
                      ------------------
             **** ENERGY FILE WAS UPDATED (orca.en.tmp) ****
Finished Guess after   0.5 sec
Maximum memory used throughout the entire GUESS-calculation: 9.7 MB
[1740996957.413538] [ohm:3148788:0]        ib_iface.c:1059 UCX  ERROR ibv_create_cq(cqe=256) failed: Connection timed out
[1740996957.413568] [ohm:3148790:0]        ib_iface.c:1059 UCX  ERROR ibv_create_cq(cqe=256) failed: Connection timed out
[1740996957.429376] [ohm:3148786:0]        ib_iface.c:1059 UCX  ERROR ibv_create_cq(cqe=256) failed: Connection timed out
[1740996957.430265] [ohm:3148798:0]        ib_iface.c:1059 UCX  ERROR ibv_create_cq(cqe=256) failed: Connection timed out
[1740996957.430305] [ohm:3148792:0]        ib_iface.c:1059 UCX  ERROR ibv_create_cq(cqe=256) failed: Connection timed out
[1740996957.431313] [ohm:3148791:0]        ib_iface.c:1059 UCX  ERROR ibv_create_cq(cqe=256) failed: Connection timed out
[1740996957.431652] [ohm:3148785:0]        ib_iface.c:1059 UCX  ERROR ibv_create_cq(cqe=256) failed: Connection timed out
[1740996957.431687] [ohm:3148787:0]        ib_iface.c:1059 UCX  ERROR ibv_create_cq(cqe=256) failed: Connection timed out
[1740996957.431754] [ohm:3148789:0]        ib_iface.c:1059 UCX  ERROR ibv_create_cq(cqe=256) failed: Connection timed out
[1740996957.432246] [ohm:3148795:0]        ib_iface.c:1059 UCX  ERROR ibv_create_cq(cqe=256) failed: Connection timed out
[1740996957.433352] [ohm:3148797:0]        ib_iface.c:1059 UCX  ERROR ibv_create_cq(cqe=256) failed: Connection timed out
[1740996957.436529] [ohm:3148793:0]        ib_iface.c:1059 UCX  ERROR ibv_create_cq(cqe=256) failed: Connection timed out
[1740996957.443592] [ohm:3148807:0]        ib_iface.c:1059 UCX  ERROR ibv_create_cq(cqe=256) failed: Connection timed out
[1740996957.444371] [ohm:3148802:0]        ib_iface.c:1059 UCX  ERROR ibv_create_cq(cqe=256) failed: Connection timed out
[1740996957.446149] [ohm:3148811:0]        ib_iface.c:1059 UCX  ERROR ibv_create_cq(cqe=256) failed: Connection timed out
[1740996957.448648] [ohm:3148814:0]        ib_iface.c:1059 UCX  ERROR ibv_create_cq(cqe=256) failed: Connection timed out


           ************************************************************
           *        Program running with 16 parallel MPI-processes    *
           *              working on a common directory               *
           ************************************************************

-------------------------------------------------------------------------------------------
                                      ORCA LEAN-SCF
                              memory conserving SCF solver
-------------------------------------------------------------------------------------------

----------------------------------------D-I-I-S--------------------------------------------
Iteration    Energy (Eh)           Delta-E    RMSDP     MaxDP     DIISErr   Damp  Time(sec)
-------------------------------------------------------------------------------------------
               ***  Starting incremental Fock matrix formation  ***
    1    -153.6770515110073916     0.00e+00  9.34e-04  2.24e-02  8.91e-02  0.700   0.4
    2    -153.7078807348466398    -3.08e-02  8.57e-04  2.05e-02  5.52e-02  0.700   0.3
                               ***Turning on AO-DIIS***
    3    -153.7251284837461753    -1.72e-02  7.06e-04  1.96e-02  3.44e-02  0.700   0.3
    4    -153.7358964133748032    -1.08e-02  1.78e-03  4.92e-02  2.82e-02  0.000   0.3
    5    -153.7613310846952004    -2.54e-02  2.25e-04  1.08e-02  1.09e-02  0.000   0.3
    6    -153.7622147263761576    -8.84e-04  1.71e-04  7.93e-03  6.74e-03  0.000   0.3
    7    -153.7627588791171434    -5.44e-04  1.01e-04  3.83e-03  4.66e-03  0.000   0.3
                              *** Initializing SOSCF ***
---------------------------------------S-O-S-C-F--------------------------------------
Iteration    Energy (Eh)           Delta-E    RMSDP     MaxDP     MaxGrad    Time(sec)
--------------------------------------------------------------------------------------
    8    -153.7629759396401141    -2.17e-04  6.53e-05  2.14e-03  1.87e-03     0.3
               *** Restarting incremental Fock matrix formation ***
    9    -153.7630609767152237    -8.50e-05  3.31e-05  1.04e-03  1.83e-03     0.4
   10    -153.7630816849366511    -2.07e-05  5.19e-05  1.40e-03  9.05e-04     0.3
   11    -153.7630921239586428    -1.04e-05  1.62e-05  3.93e-04  2.75e-04     0.3
   12    -153.7630939001599018    -1.78e-06  3.52e-06  8.31e-05  7.23e-05     0.3
   13    -153.7630939715348291    -7.14e-08  1.85e-06  6.92e-05  2.20e-05     0.3
   14    -153.7630939892966921    -1.78e-08  5.99e-07  1.80e-05  1.00e-05     0.3
   15    -153.7630939899437976    -6.47e-10  7.38e-07  3.60e-05  9.89e-06     0.3
                 **** Energy Check signals convergence ****

               *****************************************************
               *                     SUCCESS                       *
               *           SCF CONVERGED AFTER  15 CYCLES          *
               *****************************************************

Recomputing exchange energy using gridx3       ... done (    0.421 sec)
Old exchange energy                            :     -6.204789658 Eh
New exchange energy                            :     -6.204789763 Eh
Exchange energy change after final integration :     -0.000000104 Eh
Total energy after final integration           :   -153.763094094 Eh
             **** ENERGY FILE WAS UPDATED (orca.en.tmp) ****

----------------
TOTAL SCF ENERGY
----------------

Total Energy       :       -153.76309409427961 Eh           -4184.10651 eV

Components:
Nuclear Repulsion  :         70.99188448516232 Eh            1931.78739 eV
Electronic Energy  :       -224.75497847510610 Eh           -6115.89389 eV
One Electron Energy:       -348.41964003572713 Eh           -9480.98041 eV
Two Electron Energy:        123.66466156062103 Eh            3365.08652 eV

Virial components:
Potential Energy   :       -307.31229309281525 Eh           -8362.39263 eV
Kinetic Energy     :        153.54919899853564 Eh            4178.28612 eV
Virial Ratio       :          2.00139300691335

DFT components:
N(Alpha)           :       12.999996079214 electrons
N(Beta)            :       10.999991940099 electrons
N(Total)           :       23.999988019313 electrons
E(XC)              :      -14.738268151962 Eh       

---------------
SCF CONVERGENCE
---------------

  Last Energy change         ...    6.4711e-10  Tolerance :   1.0000e-08
  Last MAX-Density change    ...    3.5970e-05  Tolerance :   1.0000e-07
  Last RMS-Density change    ...    7.3844e-07  Tolerance :   5.0000e-09
  Last DIIS Error            ...    1.8724e-03  Tolerance :   5.0000e-07
  Last Orbital Gradient      ...    9.8871e-06  Tolerance :   1.0000e-05
  Last Orbital Rotation      ...    6.5214e-05  Tolerance :   1.0000e-05


----------------------
UHF SPIN CONTAMINATION
----------------------

Warning: in a DFT calculation there is little theoretical justification to 
         calculate <S**2> as in Hartree-Fock theory. We will do it anyways
         but you should keep in mind that the values have only limited relevance

Expectation value of <S**2>     :     2.008327
Ideal value S*(S+1) for S=1.0   :     2.000000
Deviation                       :     0.008327

----------------
ORBITAL ENERGIES
----------------
                 SPIN UP ORBITALS
  NO   OCC          E(Eh)            E(eV) 
   0   1.0000     -19.400983      -527.9276 
   1   1.0000     -10.406787      -283.1831 
   2   1.0000     -10.344927      -281.4998 
   3   1.0000      -1.202633       -32.7253 
   4   1.0000      -0.870844       -23.6969 
   5   1.0000      -0.737771       -20.0758 
   6   1.0000      -0.639492       -17.4015 
   7   1.0000      -0.600658       -16.3447 
   8   1.0000      -0.553107       -15.0508 
   9   1.0000      -0.510729       -13.8976 
  10   1.0000      -0.445254       -12.1160 
  11   1.0000      -0.430457       -11.7133 
  12   1.0000      -0.292946        -7.9715 
  13   0.0000       0.041163         1.1201 
  14   0.0000       0.063565         1.7297 
  15   0.0000       0.073351         1.9960 
  16   0.0000       0.086455         2.3525 
  17   0.0000       0.117333         3.1928 
  18   0.0000       0.128559         3.4983 
  19   0.0000       0.135090         3.6760 
  20   0.0000       0.139405         3.7934 
  21   0.0000       0.165005         4.4900 
  22   0.0000       0.195279         5.3138 
  23   0.0000       0.207139         5.6365 

                 SPIN DOWN ORBITALS
  NO   OCC          E(Eh)            E(eV) 
   0   1.0000     -19.374002      -527.1934 
   1   1.0000     -10.408044      -283.2173 
   2   1.0000     -10.332174      -281.1528 
   3   1.0000      -1.144572       -31.1454 
   4   1.0000      -0.836876       -22.7725 
   5   1.0000      -0.715226       -19.4623 
   6   1.0000      -0.598754       -16.2929 
   7   1.0000      -0.565553       -15.3895 
   8   1.0000      -0.530753       -14.4425 
   9   1.0000      -0.475621       -12.9423 
  10   1.0000      -0.386439       -10.5155 
  11   0.0000      -0.070038        -1.9058 
  12   0.0000       0.020692         0.5630 
  13   0.0000       0.039902         1.0858 
  14   0.0000       0.064264         1.7487 
  15   0.0000       0.072527         1.9735 
  16   0.0000       0.092311         2.5119 
  17   0.0000       0.116485         3.1697 
  18   0.0000       0.133302         3.6273 
  19   0.0000       0.136322         3.7095 
  20   0.0000       0.144946         3.9442 
  21   0.0000       0.171806         4.6751 
*Only the first 10 virtual orbitals were printed.

                    ********************************
                    * MULLIKEN POPULATION ANALYSIS *
                    ********************************

--------------------------------------------
MULLIKEN ATOMIC CHARGES AND SPIN POPULATIONS
--------------------------------------------
   0 O :   -0.300535    0.989048
   1 C :    0.056835   -0.023837
   2 C :   -0.639485    0.861199
   3 H :    0.200817    0.064545
   4 H :    0.200922    0.064115
   5 H :    0.240799    0.022499
   6 H :    0.240647    0.022430
Sum of atomic charges         :    0.0000000
Sum of atomic spin populations:    2.0000000

-----------------------------------------------------
MULLIKEN REDUCED ORBITAL CHARGES AND SPIN POPULATIONS
-----------------------------------------------------
CHARGE
  0 O s       :     4.013389  s :     4.013389
      pz      :     1.067477  p :     4.266241
      px      :     1.841955
      py      :     1.356810
      dz2     :     0.003406  d :     0.019493
      dxz     :    -0.001127
      dyz     :     0.006263
      dx2y2   :     0.005890
      dxy     :     0.005061
      f0      :     0.000138  f :     0.001413
      f+1     :     0.000042
      f-1     :     0.000158
      f+2     :     0.000183
      f-2     :     0.000060
      f+3     :     0.000442
      f-3     :     0.000389

  1 C s       :     3.163445  s :     3.163445
      pz      :     1.114304  p :     2.626030
      px      :     0.897015
      py      :     0.614711
      dz2     :     0.004201  d :     0.141726
      dxz     :     0.021302
      dyz     :     0.040819
      dx2y2   :     0.029978
      dxy     :     0.045426
      f0      :     0.001114  f :     0.011964
      f+1     :     0.000737
      f-1     :     0.000920
      f+2     :     0.001511
      f-2     :     0.000500
      f+3     :     0.004209
      f-3     :     0.002972

  2 C s       :     3.582676  s :     3.582676
      pz      :     1.146374  p :     3.030276
      px      :     0.928906
      py      :     0.954996
      dz2     :     0.010820  d :     0.021997
      dxz     :    -0.002451
      dyz     :    -0.001967
      dx2y2   :     0.006661
      dxy     :     0.008933
      f0      :     0.000591  f :     0.004536
      f+1     :     0.000595
      f-1     :     0.000137
      f+2     :     0.000705
      f-2     :     0.000240
      f+3     :     0.001397
      f-3     :     0.000872

  3 H s       :     0.758087  s :     0.758087
      pz      :     0.019061  p :     0.038541
      px      :     0.009814
      py      :     0.009666
      dz2     :     0.000747  d :     0.002554
      dxz     :     0.000544
      dyz     :     0.000543
      dx2y2   :     0.000406
      dxy     :     0.000315

  4 H s       :     0.757950  s :     0.757950
      pz      :     0.019055  p :     0.038574
      px      :     0.009819
      py      :     0.009699
      dz2     :     0.000747  d :     0.002554
      dxz     :     0.000542
      dyz     :     0.000541
      dx2y2   :     0.000408
      dxy     :     0.000317

  5 H s       :     0.702770  s :     0.702770
      pz      :     0.013204  p :     0.054177
      px      :     0.013672
      py      :     0.027301
      dz2     :     0.000627  d :     0.002254
      dxz     :     0.000483
      dyz     :     0.000656
      dx2y2   :     0.000220
      dxy     :     0.000268

  6 H s       :     0.702936  s :     0.702936
      pz      :     0.013216  p :     0.054161
      px      :     0.013659
      py      :     0.027287
      dz2     :     0.000627  d :     0.002256
      dxz     :     0.000485
      dyz     :     0.000658
      dx2y2   :     0.000219
      dxy     :     0.000266


SPIN
  0 O s       :     0.012028  s :     0.012028
      pz      :     0.861503  p :     0.980499
      px      :     0.045790
      py      :     0.073205
      dz2     :     0.001080  d :    -0.003315
      dxz     :    -0.000470
      dyz     :    -0.005076
      dx2y2   :     0.000179
      dxy     :     0.000971
      f0      :    -0.000050  f :    -0.000163
      f+1     :     0.000003
      f-1     :    -0.000130
      f+2     :    -0.000003
      f-2     :    -0.000005
      f+3     :     0.000004
      f-3     :     0.000017

  1 C s       :    -0.005349  s :    -0.005349
      pz      :     0.006892  p :    -0.084001
      px      :    -0.019471
      py      :    -0.071422
      dz2     :     0.004377  d :     0.061457
      dxz     :     0.010938
      dyz     :     0.042101
      dx2y2   :     0.013776
      dxy     :    -0.009736
      f0      :     0.000707  f :     0.004056
      f+1     :     0.000031
      f-1     :     0.000009
      f+2     :     0.001033
      f-2     :     0.000112
      f+3     :     0.001998
      f-3     :     0.000167

  2 C s       :     0.008250  s :     0.008250
      pz      :     0.012741  p :     0.866501
      px      :     0.041144
      py      :     0.812616
      dz2     :     0.000341  d :    -0.012726
      dxz     :    -0.009810
      dyz     :     0.000190
      dx2y2   :    -0.003588
      dxy     :     0.000141
      f0      :    -0.000108  f :    -0.000826
      f+1     :    -0.000209
      f-1     :     0.000084
      f+2     :    -0.000161
      f-2     :    -0.000008
      f+3     :    -0.000403
      f-3     :    -0.000022

  3 H s       :     0.054176  s :     0.054176
      pz      :     0.004676  p :     0.010365
      px      :     0.002183
      py      :     0.003507
      dz2     :    -0.000009  d :     0.000003
      dxz     :     0.000022
      dyz     :    -0.000010
      dx2y2   :     0.000005
      dxy     :    -0.000004

  4 H s       :     0.053817  s :     0.053817
      pz      :     0.004620  p :     0.010295
      px      :     0.002157
      py      :     0.003518
      dz2     :    -0.000009  d :     0.000003
      dxz     :     0.000022
      dyz     :    -0.000010
      dx2y2   :     0.000005
      dxy     :    -0.000004

  5 H s       :    -0.006605  s :    -0.006605
      pz      :    -0.000554  p :     0.028095
      px      :     0.003560
      py      :     0.025089
      dz2     :     0.000094  d :     0.001008
      dxz     :     0.000038
      dyz     :     0.000617
      dx2y2   :     0.000021
      dxy     :     0.000238

  6 H s       :    -0.006628  s :    -0.006628
      pz      :    -0.000590  p :     0.028050
      px      :     0.003534
      py      :     0.025106
      dz2     :     0.000094  d :     0.001009
      dxz     :     0.000038
      dyz     :     0.000619
      dx2y2   :     0.000021
      dxy     :     0.000236



                     *******************************
                     * LOEWDIN POPULATION ANALYSIS *
                     *******************************

-------------------------------------------
LOEWDIN ATOMIC CHARGES AND SPIN POPULATIONS
-------------------------------------------
   0 O :    0.093873    0.939643
   1 C :   -0.267089    0.190148
   2 C :    0.189071    0.619215
   3 H :    0.042460    0.049007
   4 H :    0.042308    0.048726
   5 H :   -0.050316    0.076660
   6 H :   -0.050306    0.076600

----------------------------------------------------
LOEWDIN REDUCED ORBITAL CHARGES AND SPIN POPULATIONS
----------------------------------------------------
CHARGE
  0 O s       :     3.445977  s :     3.445977
      pz      :     0.997865  p :     4.152473
      px      :     1.676417
      py      :     1.478191
      dz2     :     0.027404  d :     0.302767
      dxz     :     0.015120
      dyz     :     0.078087
      dx2y2   :     0.070256
      dxy     :     0.111900
      f0      :     0.000559  f :     0.004911
      f+1     :     0.000186
      f-1     :     0.000546
      f+2     :     0.000648
      f-2     :     0.000220
      f+3     :     0.001558
      f-3     :     0.001195

  1 C s       :     2.645157  s :     2.645157
      pz      :     0.893989  p :     2.605895
      px      :     0.929217
      py      :     0.782688
      dz2     :     0.103266  d :     0.916670
      dxz     :     0.182654
      dyz     :     0.104789
      dx2y2   :     0.256112
      dxy     :     0.269849
      f0      :     0.007616  f :     0.099367
      f+1     :     0.006978
      f-1     :     0.011120
      f+2     :     0.011204
      f-2     :     0.006212
      f+3     :     0.031604
      f-3     :     0.024632

  2 C s       :     2.717408  s :     2.717408
      pz      :     0.955838  p :     2.603756
      px      :     0.930489
      py      :     0.717428
      dz2     :     0.073558  d :     0.460721
      dxz     :     0.190397
      dyz     :     0.013652
      dx2y2   :     0.107983
      dxy     :     0.075131
      f0      :     0.003662  f :     0.029044
      f+1     :     0.005529
      f-1     :     0.001488
      f+2     :     0.004549
      f-2     :     0.001317
      f+3     :     0.006930
      f-3     :     0.005568

  3 H s       :     0.675918  s :     0.675918
      pz      :     0.109825  p :     0.252275
      px      :     0.083672
      py      :     0.058778
      dz2     :     0.008939  d :     0.029348
      dxz     :     0.007805
      dyz     :     0.005959
      dx2y2   :     0.003586
      dxy     :     0.003059

  4 H s       :     0.676135  s :     0.676135
      pz      :     0.109688  p :     0.252212
      px      :     0.083652
      py      :     0.058871
      dz2     :     0.008921  d :     0.029346
      dxz     :     0.007788
      dyz     :     0.005955
      dx2y2   :     0.003602
      dxy     :     0.003080

  5 H s       :     0.724961  s :     0.724961
      pz      :     0.121359  p :     0.294322
      px      :     0.082446
      py      :     0.090517
      dz2     :     0.009356  d :     0.031033
      dxz     :     0.009002
      dyz     :     0.007317
      dx2y2   :     0.002615
      dxy     :     0.002743

  6 H s       :     0.724883  s :     0.724883
      pz      :     0.121468  p :     0.294384
      px      :     0.082381
      py      :     0.090535
      dz2     :     0.009378  d :     0.031038
      dxz     :     0.009006
      dyz     :     0.007335
      dx2y2   :     0.002597
      dxy     :     0.002722


SPIN
  0 O s       :     0.026138  s :     0.026138
      pz      :     0.763625  p :     0.888726
      px      :     0.063222
      py      :     0.061878
      dz2     :     0.003571  d :     0.024678
      dxz     :     0.000932
      dyz     :     0.009900
      dx2y2   :     0.000182
      dxy     :     0.010093
      f0      :     0.000100  f :     0.000101
      f+1     :     0.000058
      f-1     :    -0.000100
      f+2     :     0.000054
      f-2     :     0.000024
      f+3     :     0.000003
      f-3     :    -0.000037

  1 C s       :    -0.004163  s :    -0.004163
      pz      :     0.005676  p :    -0.008304
      px      :    -0.009396
      py      :    -0.004584
      dz2     :     0.003710  d :     0.172114
      dxz     :     0.025931
      dyz     :     0.096173
      dx2y2   :     0.035421
      dxy     :     0.010878
      f0      :     0.004960  f :     0.030501
      f+1     :     0.000292
      f-1     :     0.000395
      f+2     :     0.008012
      f-2     :     0.000591
      f+3     :     0.014325
      f-3     :     0.001927

  2 C s       :     0.013323  s :     0.013323
      pz      :     0.012347  p :     0.600240
      px      :     0.018624
      py      :     0.569269
      dz2     :    -0.001543  d :     0.006108
      dxz     :    -0.003473
      dyz     :     0.004233
      dx2y2   :     0.006472
      dxy     :     0.000419
      f0      :    -0.000200  f :    -0.000456
      f+1     :    -0.000465
      f-1     :     0.000116
      f+2     :     0.000072
      f-2     :    -0.000089
      f+3     :     0.000251
      f-3     :    -0.000141

  3 H s       :     0.041086  s :     0.041086
      pz      :     0.001353  p :     0.008498
      px      :    -0.000149
      py      :     0.007294
      dz2     :    -0.000149  d :    -0.000577
      dxz     :    -0.000053
      dyz     :    -0.000209
      dx2y2   :    -0.000019
      dxy     :    -0.000148

  4 H s       :     0.040833  s :     0.040833
      pz      :     0.001343  p :     0.008468
      px      :    -0.000162
      py      :     0.007287
      dz2     :    -0.000150  d :    -0.000575
      dxz     :    -0.000051
      dyz     :    -0.000208
      dx2y2   :    -0.000019
      dxy     :    -0.000149

  5 H s       :    -0.011774  s :    -0.011774
      pz      :     0.003152  p :     0.078331
      px      :     0.002605
      py      :     0.072574
      dz2     :     0.000435  d :     0.010103
      dxz     :     0.000478
      dyz     :     0.006701
      dx2y2   :     0.000073
      dxy     :     0.002416

  6 H s       :    -0.011771  s :    -0.011771
      pz      :     0.003140  p :     0.078270
      px      :     0.002589
      py      :     0.072541
      dz2     :     0.000442  d :     0.010101
      dxz     :     0.000477
      dyz     :     0.006713
      dx2y2   :     0.000070
      dxy     :     0.002398



                      *****************************
                      * MAYER POPULATION ANALYSIS *
                      *****************************

  NA   - Mulliken gross atomic population
  ZA   - Total nuclear charge
  QA   - Mulliken gross atomic charge
  VA   - Mayer's total valence
  BVA  - Mayer's bonded valence
  FA   - Mayer's free valence

  ATOM       NA         ZA         QA         VA         BVA        FA
  0 O      8.3005     8.0000    -0.3005     1.8685     1.0944     0.7741
  1 C      5.9432     6.0000     0.0568     3.4413     3.4250     0.0163
  2 C      6.6395     6.0000    -0.6395     3.4336     2.7323     0.7013
  3 H      0.7992     1.0000     0.2008     1.0311     1.0286     0.0025
  4 H      0.7991     1.0000     0.2009     1.0313     1.0288     0.0024
  5 H      0.7592     1.0000     0.2408     0.9923     0.9912     0.0011
  6 H      0.7594     1.0000     0.2406     0.9923     0.9912     0.0011

  Mayer bond orders larger than 0.100000
B(  0-O ,  1-C ) :   0.8614 B(  0-O ,  2-C ) :   0.1429 B(  1-C ,  2-C ) :   0.6618 
B(  1-C ,  3-H ) :   0.9834 B(  1-C ,  4-H ) :   0.9836 B(  2-C ,  5-H ) :   0.9931 
B(  2-C ,  6-H ) :   0.9933 

-------
TIMINGS
-------

Total SCF time: 0 days 0 hours 0 min 5 sec 

Total time                  ....       5.619 sec
Sum of individual times     ....       5.613 sec  ( 99.9%)

SCF preparation             ....       0.393 sec  (  7.0%)
Fock matrix formation       ....       4.603 sec  ( 81.9%)
  Startup                   ....       0.029 sec  (  0.6% of F)
  Split-RI-J                ....       0.197 sec  (  4.3% of F)
  Chain of spheres X        ....       2.868 sec  ( 62.3% of F)
  XC integration            ....       1.399 sec  ( 30.4% of F)
    XC Preparation          ....       0.000 sec  (  0.0% of XC)
    Basis function eval.    ....       0.090 sec  (  6.5% of XC)
    Density eval.           ....       0.395 sec  ( 28.2% of XC)
    XC-Functional eval.     ....       0.038 sec  (  2.7% of XC)
    XC-Potential eval.      ....       0.640 sec  ( 45.8% of XC)
Diagonalization             ....       0.000 sec  (  0.0%)
Density matrix formation    ....       0.071 sec  (  1.3%)
Total Energy calculation    ....       0.052 sec  (  0.9%)
Population analysis         ....       0.020 sec  (  0.4%)
Orbital Transformation      ....       0.051 sec  (  0.9%)
Orbital Orthonormalization  ....       0.000 sec  (  0.0%)
DIIS solution               ....       0.300 sec  (  5.3%)
SOSCF solution              ....       0.121 sec  (  2.2%)
Finished LeanSCF after   5.6 sec

Maximum memory used throughout the entire LEANSCF-calculation: 14.8 MB
[1740996963.330285] [ohm:3148898:0]        ib_iface.c:1059 UCX  ERROR ibv_create_cq(cqe=256) failed: Connection timed out
[1740996963.330740] [ohm:3148900:0]        ib_iface.c:1059 UCX  ERROR ibv_create_cq(cqe=256) failed: Connection timed out
[1740996963.355189] [ohm:3148902:0]        ib_iface.c:1059 UCX  ERROR ibv_create_cq(cqe=256) failed: Connection timed out
[1740996963.363037] [ohm:3148904:0]        ib_iface.c:1059 UCX  ERROR ibv_create_cq(cqe=256) failed: Connection timed out
[1740996963.368946] [ohm:3148897:0]        ib_iface.c:1059 UCX  ERROR ibv_create_cq(cqe=256) failed: Connection timed out
[1740996963.368969] [ohm:3148903:0]        ib_iface.c:1059 UCX  ERROR ibv_create_cq(cqe=256) failed: Connection timed out
[1740996963.369055] [ohm:3148905:0]        ib_iface.c:1059 UCX  ERROR ibv_create_cq(cqe=256) failed: Connection timed out
[1740996963.369206] [ohm:3148901:0]        ib_iface.c:1059 UCX  ERROR ibv_create_cq(cqe=256) failed: Connection timed out
[1740996963.369421] [ohm:3148907:0]        ib_iface.c:1059 UCX  ERROR ibv_create_cq(cqe=256) failed: Connection timed out
[1740996963.369258] [ohm:3148899:0]        ib_iface.c:1059 UCX  ERROR ibv_create_cq(cqe=256) failed: Connection timed out
[1740996963.400757] [ohm:3148916:0]        ib_iface.c:1059 UCX  ERROR ibv_create_cq(cqe=256) failed: Connection timed out
[1740996963.400788] [ohm:3148921:0]        ib_iface.c:1059 UCX  ERROR ibv_create_cq(cqe=256) failed: Connection timed out
[1740996963.400836] [ohm:3148923:0]        ib_iface.c:1059 UCX  ERROR ibv_create_cq(cqe=256) failed: Connection timed out
[1740996963.400895] [ohm:3148909:0]        ib_iface.c:1059 UCX  ERROR ibv_create_cq(cqe=256) failed: Connection timed out
[1740996963.401270] [ohm:3148911:0]        ib_iface.c:1059 UCX  ERROR ibv_create_cq(cqe=256) failed: Connection timed out
[1740996963.401867] [ohm:3148926:0]        ib_iface.c:1059 UCX  ERROR ibv_create_cq(cqe=256) failed: Connection timed out


           ************************************************************
           *        Program running with 16 parallel MPI-processes    *
           *              working on a common directory               *
           ************************************************************

------------------------------------------------------------------------------
                         ORCA PROPERTY INTEGRAL CALCULATIONS
------------------------------------------------------------------------------

GBWName                                   ... orca.gbw
Number of atoms                           ...      7
Number of basis functions                 ...    182
Max core memory                           ...   1024 MB

Dipole integrals                          ... YES
Quadrupole integrals                      ...  NO
Linear momentum integrals                 ... YES
Angular momentum integrals                ... YES
Higher moments length integrals           ...  NO
Higher moments velocity integrals         ...  NO
Kinetic energy integrals                  ...  NO
GIAO right hand sides                     ...  NO
GIAO dipole derivative integrals          ...  NO
SOC integrals                             ...  NO
EPR diamagnetic integrals (GIAO)          ...  NO
EPR gauge integrals                       ...  NO
Field gradient integrals                  ...  NO (   0 nuclei)
Spin-dipole/Fermi contact integrals       ...  NO (   0 nuclei)
Contact density integrals                 ...  NO (   0 nuclei)
Nucleus-orbit integrals                   ...  NO (   0 nuclei)
Geometric perturbations                   ...  NO (   7 nuclei)

Choice of electric origin   ... Center of mass
Position of electric origin ... (  0.1734,  0.0634, -0.0017) 
Choice of magnetic origin   ... GIAO
Position of magnetic origin ... (  0.0000,  0.0000,  0.0000) 

Calculating integrals                     ... Electric Dipole (Length)     done (  0.0 sec)
Calculating integrals                     ... Linear Momentum              done (  0.0 sec)
Calculating integrals                     ... Angular Momentum  (ElOri)    done (  0.0 sec)

Property integrals calculated in   0.0 sec

Maximum memory used throughout the entire PROPINT-calculation: 10.4 MB
[1740996964.100678] [ohm:3148985:0]        ib_iface.c:1059 UCX  ERROR ibv_create_cq(cqe=256) failed: Connection timed out
[1740996964.100667] [ohm:3148989:0]        ib_iface.c:1059 UCX  ERROR ibv_create_cq(cqe=256) failed: Connection timed out
[1740996964.100675] [ohm:3148991:0]        ib_iface.c:1059 UCX  ERROR ibv_create_cq(cqe=256) failed: Connection timed out
[1740996964.101175] [ohm:3148987:0]        ib_iface.c:1059 UCX  ERROR ibv_create_cq(cqe=256) failed: Connection timed out
[1740996964.103625] [ohm:3148997:0]        ib_iface.c:1059 UCX  ERROR ibv_create_cq(cqe=256) failed: Connection timed out
[1740996964.103879] [ohm:3148994:0]        ib_iface.c:1059 UCX  ERROR ibv_create_cq(cqe=256) failed: Connection timed out
[1740996964.106851] [ohm:3148986:0]        ib_iface.c:1059 UCX  ERROR ibv_create_cq(cqe=256) failed: Connection timed out
[1740996964.106849] [ohm:3148990:0]        ib_iface.c:1059 UCX  ERROR ibv_create_cq(cqe=256) failed: Connection timed out
[1740996964.106922] [ohm:3148992:0]        ib_iface.c:1059 UCX  ERROR ibv_create_cq(cqe=256) failed: Connection timed out
[1740996964.107231] [ohm:3148984:0]        ib_iface.c:1059 UCX  ERROR ibv_create_cq(cqe=256) failed: Connection timed out
[1740996964.107276] [ohm:3148988:0]        ib_iface.c:1059 UCX  ERROR ibv_create_cq(cqe=256) failed: Connection timed out
[1740996964.109139] [ohm:3148996:0]        ib_iface.c:1059 UCX  ERROR ibv_create_cq(cqe=256) failed: Connection timed out
[1740996964.109173] [ohm:3148999:0]        ib_iface.c:1059 UCX  ERROR ibv_create_cq(cqe=256) failed: Connection timed out
[1740996964.109962] [ohm:3149005:0]        ib_iface.c:1059 UCX  ERROR ibv_create_cq(cqe=256) failed: Connection timed out
[1740996964.130174] [ohm:3149013:0]        ib_iface.c:1059 UCX  ERROR ibv_create_cq(cqe=256) failed: Connection timed out
[1740996964.130954] [ohm:3149009:0]        ib_iface.c:1059 UCX  ERROR ibv_create_cq(cqe=256) failed: Connection timed out


           ************************************************************
           *        Program running with 16 parallel MPI-processes    *
           *              working on a common directory               *
           ************************************************************
------------------------------------------------------------------------------
                        ORCA TD-DFT/TDA CALCULATION
------------------------------------------------------------------------------

Input orbitals are from        ... orca.gbw
CI-vector output               ... orca.cis
Solver                         ... FN-2001
Tamm-Dancoff approximation     ... operative
CIS-Integral strategy          ... AO-integrals
Integral handling              ... AO integral Direct
Max. core memory used          ... 512 MB
Reference state                ... UHF
Follow IRoot                   ... off
Number of operators            ... 2
Orbital ranges used for CIS calculation:
 Operator 0:  Orbitals   3... 12  to  11...181

-------------------
XC-INTEGRATION GRID
-------------------

General Integration Accuracy     IntAcc      ... 3.467
Radial Grid Type                 RadialGrid  ... OptM3 with GC (2021)
Angular Grid (max. ang.)         AngularGrid ... 1 (Lebedev-50)
Angular grid pruning method      GridPruning ... 4 (adaptive)
Weight generation scheme         WeightScheme... mBecke (2022)
Basis function cutoff            BFCut       ... 1.0000e-11
Integration weight cutoff        WCut        ... 1.0000e-14
Partially contracted basis set               ... off
Rotationally invariant grid construction     ... off
Angular grids for H and He will be reduced by one unit
Diffuse basis detected: some atoms will have their outermost
                        angular grid increased by 1.

Total number of grid points                  ...     4739
Total number of batches                      ...       78
Average number of points per batch           ...       60
Average number of grid points per atom       ...      677

---------------------
COSX-INTEGRATION GRID
---------------------

General Integration Accuracy     IntAcc      ... 3.067
Radial Grid Type                 RadialGrid  ... OptM3 with GC (2021)
Angular Grid (max. ang.)         AngularGrid ... 1 (Lebedev-50)
Angular grid pruning method      GridPruning ... 4 (adaptive)
Weight generation scheme         WeightScheme... mBecke (2022)
Basis function cutoff            BFCut       ... 1.0000e-11
Integration weight cutoff        WCut        ... 1.0000e-14
Partially contracted basis set               ... on
Rotationally invariant grid construction     ... off
Angular grids for H and He will be reduced by one unit
Diffuse basis detected: some atoms will have their outermost
                        angular grid increased by 1.

Total number of grid points                  ...     2156
Total number of batches                      ...       22
Average number of points per batch           ...       98
Average number of grid points per atom       ...      308

---------------
TD-DFT XC SETUP
---------------

DFT calculation                         ... on
Name of the grid file                   ... orca.grid_cis.tmp
RI-approximation                        ... on
Aux-basis dimension                     ... 0
Functional (TD-DFT)
  Functional kind                       .... Exchange-Correlation
  Functional name                       .... wB97M-V exchange-correlation functional
  Functional family                     .... Hybrid MGGA
  Functional refs                              
    [ 0] N. Mardirossian and M. Head-Gordon.,  J. Chem. Phys. 144, 214110 (2016), doi: 10.1063/1.4952647
  Fraction of HF Exchange (short range) .... 0.1500
  Fraction of HF Exchange (long range)  .... 1.0000
  Range separation parameter mu         .... 0.3000
  Functional external parameters        .... 17
    Parameter  0 _cx00      =  8.500000e-01 : u^00 coefficient for exchange
    Parameter  1 _cx01      =  1.007000e+00 : u^01 coefficient for exchange
    Parameter  2 _cx10      =  2.590000e-01 : u^10 coefficient for exchange
    Parameter  3 _css00     =  4.430000e-01 : u^00 coefficient for same-spin correlation
    Parameter  4 _css04     = -1.437000e+00 : u^04 coefficient for same-spin correlation
    Parameter  5 _css10     = -4.535000e+00 : u^10 coefficient for same-spin correlation
    Parameter  6 _css20     = -3.390000e+00 : u^20 coefficient for same-spin correlation
    Parameter  7 _css43     =  4.278000e+00 : u^43 coefficient for same-spin correlation
    Parameter  8 _cos00     =  1.000000e+00 : u^00 coefficient for opposite-spin correlation
    Parameter  9 _cos10     =  1.358000e+00 : u^10 coefficient for opposite-spin correlation
    Parameter 10 _cos20     =  2.924000e+00 : u^20 coefficient for opposite-spin correlation
    Parameter 11 _cos21     = -8.812000e+00 : u^21 coefficient for opposite-spin correlation
    Parameter 12 _cos60     = -1.390000e+00 : u^60 coefficient for opposite-spin correlation
    Parameter 13 _cos61     =  9.142000e+00 : u^61 coefficient for opposite-spin correlation
    Parameter 14 _alpha     =  1.000000e+00 : fraction of HF exchange
    Parameter 15 _beta      = -8.500000e-01 : fraction of short-range exchange
    Parameter 16 _omega     =  3.000000e-01 : range-separation constant
Hybrid DFT                              ... on
   Exchange mixing (TD-DFT)             ...  0.150
   GGA exch. scaling (TD-DFT)           ...  0.000
   GGA corr. scaling (TD-DFT)           ...  1.000
Range-Separated Exchange                ... on
   Range Range separation parameter mu  .... 0.300
   Max. amount of RS exchange (TD-DFT)  ...  0.850

Building densities             ... done
Calculating rho(r) on the grid ... done
Building xc-kernel on the grid ... done
                    *** TD-DFT CALCULATION INITIALIZED ***

------------------------
DAVIDSON-DIAGONALIZATION
------------------------

Dimension of the eigenvalue problem            ...   1710
Number of roots to be determined               ...      2
Maximum size of the expansion space            ...     20
Maximum number of iterations                   ...    100
Convergence tolerance for the residual         ...    2.500e-07
Convergence tolerance for the energies         ...    2.500e-07
Orthogonality tolerance                        ...    1.000e-14
Level Shift                                    ...    0.000e+00
Constructing the preconditioner                ... o.k.
Building the initial guess                     ... o.k.
Number of trial vectors determined             ...     20


                       ****Iteration    0****
   Time for iteration     :  TOTAL=0.2 TRAFO=0.0 COSX=0.2
   Size of expansion space: 6
   Lowest Energy          :    -0.018089393541
   Maximum Energy change  :     0.061749518019 (vector 1)
   Maximum residual norm  :     0.005022814100

                       ****Iteration    1****
   Time for iteration     :  TOTAL=0.1 TRAFO=0.0 COSX=0.1
   Size of expansion space: 8
   Lowest Energy          :    -0.025389588861
   Maximum Energy change  :     0.023090727671 (vector 1)
   Maximum residual norm  :     0.000460167235

                       ****Iteration    2****
   Time for iteration     :  TOTAL=0.1 TRAFO=0.0 COSX=0.1
   Size of expansion space: 10
   Lowest Energy          :    -0.025699314280
   Maximum Energy change  :     0.001203920454 (vector 1)
   Maximum residual norm  :     0.000021485150

                       ****Iteration    3****
   Time for iteration     :  TOTAL=0.1 TRAFO=0.0 RIJ=0.0 COSX=0.1
   Size of expansion space: 12
   Lowest Energy          :    -0.025708879573
   Maximum Energy change  :     0.000046750432 (vector 1)
   Maximum residual norm  :     0.000001894813

                       ****Iteration    4****
   Time for iteration     :  TOTAL=0.1 TRAFO=0.0 COSX=0.1
   Size of expansion space: 14
   Lowest Energy          :    -0.025709058537
   Maximum Energy change  :     0.000002891660 (vector 1)
   Maximum residual norm  :     0.000000124940

      *** CONVERGENCE OF RESIDUAL NORM REACHED ***

Storing the converged CI vectors               ... orca.cis3

                 *** DAVIDSON DONE ***

Total time for solving the CIS problem:     0.772sec

---------------------
SF-TDA EXCITED STATES
---------------------

the weight of the individual excitations are printed if larger than 1.0e-02

UHF/UKS reference: multiplicity estimated based on rounded <S**2> value, RELEVANCE IS LIMITED!

(SPIN-FLIP GROUND STATE)
STATE  1:  E=  -0.025709 au     -0.700 eV    -5642.5 cm**-1 <S**2> =   0.219966 Mult 1
     7a ->  11b  :     0.012942 (c= -0.11376292)
    11a ->  11b  :     0.118198 (c= -0.34379912)
    12a ->  11b  :     0.855370 (c= -0.92486207)

STATE  2:  E=   0.037405 au      1.018 eV     8209.5 cm**-1 <S**2> =   1.057094 Mult 3
    12a ->  12b  :     0.872762 (c=  0.93421737)
    12a ->  14b  :     0.013888 (c=  0.11784805)
    12a ->  16b  :     0.046582 (c= -0.21582818)
    12a ->  18b  :     0.019512 (c= -0.13968358)
    12a ->  21b  :     0.022169 (c=  0.14889408)


-----------------------------
TD-DFT/TDA-EXCITATION SPECTRA
-----------------------------

Center of mass = (  0.1734,  0.0634, -0.0017)
Generating CIS-Spin-flip transition densities           ... done

UHF/UKS reference: multiplicity estimated based on rounded <S**2> value, use it judiciously!

----------------------------------------------------------------------------------------------------
          SPIN FLIP ABSORPTION SPECTRUM VIA TRANSITION ELECTRIC DIPOLE MOMENTS    
----------------------------------------------------------------------------------------------------
     Transition      Energy     Energy  Wavelength fosc(D2)      D2        DX        DY        DZ   
                      (eV)      (cm-1)    (nm)                 (au**2)    (au)      (au)      (au)  
----------------------------------------------------------------------------------------------------
  1-3A  ->  2-3A    1.717427   13852.0   721.9   0.000405319   0.00963  -0.00050  -0.00066  -0.09814

----------------------------------------------------------------------------------------------------
          SPIN FLIP ABSORPTION SPECTRUM VIA TRANSITION VELOCITY DIPOLE MOMENTS    
----------------------------------------------------------------------------------------------------
     Transition      Energy     Energy  Wavelength fosc(P2)      P2        PX        PY        PZ   
                      (eV)      (cm-1)    (nm)                 (au**2)    (au)      (au)      (au)  
----------------------------------------------------------------------------------------------------
  1-3A  ->  2-3A    1.717427   13852.0   721.9   0.000517082   0.00005  -0.00004  -0.00009  -0.00700

------------------------------------------------------------------------------------------
          SPIN FLIP CD SPECTRUM VIA TRANSITION ELECTRIC DIPOLE MOMENTS    
------------------------------------------------------------------------------------------
     Transition      Energy     Energy  Wavelength    R        MX        MY        MZ   
                      (eV)      (cm-1)    (nm)   (1e40*cgs)   (au)      (au)      (au)  
------------------------------------------------------------------------------------------
  1-3A  ->  2-3A    1.717427   13852.0   721.9   -0.00857  -0.04695  -0.02525   0.00022

[...]
      f+2     :     0.000108
      f-2     :    -0.000045
      f+3     :    -0.003516
      f-3     :     0.000940
  2 C s       :     0.000570  s :     0.000570
      pz      :     0.004033  p :     0.212732
      px      :     0.007784
      py      :     0.200915
      dz2     :    -0.002411  d :    -0.009828
      dxz     :     0.000229
      dyz     :    -0.004354
      dx2y2   :    -0.003183
      dxy     :    -0.000109
      f0      :    -0.000042  f :    -0.000389
      f+1     :    -0.000200
      f-1     :     0.000133
      f+2     :    -0.000076
      f-2     :    -0.000046
      f+3     :    -0.000233
      f-3     :     0.000075
  3 H s       :     0.009023  s :     0.009023
      pz      :     0.000025  p :    -0.002233
      px      :    -0.000126
      py      :    -0.002132
      dz2     :    -0.000043  d :    -0.000112
      dxz     :     0.000019
      dyz     :    -0.000025
      dx2y2   :    -0.000036
      dxy     :    -0.000026
  4 H s       :     0.008650  s :     0.008650
      pz      :     0.000030  p :    -0.002249
      px      :    -0.000128
      py      :    -0.002151
      dz2     :    -0.000043  d :    -0.000108
      dxz     :     0.000021
      dyz     :    -0.000025
      dx2y2   :    -0.000035
      dxy     :    -0.000026
  5 H s       :    -0.004983  s :    -0.004983
      pz      :     0.001460  p :     0.022239
      px      :     0.001247
      py      :     0.019532
      dz2     :     0.000243  d :     0.003898
      dxz     :     0.000218
      dyz     :     0.002500
      dx2y2   :     0.000018
      dxy     :     0.000919
  6 H s       :    -0.004986  s :    -0.004986
      pz      :     0.001461  p :     0.022232
      px      :     0.001237
      py      :     0.019534
      dz2     :     0.000250  d :     0.003897
      dxz     :     0.000215
      dyz     :     0.002504
      dx2y2   :     0.000014
      dxy     :     0.000915


                      *****************************
                      * MAYER POPULATION ANALYSIS *
                      *****************************

  NA   - Mulliken gross atomic population
  ZA   - Total nuclear charge
  QA   - Mulliken gross atomic charge
  VA   - Mayer's total valence
  BVA  - Mayer's bonded valence
  FA   - Mayer's free valence

  ATOM       NA         ZA         QA         VA         BVA        FA
  0 O      8.5332     8.0000    -0.5332     1.5278     1.6038    -0.0760
  1 C      6.1312     6.0000    -0.1312     3.6204     3.5440     0.0764
  2 C      6.2919     6.0000    -0.2919     3.3959     3.3932     0.0027
  3 H      0.7663     1.0000     0.2337     1.1053     1.0979     0.0073
  4 H      0.7661     1.0000     0.2339     1.1056     1.0987     0.0068
  5 H      0.7556     1.0000     0.2444     0.9199     0.9166     0.0033
  6 H      0.7557     1.0000     0.2443     0.9202     0.9169     0.0033

  Mayer bond orders larger than 0.100000
B(  0-O ,  1-C ) :   0.7562 B(  0-O ,  2-C ) :   0.8184 B(  1-C ,  2-C ) :   0.7727 
B(  1-C ,  3-H ) :   1.0225 B(  1-C ,  4-H ) :   1.0228 B(  2-C ,  5-H ) :   0.9400 
B(  2-C ,  6-H ) :   0.9403 


-------
TIMINGS
-------

Total TD-DFT gradient time  ....        6.067 sec

Fock matrix formation       ....       1.197 sec  ( 19.7%)
  Coulomb formation         ....       0.924 sec  ( 77.2% of F)
  XC integration            ....       0.273 sec  ( 22.8% of F)
Z-vector equation           ....       2.163 sec  ( 35.6%)
Densities                   ....       0.000 sec  (  0.0%)
One electron gradient       ....       0.009 sec  (  0.2%)
Two electron gradient       ....       0.000 sec  (  0.0%)
RI-J Coulomb gradient       ....       0.093 sec  (  1.5%)
COSX gradient               ....       0.426 sec  (  7.0%)
XC gradient                 ....       1.966 sec  ( 32.4%)

Maximum memory used throughout the entire CIS-calculation: 35.8 MB
=> NOW LEAVING ORCA_CIS


-------------------------------------------------------------------------------
                          DFT DISPERSION CORRECTION                            
                                                                               
                              DFTD3 V3.1  Rev 1                                
                          USING Becke-Johnson damping                          
-------------------------------------------------------------------------------
The WB97M functional is recognized
Active option DFTDOPT                   ...         4   

molecular C6(AA) [au] = 392.549390 


            DFT-D V3
 parameters
 s6 scaling factor         :     1.0000 
 a1 scaling factor         :     0.5660 
 s8 scaling factor         :     0.3908 
 a2 scaling factor         :     3.1280 
 ad hoc parameters k1-k3   :    16.0000     1.3333    -4.0000 

 Edisp/kcal,au: -3.559027473202  -0.005671670693 
 E6   /kcal   :  -2.866381015 
 E8   /kcal   :  -0.692646459 
 % E8         :  19.461677771 

-------------------------   ----------------
Dispersion correction           -0.005671671
-------------------------   ----------------


-------------------------   --------------------
FINAL SINGLE POINT ENERGY      -153.794474823509
-------------------------   --------------------

[1740996971.727643] [ohm:3149099:0]        ib_iface.c:1059 UCX  ERROR ibv_create_cq(cqe=256) failed: Connection timed out
[1740996971.728214] [ohm:3149101:0]        ib_iface.c:1059 UCX  ERROR ibv_create_cq(cqe=256) failed: Connection timed out
[1740996971.730251] [ohm:3149103:0]        ib_iface.c:1059 UCX  ERROR ibv_create_cq(cqe=256) failed: Connection timed out
[1740996971.733018] [ohm:3149105:0]        ib_iface.c:1059 UCX  ERROR ibv_create_cq(cqe=256) failed: Connection timed out
[1740996971.743429] [ohm:3149108:0]        ib_iface.c:1059 UCX  ERROR ibv_create_cq(cqe=256) failed: Connection timed out
[1740996971.750169] [ohm:3149104:0]        ib_iface.c:1059 UCX  ERROR ibv_create_cq(cqe=256) failed: Connection timed out
[1740996971.750213] [ohm:3149100:0]        ib_iface.c:1059 UCX  ERROR ibv_create_cq(cqe=256) failed: Connection timed out
[1740996971.750252] [ohm:3149098:0]        ib_iface.c:1059 UCX  ERROR ibv_create_cq(cqe=256) failed: Connection timed out
[1740996971.750598] [ohm:3149102:0]        ib_iface.c:1059 UCX  ERROR ibv_create_cq(cqe=256) failed: Connection timed out
[1740996971.754344] [ohm:3149111:0]        ib_iface.c:1059 UCX  ERROR ibv_create_cq(cqe=256) failed: Connection timed out
[1740996971.756383] [ohm:3149106:0]        ib_iface.c:1059 UCX  ERROR ibv_create_cq(cqe=256) failed: Connection timed out
[1740996971.759008] [ohm:3149110:0]        ib_iface.c:1059 UCX  ERROR ibv_create_cq(cqe=256) failed: Connection timed out
[1740996971.759003] [ohm:3149113:0]        ib_iface.c:1059 UCX  ERROR ibv_create_cq(cqe=256) failed: Connection timed out
[1740996971.762881] [ohm:3149118:0]        ib_iface.c:1059 UCX  ERROR ibv_create_cq(cqe=256) failed: Connection timed out
[1740996971.770483] [ohm:3149128:0]        ib_iface.c:1059 UCX  ERROR ibv_create_cq(cqe=256) failed: Connection timed out
[1740996971.772651] [ohm:3149122:0]        ib_iface.c:1059 UCX  ERROR ibv_create_cq(cqe=256) failed: Connection timed out


           ************************************************************
           *        Program running with 16 parallel MPI-processes    *
           *              working on a common directory               *
           ************************************************************

------------------------------------------------------------------------------
                              ORCA PROPERTY CALCULATIONS
------------------------------------------------------------------------------

GBWName                                 ... orca.gbw
Number of atoms                         ...      7
Number of basis functions               ...    182
Max core memory                         ...   1024 MB

Electric properties:
Dipole moment                           ... YES
Quadrupole moment                       ...  NO
Static polarizability (Dipole/Dipole)   ...  NO
Static polarizability (Dipole/Quad.)    ...  NO
Static polarizability (Quad./Quad.)     ...  NO
Static polarizability (Velocity)        ...  NO

Atomic electric properties:
Dipole moment                           ...  NO
Quadrupole moment                       ...  NO
Static polarizability                   ...  NO

Choice of electric origin               ... Center of mass
Position of electric origin             ...     0.173356     0.063393    -0.001699

General magnetic properties:
Magnetizability                         ...  NO

EPR properties:
g-Tensor (aka g-matrix)                 ...  NO
Zero-Field splitting spin-orbit         ...  NO
Zero-field splitting spin-spin          ...  NO
Hyperfine couplings                     ...  NO (   0 nuclei)
Quadrupole couplings                    ...  NO (   0 nuclei)
Contact density                         ...  NO (   0 nuclei)

NMR properties:
Chemical shifts                         ...  NO (   0 nuclei)
Spin-rotation constants                 ...  NO (   0 nuclei)
Spin-spin couplings                     ...  NO (   0 nuclei,    0 pairs)

Choice of magnetic origin               ... GIAO
Position of magnetic origin             ...     0.000000     0.000000     0.000000

Properties with geometric perturbations:
SCF Hessian                             ...  NO
IR spectrum                             ...  NO
VCD spectrum                            ...  NO
X-ray spectroscopy properties:
SCF XES/XAS/RIXS spectra                ...  NO


-------------
DIPOLE MOMENT
-------------

Method             : SCF
Type of density    : Electron Density
Multiplicity       :   3
Irrep              :   0
Energy             :  -153.7630940942796087 Eh
Relativity type    : 
Basis              : AO
                                X                 Y                 Z
Electronic contribution:      0.859343011       2.181045953      -0.004812627
Nuclear contribution   :     -0.562386942      -2.674574776       0.005857303
                        -----------------------------------------
Total Dipole Moment    :      0.296956069      -0.493528823       0.001044677
                        -----------------------------------------
Magnitude (a.u.)       :      0.575981508
Magnitude (Debye)      :      1.464028644



--------------------
Rotational spectrum 
--------------------
 
Rotational constants in cm-1:             1.124930             0.463031             0.376351 
Rotational constants in MHz :         33724.560644         13881.324442         11282.723149 

Dipole components along the rotational axes: 
x,y,z [a.u.] :    -0.222650     0.531207     0.000384 
x,y,z [Debye]:    -0.565932     1.350222     0.000975 

 

-------------
DIPOLE MOMENT
-------------

Method             : TDA/CIS
Type of density    : Electron Density
Level              : Relaxed density
State              :   1
Multiplicity       :   3
Irrep              :   0
Energy             :     0.0000000000000000 Eh
Relativity type    : 
Basis              : AO
                                X                 Y                 Z
Electronic contribution:      0.017885135       1.222920591      -0.002746219
Nuclear contribution   :     -0.562386942      -2.674574776       0.005857303
                        -----------------------------------------
Total Dipole Moment    :     -0.544501807      -1.451654185       0.003111084
                        -----------------------------------------
Magnitude (a.u.)       :      1.550416644
Magnitude (Debye)      :      3.940845925



--------------------
Rotational spectrum 
--------------------
 
Rotational constants in cm-1:             1.124930             0.463031             0.376351 
Rotational constants in MHz :         33724.560644         13881.324442         11282.723149 

Dipole components along the rotational axes: 
x,y,z [a.u.] :    -1.492839     0.418597     0.000636 
x,y,z [Debye]:    -3.794495     1.063990     0.001617 

 

Dipole moment calculation done in   0.0 sec 

Maximum memory used throughout the entire PROP-calculation: 7.6 MB
[1740996972.388554] [ohm:3149185:0]        ib_iface.c:1059 UCX  ERROR ibv_create_cq(cqe=256) failed: Connection timed out
[1740996972.408375] [ohm:3149183:0]        ib_iface.c:1059 UCX  ERROR ibv_create_cq(cqe=256) failed: Connection timed out
[1740996972.411644] [ohm:3149192:0]        ib_iface.c:1059 UCX  ERROR ibv_create_cq(cqe=256) failed: Connection timed out
[1740996972.412263] [ohm:3149187:0]        ib_iface.c:1059 UCX  ERROR ibv_create_cq(cqe=256) failed: Connection timed out
[1740996972.412351] [ohm:3149186:0]        ib_iface.c:1059 UCX  ERROR ibv_create_cq(cqe=256) failed: Connection timed out
[1740996972.415061] [ohm:3149184:0]        ib_iface.c:1059 UCX  ERROR ibv_create_cq(cqe=256) failed: Connection timed out
[1740996972.415202] [ohm:3149182:0]        ib_iface.c:1059 UCX  ERROR ibv_create_cq(cqe=256) failed: Connection timed out
[1740996972.417132] [ohm:3149195:0]        ib_iface.c:1059 UCX  ERROR ibv_create_cq(cqe=256) failed: Connection timed out
[1740996972.418053] [ohm:3149188:0]        ib_iface.c:1059 UCX  ERROR ibv_create_cq(cqe=256) failed: Connection timed out
[1740996972.418193] [ohm:3149189:0]        ib_iface.c:1059 UCX  ERROR ibv_create_cq(cqe=256) failed: Connection timed out
[1740996972.422023] [ohm:3149190:0]        ib_iface.c:1059 UCX  ERROR ibv_create_cq(cqe=256) failed: Connection timed out
[1740996972.433848] [ohm:3149210:0]        ib_iface.c:1059 UCX  ERROR ibv_create_cq(cqe=256) failed: Connection timed out
[1740996972.433835] [ohm:3149203:0]        ib_iface.c:1059 UCX  ERROR ibv_create_cq(cqe=256) failed: Connection timed out
[1740996972.435283] [ohm:3149194:0]        ib_iface.c:1059 UCX  ERROR ibv_create_cq(cqe=256) failed: Connection timed out
[1740996972.442650] [ohm:3149199:0]        ib_iface.c:1059 UCX  ERROR ibv_create_cq(cqe=256) failed: Connection timed out
[1740996972.442943] [ohm:3149207:0]        ib_iface.c:1059 UCX  ERROR ibv_create_cq(cqe=256) failed: Connection timed out

--------------------------------
SUGGESTED CITATIONS FOR THIS RUN
--------------------------------

Below you find a list of papers that are relevant to this ORCA run
We neither can nor want to force you to cite these papers, but we appreciate if you do
You receive ORCA, which is the product of decades of hard work by many enthusiastic individuals, for free
The only thing we kindly ask in return is that you cite our papers,
We deeply appreciate it, if you show your appreciation for ORCA by not just citing the generic ORCA reference.

Please note that relegating all ORCA citations to the supporting information does *not* help us.
SI sections are not indexed - citations you put there will not count into any citation statistics
But we need these citations in order to attract the funding resources that allow us to do what we are doing

Therefore, if you are a happy ORCA user, please consider citing a few of the papers listed below in the main body of your paper

In addition to the list printed below, the program has created the file orca.bibtex that contains the list in bibtex format
You can import this file easily into all common literature databanks and citation aid programs


List of essential papers. We consider these as the minimum necessary citations

  1. Neese,F.
     Software update: the ORCA program system, version 5.0
     WIRES Comput. Molec. Sci., 2022 12(1)e1606
     doi.org/10.1002/wcms.1606

List of papers to cite with high priority. The work reported in these papers was absolutely
necessary for this run to complete.
Our perspective: the developers of density functionals and basis sets usually get cited in chemistry papers
Good! But without the algorithms to do something with them, the functionals or basis sets would not do anything.
Hence, in our opinion, the algorithm design and method developments papers are equally worthy of getting cited

  1. Neese,F.; Olbrich,G.
     Efficient use of the resolution of the identity approximation in time-dependent density functional calculations with hybrid density functionals
     Chem. Phys. Lett., 2002 362 170-178
     doi.org/10.1016/s0009-2614(02)01053-9
  2. Neese,F.
     An improvement of the resolution of the identity approximation for the formation of the Coulomb matrix
     J. Comp. Chem., 2003 24(14)1740-1747
     doi.org/10.1002/jcc.10318
  3. Neese,F.; Wennmohs,F.; Hansen,A.; Becker,U.
     Efficient, approximate and parallel Hartree-Fock and hybrid DFT calculations. A 'chain-of-spheres' algorithm for the Hartree-Fock exchange
     Chem. Phys., 2009 356(1-3)98-109
     doi.org/10.1016/j.chemphys.2008.10.036
  4. Petrenko,T.; Kossmann,S.; Neese,F.
     Efficient time-dependent density functional theory approximations for hybrid density functionals: Analytical gradients and parallelization
     J. Chem. Phys., 2011 134 054116
     doi.org/10.1063/1.3533441
  5. Helmich-Paris,B.; de Souza,B.; Neese,F.; Izsák,R.
     An improved chain of spheres for exchange algorithm
     J. Chem. Phys., 2021 155 104109
     doi.org/doi: 10.1063/5.0058766.
  6. Neese,F.
     The SHARK Integral Generation and Digestion System
     J. Comp. Chem., 2022  1-16
     doi.org/10.1002/jcc.26942
  7. Lehtola,S.; Steigemann,C.; Oliveira,M.; Marques,M.
     Recent developments in Libxc - A comprehensive library of functionals for density functional theory
     Software X, 2018 7 
     doi.org/10.1016/j.softx.2017.11.002
  8. Grimme,S.; Antony,J.; Ehrlich,S.; Krieg,H.
     A consistent and accurate ab initio parametrization of density functional dispersion correction (DFT-D) for the 94 elements H-Pu
     J. Chem. Phys., 2010 132 154104-XXXX
     doi.org/10.1063/1.3382344
  9. Grimme,S.; Ehrlich,S.; Goerigk,L.
     Effect of the damping function in dispersion corrected density functional theory
     J. Comput. Chem., 2011 32(7)1456-1465
     doi.org/10.1002/jcc.21759

List of suggested additional citations. These are papers that are important in the 'surrounding' of 
of this run, or papers that preceded the highly important papers. If you like your results we are grateful for a citation.

  1. Izsak,R.; Neese,F.
     An overlap fitted chain of spheres exchange method
     J. Chem. Phys., 2011 135 144105
     doi.org/10.1063/1.3646921
  2. Izsak,R.; Hansen,A.; Neese,F.
     The resolution of identity and chain of spheres approximations for the LPNO-CCSD singles Fock term
     Molec. Phys., 2012 110 2413-2417
     doi.org/10.1080/00268976.2012.687466
  3. Neese,F.
     The ORCA program system
     WIRES Comput. Molec. Sci., 2012 2(1)73-78
     doi.org/10.1002/wcms.81
  4. Izsak,R.; Neese,F.; Klopper,W.
     Robust fitting techniques in the chain of spheres approximation to the Fock exchange: The role of the complementary space
     J. Chem. Phys., 2013 139 
     doi.org/10.1063/1.4819264
  5. Neese,F.
     Software update: the ORCA program system, version 4.0
     WIRES Comput. Molec. Sci., 2018 8(1)1-6
     doi.org/10.1002/wcms.1327
  6. Neese,F.; Wennmohs,F.; Becker,U.; Riplinger,C.
     The ORCA quantum chemistry program package
     J. Chem. Phys., 2020 152 Art. No. L224108
     doi.org/10.1063/5.0004608

List of optional additional citations

  1. Neese,F.
     Approximate second-order SCF convergence for spin unrestricted wavefunctions
     Chem. Phys. Lett., 2000 325(1-3)93-98
     doi.org/10.1016/s0009-2614(00)00662-x

Timings for individual modules:

Sum of individual times          ...       16.750 sec (=   0.279 min)
Startup calculation              ...        0.991 sec (=   0.017 min)   5.9 %
SCF iterations                   ...        6.724 sec (=   0.112 min)  40.1 %
Property integrals               ...        0.723 sec (=   0.012 min)   4.3 %
Property calculations            ...        0.686 sec (=   0.011 min)   4.1 %
CIS module                       ...        7.626 sec (=   0.127 min)  45.5 %
                             ****ORCA TERMINATED NORMALLY****
TOTAL RUN TIME: 0 days 0 hours 0 minutes 17 seconds 480 msec
