30
Properties=species:S:1:pos:R:3:momenta:R:3:forces:R:3 Coordinates=T from=T ORCA-job=T orca=T E=T -908.931592107915=T energy=-24729.201873833368 free_energy=-24729.201873833368 stress="1.8247630363439285e-06 3.5318955835008945e-07 -1.0883292033386243e-06 3.5318955835008945e-07 1.737983179034893e-06 -8.013375675456655e-07 -1.0883292033386243e-06 -8.013375675456655e-07 -5.071615771365906e-07" pbc="F F F"
O        2.93284153       1.25105916      -0.49984185       0.49633625       0.12098256       0.13280231      -0.30577564      -0.49693090       0.30483335
O       -0.54062069       0.42650653      -1.84540698       0.00348080      -0.13447791       0.20350262       0.06436551      -0.05171828      -0.62035153
O        1.42165006      -2.83639995      -1.81453705      -0.04749662      -0.08506029      -0.02698952       0.29140251       0.15023821      -0.50005874
O       -3.08823256      -1.35924619       1.44664127       0.27809084       0.09040112       0.36694885      -0.01656596      -0.23229041       0.09655720
N        0.79013000      -2.03150271       0.23025433      -0.12183714       0.06219846       0.17541144      -0.18761857      -0.68283615      -0.91884081
N       -2.37051663       0.78697844       1.66377516       0.21340815      -0.07608460      -0.01693964       0.02644224      -0.26437123      -0.26625774
N        2.21092789      -0.81157061      -1.10928954      -0.21312227       0.06080509       0.00844821       0.08530537       1.01760711       0.97064935
N       -1.91916050      -0.38520715      -0.25821065      -0.20717505       0.14920710      -0.20169618      -0.47939881      -0.11065297       0.16284061
C        1.53796922       0.12249322       0.99674773       0.48460349       0.50092063      -0.32418518      -3.35861388      -4.42559914       2.37337286
C       -0.98843754       1.81387361       0.01748399       0.06512859      -0.05422836      -0.17634346      -0.10626022       0.23731080       0.34103968
C        0.81391208      -1.08325498       1.18872635      -0.47593083      -0.47442582       0.22723369       2.16656244       4.44412282      -1.44371205
C       -1.65634174       1.85446915       1.17784574       0.14298656      -0.23261676      -0.16809685       0.28566961      -0.06184733      -0.21486305
C        1.60760353       1.15993448       2.04741799      -0.26318053       0.13584926      -0.26544354       0.43292321       1.00517576      -0.27319567
C       -0.17774345       2.95710612      -0.51844042       0.17234766       0.02967568       0.07635467      -0.11457065      -0.10757678       0.18446493
C        2.26463999       0.26217533      -0.22640102      -0.07816115       0.17943294      -0.12320629       1.26058041       0.65262957      -2.06584110
C       -1.09721314       0.60039521      -0.79048781      -0.18435021      -0.27192588       0.06433222      -0.00491764       0.17974500       0.20970557
C        1.47070740      -1.95898967      -0.98025555      -0.20425004      -0.00637410       0.09663873      -1.41904933      -1.24402228       1.70919462
C       -2.51690088      -0.40252756       0.98597106       0.00271352       0.01842861      -0.07567351       0.74864058       0.16502712      -0.24048332
H        0.26861491      -1.24632115       2.10584698      -0.00315070       0.02968217       0.16291570       0.11792078      -0.12248950       0.39678412
H       -1.64599290       2.72830274       1.80801436      -0.01868983      -0.00013507      -0.02617435      -0.03191670       0.04205254       0.02197552
H        1.34074691       2.13515887       1.62083912       0.00319284      -0.01939618      -0.00653758       0.14441088      -0.21972937       0.18487929
H        0.95412044       0.95402265       2.88529105       0.00472708       0.07418147       0.04750964      -0.06986229      -0.09729692       0.12458563
H        2.63054793       1.26559185       2.39815815      -0.00523366       0.04441494      -0.02027256       0.01439318       0.06574930       0.09713982
H       -0.54448093       3.24925123      -1.49647872       0.08950796      -0.09184724      -0.00475266      -0.01700800       0.05090971      -0.09094535
H       -0.21926598       3.82143881       0.15262438      -0.03713173       0.01228016      -0.06605770      -0.03848817      -0.18208451      -0.09975909
H        0.85997958       2.66588551      -0.64559865       0.00398399       0.01851678      -0.00026975       0.09968597       0.01508719      -0.01189295
H        0.23893755      -2.86625376       0.37410602      -0.11632162       0.00413511       0.00122413       0.16247174       0.18829255      -0.29503742
H       -2.84425409       0.81716129       2.54420329      -0.03652534      -0.04507067      -0.04136758       0.04015850       0.07381261       0.08849934
H        2.68856866      -0.70124251      -1.97993755       0.06730373      -0.00604489      -0.05428617       0.14469406       0.09845823      -0.24909388
H       -1.99191243      -1.24002244      -0.78339179      -0.01525475      -0.03342431       0.03497031       0.06441885      -0.08677276       0.02381084
