
                                 *****************
                                 * O   R   C   A *
                                 *****************

                                            #,                                       
                                            ###                                      
                                            ####                                     
                                            #####                                    
                                            ######                                   
                                           ########,                                 
                                     ,,################,,,,,                         
                               ,,#################################,,                 
                          ,,##########################################,,             
                       ,#########################################, ''#####,          
                    ,#############################################,,   '####,        
                  ,##################################################,,,,####,       
                ,###########''''           ''''###############################       
              ,#####''   ,,,,##########,,,,          '''####'''          '####       
            ,##' ,,,,###########################,,,                        '##       
           ' ,,###''''                  '''############,,,                           
         ,,##''                                '''############,,,,        ,,,,,,###''
      ,#''                                            '''#######################'''  
     '                                                          ''''####''''         
             ,#######,   #######,   ,#######,      ##                                
            ,#'     '#,  ##    ##  ,#'     '#,    #''#        ,####,   ,####,        
            ##       ##  ##   ,#'  ##            #'  '#       #'       #'  '#        
            ##       ##  #######   ##           ,######,      #####,   #    #        
            '#,     ,#'  ##    ##  '#,     ,#' ,#      #,     #,   #   #,  ,#        
             '#######'   ##     ##  '#######'  #'      '#     '####' # '####'        



                #########################################################
                #                        -***-                          #
                #          Department of theory and spectroscopy        #
                #                                                       #
                #                      Frank Neese                      #
                #                                                       #
                #     Directorship, Architecture, Infrastructure        #
                #                    SHARK, DRIVERS                     #
                #        Core code/Algorithms in most modules           #
                #                                                       #
                #        Max Planck Institute fuer Kohlenforschung      #
                #                Kaiser Wilhelm Platz 1                 #
                #                 D-45470 Muelheim/Ruhr                 #
                #                      Germany                          #
                #                                                       #
                #                  All rights reserved                  #
                #                        -***-                          #
                #########################################################


                         Program Version 6.0.0  -   RELEASE  -


 With contributions from (in alphabetic order):
   Daniel Aravena         : Magnetic Suceptibility
   Michael Atanasov       : Ab Initio Ligand Field Theory (pilot matlab implementation)
   Alexander A. Auer      : GIAO ZORA, VPT2 properties, NMR spectrum
   Ute Becker             : All parallelization in ORCA, NUMFREQ, NUMCALC
   Giovanni Bistoni       : ED, misc. LED, open-shell LED, HFLD
   Martin Brehm           : Molecular dynamics
   Dmytro Bykov           : pre 5.0 version of the SCF Hessian
   Marcos Casanova-Páez   : Triplet and SCS-CIS(D). UHF-(DLPNO)-IP/EA/STEOM-CCSD. UHF-CVS-IP/STEOM-CCSD
   Vijay G. Chilkuri      : MRCI spin determinant printing, contributions to CSF-ICE
   Pauline Colinet        : FMM embedding
   Dipayan Datta          : RHF DLPNO-CCSD density
   Achintya Kumar Dutta   : EOM-CC, STEOM-CC
   Nicolas Foglia         : Exact transition moments, OPA infrastructure, MCD improvements
   Dmitry Ganyushin       : Spin-Orbit,Spin-Spin,Magnetic field MRCI
   Miquel Garcia          : C-PCM and meta-GGA Hessian, CCSD/C-PCM, Gaussian charge scheme
   Tiago L. C. Gouveia    : GS-ROHF, GS-ROCIS
   Yang Guo               : DLPNO-NEVPT2, F12-NEVPT2, CIM, IAO-localization
   Andreas Hansen         : Spin unrestricted coupled pair/coupled cluster methods
   Ingolf Harden          : AUTO-CI MPn and infrastructure 
   Benjamin Helmich-Paris : MC-RPA, TRAH-(SCF,CASSCF), AVAS, COSX integrals, SCF dyn. polar.
   Lee Huntington         : MR-EOM, pCC
   Robert Izsak           : Overlap fitted RIJCOSX, COSX-SCS-MP3, EOM
   Riya Kayal             : Wick's Theorem for AUTO-CI, AUTO-CI UHF-CCSDT
   Emily Kempfer          : AUTO-CI, RHF CISDT and CCSDT
   Christian Kollmar      : KDIIS, OOCD, Brueckner-CCSD(T), CCSD density, CASPT2, CASPT2-K, improved NEVPT2
   Axel Koslowski         : Symmetry handling
   Simone Kossmann        : Meta GGA functionals, TD-DFT gradient, OOMP2, (MP2 Hessian; deprecated post 5.0)
   Lucas Lang             : DCDCAS
   Marvin Lechner         : AUTO-CI (C++ implementation), FIC-MRCC
   Spencer Leger          : CASSCF response
   Dagmar Lenk            : GEPOL surface, SMD, ORCA-2-JSON
   Dimitrios Liakos       : Extrapolation schemes; Compound Job, initial MDCI parallelization
   Dimitrios Manganas     : Further ROCIS development; embedding schemes. LFT, Crystal Embedding
   Dimitrios Pantazis     : SARC Basis sets
   Anastasios Papadopoulos: AUTO-CI, single reference methods and gradients
   Taras Petrenko         : pre 6.0 DFT Hessian and TD-DFT gradient, (ASA, deprecated), ECA, 1-Electron XAS/XES, NRVS
   Peter Pinski           : DLPNO-MP2, DLPNO-MP2 Gradient
   Christoph Reimann      : Effective Core Potentials
   Marius Retegan         : Local ZFS, SOC
   Christoph Riplinger    : Optimizer, TS searches, QM/MM, DLPNO-CCSD(T), (RO)-DLPNO pert. Triples
   Michael Roemelt        : Original ROCIS implementation
   Masaaki Saitow         : Open-shell DLPNO-CCSD energy and density
   Barbara Sandhoefer     : DKH picture change effects
   Kantharuban Sivalingam : CASSCF convergence/infrastructure, NEVPT2 and variants, FIC-MRCI
   Bernardo de Souza      : ESD, SOC TD-DFT
   Georgi Stoychev        : AutoAux, RI-MP2 NMR, DLPNO-MP2 response, X2C
   Van Anh Tran           : RI-MP2 g-tensors
   Willem Van den Heuvel  : Paramagnetic NMR
   Zikuan Wang            : NOTCH, Electric field optimization 
   Frank Wennmohs         : Technical directorship and infrastructure
   Hang Xu                : AUTO-CI-Response properties 


 We gratefully acknowledge several colleagues who have allowed us to
 interface, adapt or use parts of their codes:
   Stefan Grimme, W. Hujo, H. Kruse, P. Pracht,  : VdW corrections, initial TS optimization,
                  C. Bannwarth, S. Ehlert,         DFT functionals, gCP, sTDA/sTD-DF
                  L. Wittmann, M. Mueller
   Ed Valeev, F. Pavosevic, A. Kumar             : LibInt (2-el integral package), F12 methods
   Garnet Chan, S. Sharma, J. Yang, R. Olivares  : DMRG
   Ulf Ekstrom                                   : XCFun DFT Library
   Mihaly Kallay                                 : mrcc  (arbitrary order and MRCC methods)
   Frank Weinhold                                : gennbo (NPA and NBO analysis)
   Simon Mueller                                 : openCOSMO-RS
   Christopher J. Cramer and Donald G. Truhlar   : smd solvation model
   Lars Goerigk                                  : TD-DFT with DH, B97 family of functionals
   V. Asgeirsson, H. Jonsson                     : NEB implementation
   FAccTs GmbH                                   : IRC, NEB, NEB-TS, DLPNO-Multilevel, CI-OPT
                                                   MM, QMMM, 2- and 3-layer-ONIOM, Crystal-QMMM,
                                                   LR-CPCM, SF, NACMEs, symmetry and pop. for TD-DFT,
                                                   nearIR, NL-DFT gradient (VV10), updates on ESD,
                                                   ML-optimized integration grids, MBIS, APM,
                                                   GOAT, DOCKER, SOLVATOR, interface openCOSMO-RS
   S Lehtola, MJT Oliveira, MAL Marques          : LibXC Library
   Liviu Ungur et al                             : ANISO software


 Your calculation uses the libint2 library for the computation of 2-el integrals
 For citations please refer to: http://libint.valeyev.net

 Your ORCA version has been built with support for libXC version: 6.2.2
 For citations please refer to: https://libxc.gitlab.io

 This ORCA versions uses:
   CBLAS   interface :  Fast vector & matrix operations
   LAPACKE interface :  Fast linear algebra routines
   SCALAPACK package :  Parallel linear algebra routines
   Shared memory     :  Shared parallel matrices
   BLAS/LAPACK       :  OpenBLAS 0.3.27  USE64BITINT DYNAMIC_ARCH NO_AFFINITY Zen SINGLE_THREADED
        Core in use  :  Zen
   Copyright (c) 2011-2014, The OpenBLAS Project


Your calculation utilizes the atom-pairwise dispersion correction
with the Becke-Johnson damping scheme (D3BJ)


Warning: RI is on but no J-basis has been assigned. Assigning Def2/J (nothing to worry about!)
================================================================================

----- Orbital basis set information -----
Your calculation utilizes the basis: def2-TZVPPD
   F. Weigend and R. Ahlrichs, Phys. Chem. Chem. Phys. 7, 3297 (2005).
   D. Rappoport and F. Furche, J. Chem. Phys. 133, 134105 (2010)
   D. Rappoport, J. Chem. Phys. 155, 124102 (2021).

----- AuxJ basis set information -----
Your calculation utilizes the auxiliary basis: def2/J
   F. Weigend, Phys. Chem. Chem. Phys. 8, 1057 (2006).

================================================================================
                                        WARNINGS
                       Please study these warnings very carefully!
================================================================================

Using LibXC functional ID 531 : wB97M-V exchange-correlation functional
[ 1]  N. Mardirossian and M. Head-Gordon.,  J. Chem. Phys. 144, 214110 (2016)
Using LibXC functional ID 531 : wB97M-V exchange-correlation functional
[ 1]  N. Mardirossian and M. Head-Gordon.,  J. Chem. Phys. 144, 214110 (2016)

WARNING: B97M-V or wB97M-V functional requested.
  ===> : libXC variant has now been activated.
         Any manually given DFX/HFX/RangeSep scaling parameters are IGNORED!

Your calculation utilizes LibXC
 by S Lehtola, C Steigemann, MJT Oliveira & MAL Marques
Please cite in your paper:
 S Lehtola, C Steigemann, MJT Oliveira & MAL Marques, SoftwareX, 7, (2018), 1.
   

INFO   : Checking CIS options ...

WARNING: CIS/ROCIS methods need fully converged wavefunctions
  ===> : Setting SCFConvForced true
         You can overwrite this default with %scf ConvForced false 


================================================================================
                                       INPUT FILE
================================================================================
NAME = orca.inp
|  1> ! ENGRAD wB97M-D3BJ def2-TZVPPD 
|  2> %pal nprocs 8 end%pal nprocs 16 end 
|  3> %tddft nroots 4 Iroot 1 end 
|  4> *xyz 0 1 
|  5> O   0.18335325050739 0.86323335788563 -0.00011587997742
|  6> C   0.72456665082955 -0.39280727052312 3.624717183e-05
|  7> C   -0.69358324081742 -0.49169076765207 -8.257840948e-05
|  8> H   1.26464779709197 -0.67806437177246 0.90234069510871
|  9> H   1.26466141424854 -0.67814718276658 -0.90224834928315
| 10> H   -1.23269026458343 -0.60491025208333 -0.92583832728184
| 11> H   -1.23244144828648 -0.60425620477951 0.92590819267135
| 12> *
| 13> 
| 14>                          ****END OF INPUT****
================================================================================

                     *******************************
                     * Energy+Gradient Calculation *
                     *******************************

---------------------------------
CARTESIAN COORDINATES (ANGSTROEM)
---------------------------------
  O      0.183353    0.863233   -0.000116
  C      0.724567   -0.392807    0.000036
  C     -0.693583   -0.491691   -0.000083
  H      1.264648   -0.678064    0.902341
  H      1.264661   -0.678147   -0.902248
  H     -1.232690   -0.604910   -0.925838
  H     -1.232441   -0.604256    0.925908

----------------------------
CARTESIAN COORDINATES (A.U.)
----------------------------
  NO LB      ZA    FRAG     MASS         X           Y           Z
   0 O     8.0000    0    15.999    0.346487    1.631275   -0.000219
   1 C     6.0000    0    12.011    1.369233   -0.742298    0.000068
   2 C     6.0000    0    12.011   -1.310682   -0.929161   -0.000156
   3 H     1.0000    0     1.008    2.389838   -1.281356    1.705177
   4 H     1.0000    0     1.008    2.389864   -1.281512   -1.705002
   5 H     1.0000    0     1.008   -2.329447   -1.143115   -1.749581
   6 H     1.0000    0     1.008   -2.328977   -1.141879    1.749713

--------------------------------
INTERNAL COORDINATES (ANGSTROEM)
--------------------------------
 O      0   0   0     0.000000000000     0.00000000     0.00000000
 C      1   0   0     1.367680528502     0.00000000     0.00000000
 C      2   1   0     1.421593146896    70.67796128     0.00000000
 H      2   1   3     1.089592848328   115.89155400   246.99006113
 H      2   1   3     1.089604842129   115.88427577   113.00120369
 H      3   2   1     1.077255188569   120.43863923    94.65426779
 H      3   2   1     1.077264152156   120.41069638   265.37625939

---------------------------
INTERNAL COORDINATES (A.U.)
---------------------------
 O      0   0   0     0.000000000000     0.00000000     0.00000000
 C      1   0   0     2.584541637566     0.00000000     0.00000000
 C      2   1   0     2.686421721493    70.67796128     0.00000000
 H      2   1   3     2.059032080820   115.89155400   246.99006113
 H      2   1   3     2.059054745819   115.88427577   113.00120369
 H      3   2   1     2.035717282741   120.43863923    94.65426779
 H      3   2   1     2.035734221465   120.41069638   265.37625939

---------------------
BASIS SET INFORMATION
---------------------
There are 3 groups of distinct atoms

 Group   1 Type O   : 12s7p3d1f contracted to 6s4p3d1f pattern {621111/4111/111/1}
 Group   2 Type C   : 12s6p3d1f contracted to 6s3p3d1f pattern {621111/411/111/1}
 Group   3 Type H   : 5s3p1d contracted to 3s3p1d pattern {311/111/1}

Atom   0O    basis set group =>   1
Atom   1C    basis set group =>   2
Atom   2C    basis set group =>   2
Atom   3H    basis set group =>   3
Atom   4H    basis set group =>   3
Atom   5H    basis set group =>   3
Atom   6H    basis set group =>   3
---------------------------------
AUXILIARY/J BASIS SET INFORMATION
---------------------------------
There are 3 groups of distinct atoms

 Group   1 Type O   : 12s5p4d2f1g contracted to 6s4p3d1f1g pattern {711111/2111/211/2/1}
 Group   2 Type C   : 12s5p4d2f1g contracted to 6s4p3d1f1g pattern {711111/2111/211/2/1}
 Group   3 Type H   : 5s2p1d contracted to 3s1p1d pattern {311/2/1}

Atom   0O    basis set group =>   1
Atom   1C    basis set group =>   2
Atom   2C    basis set group =>   2
Atom   3H    basis set group =>   3
Atom   4H    basis set group =>   3
Atom   5H    basis set group =>   3
Atom   6H    basis set group =>   3
[1741191050.046550] [ohm:189898:0]        ib_iface.c:1059 UCX  ERROR ibv_create_cq(cqe=256) failed: Connection timed out
[1741191050.096052] [ohm:189897:0]        ib_iface.c:1059 UCX  ERROR ibv_create_cq(cqe=256) failed: Connection timed out
[1741191050.096060] [ohm:189907:0]        ib_iface.c:1059 UCX  ERROR ibv_create_cq(cqe=256) failed: Connection timed out
[1741191050.101981] [ohm:189900:0]        ib_iface.c:1059 UCX  ERROR ibv_create_cq(cqe=256) failed: Connection timed out
[1741191050.101983] [ohm:189902:0]        ib_iface.c:1059 UCX  ERROR ibv_create_cq(cqe=256) failed: Connection timed out
[1741191050.104084] [ohm:189918:0]        ib_iface.c:1059 UCX  ERROR ibv_create_cq(cqe=256) failed: Connection timed out
[1741191050.105413] [ohm:189895:0]        ib_iface.c:1059 UCX  ERROR ibv_create_cq(cqe=256) failed: Connection timed out
[1741191050.109682] [ohm:189896:0]        ib_iface.c:1059 UCX  ERROR ibv_create_cq(cqe=256) failed: Connection timed out
[1741191050.114110] [ohm:189899:0]        ib_iface.c:1059 UCX  ERROR ibv_create_cq(cqe=256) failed: Connection timed out
[1741191050.117475] [ohm:189910:0]        ib_iface.c:1059 UCX  ERROR ibv_create_cq(cqe=256) failed: Connection timed out
[1741191050.119952] [ohm:189925:0]        ib_iface.c:1059 UCX  ERROR ibv_create_cq(cqe=256) failed: Connection timed out
[1741191050.120830] [ohm:189905:0]        ib_iface.c:1059 UCX  ERROR ibv_create_cq(cqe=256) failed: Connection timed out
[1741191050.121183] [ohm:189901:0]        ib_iface.c:1059 UCX  ERROR ibv_create_cq(cqe=256) failed: Connection timed out
[1741191050.121183] [ohm:189903:0]        ib_iface.c:1059 UCX  ERROR ibv_create_cq(cqe=256) failed: Connection timed out
[1741191050.138942] [ohm:189920:0]        ib_iface.c:1059 UCX  ERROR ibv_create_cq(cqe=256) failed: Connection timed out
[1741191050.141661] [ohm:189912:0]        ib_iface.c:1059 UCX  ERROR ibv_create_cq(cqe=256) failed: Connection timed out


           ************************************************************
           *        Program running with 16 parallel MPI-processes    *
           *              working on a common directory               *
           ************************************************************
------------------------------------------------------------------------------
                             ORCA STARTUP CALCULATIONS
                           -- RI-GTO INTEGRALS CHOSEN --
------------------------------------------------------------------------------
------------------------------------------------------------------------------
                   ___                                                        
                  /   \      - P O W E R E D   B Y -                         
                 /     \                                                     
                 |  |  |   _    _      __       _____    __    __             
                 |  |  |  | |  | |    /  \     |  _  \  |  |  /  |          
                  \  \/   | |  | |   /    \    | | | |  |  | /  /          
                 / \  \   | |__| |  /  /\  \   | |_| |  |  |/  /          
                |  |  |   |  __  | /  /__\  \  |    /   |      \           
                |  |  |   | |  | | |   __   |  |    \   |  |\   \          
                \     /   | |  | | |  |  |  |  | |\  \  |  | \   \       
                 \___/    |_|  |_| |__|  |__|  |_| \__\ |__|  \__/        
                                                                              
                      - O R C A' S   B I G   F R I E N D -                    
                                      &                                       
                       - I N T E G R A L  F E E D E R -                       
                                                                              
 v1 FN, 2020, v2 2021, v3 2022-2024                                           
------------------------------------------------------------------------------


----------------------
SHARK INTEGRAL PACKAGE
----------------------

Number of atoms                             ...      7
Number of basis functions                   ...    182
Number of shells                            ...     68
Maximum angular momentum                    ...      3
Integral batch strategy                     ... SHARK/LIBINT Hybrid
RI-J (if used) integral strategy            ... SPLIT-RIJ (Revised 2003 algorithm where possible)
Printlevel                                  ...      1
Contraction scheme used                     ... SEGMENTED contraction
Prescreening option                         ... SCHWARTZ
   Thresh                                   ... 2.500e-11
   Tcut                                     ... 2.500e-12
   Tpresel                                  ... 2.500e-12 
Coulomb Range Separation                    ... NOT USED
Exchange Range Separation                   ... Long Range
   Mu parameter                             ... 3.000e-01
   Scaling (regular/separated)              ... 1.500e-01 8.500e-01
Multipole approximations                    ... NOT USED
Finite Nucleus Model                        ... NOT USED
CABS basis                                  ... NOT available
Auxiliary Coulomb fitting basis             ... AVAILABLE
   # of basis functions in Aux-J            ...    191
   # of shells in Aux-J                     ...     65
   Maximum angular momentum in Aux-J        ...      4
Auxiliary J/K fitting basis                 ... NOT available
Auxiliary Correlation fitting basis         ... NOT available
Auxiliary 'external' fitting basis          ... NOT available

Checking pre-screening integrals            ... done (  0.0 sec) Dimension = 68
Check shell pair data                       ... done (  0.0 sec)
Shell pair information
Shell pair cut-off parameter TPreSel        ...   2.5e-12
Total number of shell pairs                 ...      2346
Shell pairs after pre-screening             ...      2342
Total number of primitive shell pairs       ...      5434
Primitive shell pairs kept                  ...      4922
          la=0 lb=0:    461 shell pairs
          la=1 lb=0:    660 shell pairs
          la=1 lb=1:    253 shell pairs
          la=2 lb=0:    390 shell pairs
          la=2 lb=1:    286 shell pairs
          la=2 lb=2:     91 shell pairs
          la=3 lb=0:     90 shell pairs
          la=3 lb=1:     66 shell pairs
          la=3 lb=2:     39 shell pairs
          la=3 lb=3:      6 shell pairs

Calculating one electron integrals          ... done (  0.0 sec)
Calculating RI/J V-Matrix + Cholesky decomp.... done (  0.0 sec)
Calculating Nuclear repulsion               ... done (  0.0 sec) ENN=     74.466721755018 Eh

Diagonalization of the overlap matrix:
Smallest eigenvalue                        ... 9.164e-06
Time for diagonalization                   ...    0.003 sec
Threshold for overlap eigenvalues          ... 1.000e-07
Number of eigenvalues below threshold      ... 0
Time for construction of square roots      ...    0.002 sec
Total time needed                          ...    0.006 sec

-------------------
DFT GRID GENERATION
-------------------

General Integration Accuracy     IntAcc      ... 4.388
Radial Grid Type                 RadialGrid  ... OptM3 with GC (2021)
Angular Grid (max. ang.)         AngularGrid ... 4 (Lebedev-302)
Angular grid pruning method      GridPruning ... 4 (adaptive)
Weight generation scheme         WeightScheme... mBecke (2022)
Basis function cutoff            BFCut       ... 1.0000e-11
Integration weight cutoff        WCut        ... 1.0000e-14
Partially contracted basis set               ... off
Rotationally invariant grid construction     ... off
Angular grids for H and He will be reduced by one unit
Diffuse basis detected: some atoms will have their outermost
                        angular grid increased by 1.

Total number of grid points                  ...    33076
Total number of batches                      ...      522
Average number of points per batch           ...       63
Average number of grid points per atom       ...     4725

--------------------
COSX GRID GENERATION
--------------------

GRIDX 1
-------
General Integration Accuracy     IntAcc      ... 3.816
Radial Grid Type                 RadialGrid  ... OptM3 with GC (2021)
Angular Grid (max. ang.)         AngularGrid ... 1 (Lebedev-50)
Angular grid pruning method      GridPruning ... 4 (adaptive)
Weight generation scheme         WeightScheme... mBecke (2022)
Basis function cutoff            BFCut       ... 1.0000e-11
Integration weight cutoff        WCut        ... 1.0000e-14
Partially contracted basis set               ... on
Rotationally invariant grid construction     ... off
Angular grids for H and He will be reduced by one unit
Diffuse basis detected: some atoms will have their outermost
                        angular grid increased by 1.

Total number of grid points                  ...     4171
Total number of batches                      ...       36
Average number of points per batch           ...      115
Average number of grid points per atom       ...      596
UseSFitting                                  ... on

GRIDX 2
-------
General Integration Accuracy     IntAcc      ... 4.020
Radial Grid Type                 RadialGrid  ... OptM3 with GC (2021)
Angular Grid (max. ang.)         AngularGrid ... 2 (Lebedev-110)
Angular grid pruning method      GridPruning ... 4 (adaptive)
Weight generation scheme         WeightScheme... mBecke (2022)
Basis function cutoff            BFCut       ... 1.0000e-11
Integration weight cutoff        WCut        ... 1.0000e-14
Partially contracted basis set               ... on
Rotationally invariant grid construction     ... off
Angular grids for H and He will be reduced by one unit
Diffuse basis detected: some atoms will have their outermost
                        angular grid increased by 1.

Total number of grid points                  ...    10243
Total number of batches                      ...       83
Average number of points per batch           ...      123
Average number of grid points per atom       ...     1463
UseSFitting                                  ... on

GRIDX 3
-------
General Integration Accuracy     IntAcc      ... 4.338
Radial Grid Type                 RadialGrid  ... OptM3 with GC (2021)
Angular Grid (max. ang.)         AngularGrid ... 3 (Lebedev-194)
Angular grid pruning method      GridPruning ... 4 (adaptive)
Weight generation scheme         WeightScheme... mBecke (2022)
Basis function cutoff            BFCut       ... 1.0000e-11
Integration weight cutoff        WCut        ... 1.0000e-14
Partially contracted basis set               ... on
Rotationally invariant grid construction     ... off
Angular grids for H and He will be reduced by one unit
Diffuse basis detected: some atoms will have their outermost
                        angular grid increased by 1.

Total number of grid points                  ...    23023
Total number of batches                      ...      184
Average number of points per batch           ...      125
Average number of grid points per atom       ...     3289
UseSFitting                                  ... on
Initializing property integral containers    ... done (  0.0 sec)

SHARK setup successfully completed in   0.4 seconds

Maximum memory used throughout the entire STARTUP-calculation: 13.8 MB
[1741191051.344414] [ohm:189982:0]        ib_iface.c:1059 UCX  ERROR ibv_create_cq(cqe=256) failed: Connection timed out
[1741191051.374070] [ohm:189981:0]        ib_iface.c:1059 UCX  ERROR ibv_create_cq(cqe=256) failed: Connection timed out
[1741191051.375488] [ohm:189989:0]        ib_iface.c:1059 UCX  ERROR ibv_create_cq(cqe=256) failed: Connection timed out
[1741191051.376809] [ohm:189980:0]        ib_iface.c:1059 UCX  ERROR ibv_create_cq(cqe=256) failed: Connection timed out
[1741191051.378522] [ohm:189983:0]        ib_iface.c:1059 UCX  ERROR ibv_create_cq(cqe=256) failed: Connection timed out
[1741191051.381093] [ohm:189978:0]        ib_iface.c:1059 UCX  ERROR ibv_create_cq(cqe=256) failed: Connection timed out
[1741191051.388438] [ohm:189979:0]        ib_iface.c:1059 UCX  ERROR ibv_create_cq(cqe=256) failed: Connection timed out
[1741191051.391950] [ohm:189984:0]        ib_iface.c:1059 UCX  ERROR ibv_create_cq(cqe=256) failed: Connection timed out
[1741191051.393423] [ohm:189994:0]        ib_iface.c:1059 UCX  ERROR ibv_create_cq(cqe=256) failed: Connection timed out
[1741191051.398664] [ohm:189986:0]        ib_iface.c:1059 UCX  ERROR ibv_create_cq(cqe=256) failed: Connection timed out
[1741191051.406609] [ohm:189985:0]        ib_iface.c:1059 UCX  ERROR ibv_create_cq(cqe=256) failed: Connection timed out
[1741191051.411567] [ohm:189993:0]        ib_iface.c:1059 UCX  ERROR ibv_create_cq(cqe=256) failed: Connection timed out
[1741191051.413264] [ohm:189997:0]        ib_iface.c:1059 UCX  ERROR ibv_create_cq(cqe=256) failed: Connection timed out
[1741191051.421431] [ohm:189988:0]        ib_iface.c:1059 UCX  ERROR ibv_create_cq(cqe=256) failed: Connection timed out
[1741191051.431046] [ohm:190004:0]        ib_iface.c:1059 UCX  ERROR ibv_create_cq(cqe=256) failed: Connection timed out
[1741191051.436996] [ohm:190001:0]        ib_iface.c:1059 UCX  ERROR ibv_create_cq(cqe=256) failed: Connection timed out


           ************************************************************
           *        Program running with 16 parallel MPI-processes    *
           *              working on a common directory               *
           ************************************************************
-------------------------------------------------------------------------------
                                 ORCA GUESS
                   Start orbitals & Density for SCF / CASSCF
-------------------------------------------------------------------------------

------------
SCF SETTINGS
------------
Hamiltonian:
 Density Functional     Method          .... DFT(GTOs)
  Functional kind                       .... Exchange-Correlation
  Functional name                       .... wB97M-V exchange-correlation functional
  Functional family                     .... Hybrid MGGA
  Functional refs                              
    [ 0] N. Mardirossian and M. Head-Gordon.,  J. Chem. Phys. 144, 214110 (2016), doi: 10.1063/1.4952647
  Fraction of HF Exchange (short range) .... 0.1500
  Fraction of HF Exchange (long range)  .... 1.0000
  Range separation parameter mu         .... 0.3000
  Functional external parameters        .... 17
    Parameter  0 _cx00      =  8.500000e-01 : u^00 coefficient for exchange
    Parameter  1 _cx01      =  1.007000e+00 : u^01 coefficient for exchange
    Parameter  2 _cx10      =  2.590000e-01 : u^10 coefficient for exchange
    Parameter  3 _css00     =  4.430000e-01 : u^00 coefficient for same-spin correlation
    Parameter  4 _css04     = -1.437000e+00 : u^04 coefficient for same-spin correlation
    Parameter  5 _css10     = -4.535000e+00 : u^10 coefficient for same-spin correlation
    Parameter  6 _css20     = -3.390000e+00 : u^20 coefficient for same-spin correlation
    Parameter  7 _css43     =  4.278000e+00 : u^43 coefficient for same-spin correlation
    Parameter  8 _cos00     =  1.000000e+00 : u^00 coefficient for opposite-spin correlation
    Parameter  9 _cos10     =  1.358000e+00 : u^10 coefficient for opposite-spin correlation
    Parameter 10 _cos20     =  2.924000e+00 : u^20 coefficient for opposite-spin correlation
    Parameter 11 _cos21     = -8.812000e+00 : u^21 coefficient for opposite-spin correlation
    Parameter 12 _cos60     = -1.390000e+00 : u^60 coefficient for opposite-spin correlation
    Parameter 13 _cos61     =  9.142000e+00 : u^61 coefficient for opposite-spin correlation
    Parameter 14 _alpha     =  1.000000e+00 : fraction of HF exchange
    Parameter 15 _beta      = -8.500000e-01 : fraction of short-range exchange
    Parameter 16 _omega     =  3.000000e-01 : range-separation constant
 Long-range corrected/Screened/Range-Separated Hybrid DFT is turned on
   Amount of maximum screened exact exchange              ....  0.850000
   Range separation parameter mu (erf(mu*r12)/r12)        ....  0.300000
 RI-approximation to the Coulomb term is turned on
   Number of AuxJ basis functions       .... 191
   RIJ-COSX (HFX calculated with COS-X)).... on


General Settings:
 Integral files         IntName         .... orca
 Hartree-Fock type      HFTyp           .... RHF
 Total Charge           Charge          ....    0
 Multiplicity           Mult            ....    1
 Number of Electrons    NEL             ....   24
 Basis Dimension        Dim             ....  182
 Nuclear Repulsion      ENuc            ....     74.4667217550 Eh

Convergence Acceleration:
 AO-DIIS                CNVDIIS         .... on
   Start iteration      DIISMaxIt       ....    12
   Startup error        DIISStart       ....  0.200000
   # of expansion vecs  DIISMaxEq       ....     5
   Bias factor          DIISBfac        ....   1.050
   Max. coefficient     DIISMaxC        ....  10.000
 MO-DIIS                CNVKDIIS        .... off
 Trust-Rad. Augm. Hess. CNVTRAH         .... auto
   Auto Start mean grad. ratio tolernc. ....  1.125000
   Auto Start start iteration           ....    50
   Auto Start num. interpolation iter.  ....    10
   Max. Number of Micro iterations      ....    24
   Max. Number of Macro iterations      .... Maxiter - #DIIS iter
   Number of Davidson start vectors     ....     2
   Converg. threshold    (grad. norm)   ....   1.000e-05
   Grad. Scal. Fac. for Micro threshold ....   0.100
   Minimum threshold for Micro iter.    ....   1.000e-02
   NR start threshold (gradient norm)   ....   1.000e-04
   Initial trust radius                 ....   0.400
   Minimum AH scaling param. (alpha)    ....   1.000
   Maximum AH scaling param. (alpha)    .... 1000.000
   Quad. conv. algorithm                .... NR
   White noise on init. David. guess    .... on
   Maximum white noise                  ....   0.010
   Pseudo random numbers                .... off
   Inactive MOs                         .... canonical
   Orbital update algorithm             .... Taylor
   Preconditioner                       .... Diag
   Full preconditioner red. dimension   ....   250
 SOSCF                  CNVSOSCF        .... on
   Start iteration      SOSCFMaxIt      ....   150
   Startup grad/error   SOSCFStart      ....  0.003300
   Hessian update       SOSCFHessUp     .... L-BFGS
 Level Shifting         CNVShift        .... on
   Level shift para.    LevelShift      ....    0.2500
   Turn off err/grad.   ShiftErr        ....    0.0010
 Zerner damping         CNVZerner       .... off
 Static damping         CNVDamp         .... on
   Fraction old density DampFac         ....    0.7000
   Max. Damping (<1)    DampMax         ....    0.9800
   Min. Damping (>=0)   DampMin         ....    0.0000
   Turn off err/grad.   DampErr         ....    0.1000

SCF Procedure:
 Maximum # iterations   MaxIter         ....   125
 SCF integral mode      SCFMode         .... Direct
   Integral package                     .... SHARK and LIBINT hybrid scheme
 Reset frequency        DirectResetFreq ....    20
 Integral Threshold     Thresh          ....  2.500e-11 Eh
 Primitive CutOff       TCut            ....  2.500e-12 Eh

Convergence Tolerance:
 Convergence Check Mode ConvCheckMode   .... Total+1el-Energy
 Convergence forced     ConvForced      .... 1
 Energy Change          TolE            ....  1.000e-08 Eh
 1-El. energy change                    ....  1.000e-05 Eh
 Orbital Gradient       TolG            ....  1.000e-05
 Orbital Rotation angle TolX            ....  1.000e-05
 DIIS Error             TolErr          ....  5.000e-07

------------------------------
INITIAL GUESS: MODEL POTENTIAL
------------------------------
Loading Hartree-Fock densities                     ... done
Calculating cut-offs                               ... done
Initializing the effective Hamiltonian             ... done
Setting up the integral package (SHARK)            ... done
Starting the Coulomb interaction                   ... done (   0.7 sec)
Making the grid                                    ... done (   0.9 sec)
Mapping shells                                     ... done
Starting the XC term evaluation                    ... done (   0.1 sec)
  promolecular density results
     # of electrons  =     23.997176437
     EX              =    -19.533681877
     EC              =     -0.780365338
     EX+EC           =    -20.314047216
Transforming the Hamiltonian                       ... done (   0.3 sec)
Diagonalizing the Hamiltonian                      ... done (   0.0 sec)
Back transforming the eigenvectors                 ... done (   0.0 sec)
Now organizing SCF variables                       ... done
                      ------------------
                      INITIAL GUESS DONE (   2.1 sec)
                      ------------------
             **** ENERGY FILE WAS UPDATED (orca.en.tmp) ****
Finished Guess after   3.4 sec
Maximum memory used throughout the entire GUESS-calculation: 9.7 MB
[1741191055.321111] [ohm:190065:0]        ib_iface.c:1059 UCX  ERROR ibv_create_cq(cqe=256) failed: Connection timed out
[1741191055.329845] [ohm:190061:0]        ib_iface.c:1059 UCX  ERROR ibv_create_cq(cqe=256) failed: Connection timed out
[1741191055.331443] [ohm:190063:0]        ib_iface.c:1059 UCX  ERROR ibv_create_cq(cqe=256) failed: Connection timed out
[1741191055.340246] [ohm:190062:0]        ib_iface.c:1059 UCX  ERROR ibv_create_cq(cqe=256) failed: Connection timed out
[1741191055.341319] [ohm:190064:0]        ib_iface.c:1059 UCX  ERROR ibv_create_cq(cqe=256) failed: Connection timed out
[1741191055.343470] [ohm:190068:0]        ib_iface.c:1059 UCX  ERROR ibv_create_cq(cqe=256) failed: Connection timed out
[1741191055.357160] [ohm:190074:0]        ib_iface.c:1059 UCX  ERROR ibv_create_cq(cqe=256) failed: Connection timed out
[1741191055.357166] [ohm:190072:0]        ib_iface.c:1059 UCX  ERROR ibv_create_cq(cqe=256) failed: Connection timed out
[1741191055.359335] [ohm:190073:0]        ib_iface.c:1059 UCX  ERROR ibv_create_cq(cqe=256) failed: Connection timed out
[1741191055.359917] [ohm:190070:0]        ib_iface.c:1059 UCX  ERROR ibv_create_cq(cqe=256) failed: Connection timed out
[1741191055.360156] [ohm:190084:0]        ib_iface.c:1059 UCX  ERROR ibv_create_cq(cqe=256) failed: Connection timed out
[1741191055.362010] [ohm:190066:0]        ib_iface.c:1059 UCX  ERROR ibv_create_cq(cqe=256) failed: Connection timed out
[1741191055.363022] [ohm:190067:0]        ib_iface.c:1059 UCX  ERROR ibv_create_cq(cqe=256) failed: Connection timed out
[1741191055.368102] [ohm:190090:0]        ib_iface.c:1059 UCX  ERROR ibv_create_cq(cqe=256) failed: Connection timed out
[1741191055.377381] [ohm:190079:0]        ib_iface.c:1059 UCX  ERROR ibv_create_cq(cqe=256) failed: Connection timed out
[1741191055.377379] [ohm:190076:0]        ib_iface.c:1059 UCX  ERROR ibv_create_cq(cqe=256) failed: Connection timed out


           ************************************************************
           *        Program running with 16 parallel MPI-processes    *
           *              working on a common directory               *
           ************************************************************

-------------------------------------------------------------------------------------------
                                      ORCA LEAN-SCF
                              memory conserving SCF solver
-------------------------------------------------------------------------------------------

----------------------------------------D-I-I-S--------------------------------------------
Iteration    Energy (Eh)           Delta-E    RMSDP     MaxDP     DIISErr   Damp  Time(sec)
-------------------------------------------------------------------------------------------
               ***  Starting incremental Fock matrix formation  ***
    1    -153.7963820782167090     0.00e+00  1.71e-03  3.93e-02  1.87e-01  0.700   0.4
    2    -153.8263065725269882    -2.99e-02  1.54e-03  4.33e-02  9.06e-02  0.700   0.2
                               ***Turning on AO-DIIS***
    3    -153.8408851310555008    -1.46e-02  1.26e-03  3.92e-02  4.48e-02  0.700   0.2
    4    -153.8497324119895495    -8.85e-03  3.22e-03  1.07e-01  2.82e-02  0.000   0.2
    5    -153.8693159162484676    -1.96e-02  2.51e-04  1.16e-02  4.91e-03  0.000   0.2
                              *** Initializing SOSCF ***
---------------------------------------S-O-S-C-F--------------------------------------
Iteration    Energy (Eh)           Delta-E    RMSDP     MaxDP     MaxGrad    Time(sec)
--------------------------------------------------------------------------------------
    6    -153.8693663294095018    -5.04e-05  1.05e-04  4.68e-03  1.66e-03     0.2
               *** Restarting incremental Fock matrix formation ***
    7    -153.8693792646302541    -1.29e-05  7.80e-05  2.74e-03  1.72e-04     0.3
    8    -153.8693806747435531    -1.41e-06  5.47e-05  1.79e-03  8.70e-05     0.3
    9    -153.8693808369524447    -1.62e-07  2.60e-05  9.33e-04  7.12e-05     0.3
   10    -153.8693810305595662    -1.94e-07  4.28e-06  1.64e-04  5.65e-06     0.3
   11    -153.8693810307197225    -1.60e-10  9.99e-07  3.34e-05  2.80e-06     0.3
                 **** Energy Check signals convergence ****

               *****************************************************
               *                     SUCCESS                       *
               *           SCF CONVERGED AFTER  11 CYCLES          *
               *****************************************************

Recomputing exchange energy using gridx3       ... done (    0.409 sec)
Old exchange energy                            :     -6.198301422 Eh
New exchange energy                            :     -6.198303444 Eh
Exchange energy change after final integration :     -0.000002021 Eh
Total energy after final integration           :   -153.869383052 Eh
             **** ENERGY FILE WAS UPDATED (orca.en.tmp) ****

----------------
TOTAL SCF ENERGY
----------------

Total Energy       :       -153.86938305197148 Eh           -4186.99878 eV

Components:
Nuclear Repulsion  :         74.46672175501760 Eh            2026.34252 eV
Electronic Energy  :       -228.33610278573732 Eh           -6213.34124 eV
One Electron Energy:       -355.52776960603768 Eh           -9674.40245 eV
Two Electron Energy:        127.19166682030036 Eh            3461.06121 eV

Virial components:
Potential Energy   :       -307.21413373226630 Eh           -8359.72158 eV
Kinetic Energy     :        153.34475068029485 Eh            4172.72280 eV
Virial Ratio       :          2.00342126071710

DFT components:
N(Alpha)           :       11.999991252786 electrons
N(Beta)            :       11.999991252786 electrons
N(Total)           :       23.999982505571 electrons
E(XC)              :      -14.755982380747 Eh       

---------------
SCF CONVERGENCE
---------------

  Last Energy change         ...    1.6016e-10  Tolerance :   1.0000e-08
  Last MAX-Density change    ...    3.3401e-05  Tolerance :   1.0000e-07
  Last RMS-Density change    ...    9.9865e-07  Tolerance :   5.0000e-09
  Last DIIS Error            ...    1.6585e-03  Tolerance :   5.0000e-07
  Last Orbital Gradient      ...    2.7952e-06  Tolerance :   1.0000e-05
  Last Orbital Rotation      ...    7.7065e-06  Tolerance :   1.0000e-05


----------------
ORBITAL ENERGIES
----------------

  NO   OCC          E(Eh)            E(eV) 
   0   2.0000     -19.348253      -526.4927 
   1   2.0000     -10.406658      -283.1796 
   2   2.0000     -10.396780      -282.9108 
   3   2.0000      -1.183653       -32.2088 
   4   2.0000      -0.828454       -22.5434 
   5   2.0000      -0.745420       -20.2839 
   6   2.0000      -0.629188       -17.1211 
   7   2.0000      -0.591564       -16.0973 
   8   2.0000      -0.498458       -13.5637 
   9   2.0000      -0.493557       -13.4304 
  10   2.0000      -0.422273       -11.4906 
  11   2.0000      -0.379586       -10.3291 
  12   0.0000       0.040424         1.1000 
  13   0.0000       0.057675         1.5694 
  14   0.0000       0.066765         1.8168 
  15   0.0000       0.077271         2.1027 
  16   0.0000       0.110904         3.0178 
  17   0.0000       0.118821         3.2333 
  18   0.0000       0.131202         3.5702 
  19   0.0000       0.143530         3.9056 
  20   0.0000       0.151375         4.1191 
  21   0.0000       0.168037         4.5725 
  22   0.0000       0.198923         5.4130 
*Only the first 10 virtual orbitals were printed.

                    ********************************
                    * MULLIKEN POPULATION ANALYSIS *
                    ********************************

-----------------------
MULLIKEN ATOMIC CHARGES
-----------------------
   0 O :   -0.406072
   1 C :   -0.119116
   2 C :   -0.243938
   3 H :    0.194601
   4 H :    0.194594
   5 H :    0.189943
   6 H :    0.189987
Sum of atomic charges:    0.0000000

--------------------------------
MULLIKEN REDUCED ORBITAL CHARGES
--------------------------------
  0 O s       :     3.974232  s :     3.974232
      pz      :     1.870382  p :     4.412786
      px      :     1.376871
      py      :     1.165532
      dz2     :     0.004718  d :     0.017223
      dxz     :    -0.002748
      dyz     :    -0.000313
      dx2y2   :     0.006346
      dxy     :     0.009221
      f0      :     0.000200  f :     0.001831
      f+1     :     0.000145
      f-1     :     0.000421
      f+2     :     0.000103
      f-2     :     0.000126
      f+3     :     0.000420
      f-3     :     0.000415

  1 C s       :     3.236440  s :     3.236440
      pz      :     1.143984  p :     2.698363
      px      :     0.858789
      py      :     0.695590
      dz2     :    -0.005300  d :     0.171494
      dxz     :     0.026346
      dyz     :     0.081195
      dx2y2   :     0.036003
      dxy     :     0.033250
      f0      :     0.002024  f :     0.012820
      f+1     :     0.000892
      f-1     :     0.000995
      f+2     :     0.001934
      f-2     :     0.001670
      f+3     :     0.001580
      f-3     :     0.003725

  2 C s       :     3.345382  s :     3.345382
      pz      :     1.145868  p :     2.815254
      px      :     0.918586
      py      :     0.750800
      dz2     :     0.009166  d :     0.075044
      dxz     :     0.010067
      dyz     :     0.009626
      dx2y2   :     0.020314
      dxy     :     0.025871
      f0      :     0.001079  f :     0.008258
      f+1     :     0.000744
      f-1     :     0.000385
      f+2     :     0.001122
      f-2     :     0.001066
      f+3     :     0.001762
      f-3     :     0.002098

  3 H s       :     0.756845  s :     0.756845
      pz      :     0.025397  p :     0.046084
      px      :     0.013380
      py      :     0.007307
      dz2     :     0.000725  d :     0.002470
      dxz     :     0.000550
      dyz     :     0.000510
      dx2y2   :     0.000330
      dxy     :     0.000355

  4 H s       :     0.756857  s :     0.756857
      pz      :     0.025388  p :     0.046078
      px      :     0.013380
      py      :     0.007309
      dz2     :     0.000725  d :     0.002471
      dxz     :     0.000550
      dyz     :     0.000510
      dx2y2   :     0.000330
      dxy     :     0.000355

  5 H s       :     0.767884  s :     0.767884
      pz      :     0.014642  p :     0.039839
      px      :     0.010449
      py      :     0.014748
      dz2     :     0.000737  d :     0.002334
      dxz     :     0.000573
      dyz     :     0.000517
      dx2y2   :     0.000246
      dxy     :     0.000261

  6 H s       :     0.767816  s :     0.767816
      pz      :     0.014646  p :     0.039862
      px      :     0.010451
      py      :     0.014765
      dz2     :     0.000737  d :     0.002335
      dxz     :     0.000574
      dyz     :     0.000517
      dx2y2   :     0.000246
      dxy     :     0.000261



                     *******************************
                     * LOEWDIN POPULATION ANALYSIS *
                     *******************************

----------------------
LOEWDIN ATOMIC CHARGES
----------------------
   0 O :   -0.028960
   1 C :   -0.172481
   2 C :    0.152503
   3 H :    0.022034
   4 H :    0.022035
   5 H :    0.002439
   6 H :    0.002430

-------------------------------
LOEWDIN REDUCED ORBITAL CHARGES
-------------------------------
  0 O s       :     3.370194  s :     3.370194
      pz      :     1.675044  p :     4.273905
      px      :     1.292453
      py      :     1.306407
      dz2     :     0.031292  d :     0.379223
      dxz     :     0.039284
      dyz     :     0.092702
      dx2y2   :     0.100925
      dxy     :     0.115020
      f0      :     0.000535  f :     0.005638
      f+1     :     0.000202
      f-1     :     0.000879
      f+2     :     0.000315
      f-2     :     0.000664
      f+3     :     0.001109
      f-3     :     0.001934

  1 C s       :     2.642309  s :     2.642309
      pz      :     0.914612  p :     2.536858
      px      :     0.890804
      py      :     0.731443
      dz2     :     0.095912  d :     0.900336
      dxz     :     0.217134
      dyz     :     0.175954
      dx2y2   :     0.215292
      dxy     :     0.196044
      f0      :     0.011757  f :     0.092978
      f+1     :     0.007626
      f-1     :     0.009515
      f+2     :     0.013644
      f-2     :     0.008007
      f+3     :     0.013832
      f-3     :     0.028597

  2 C s       :     2.670314  s :     2.670314
      pz      :     0.947651  p :     2.501671
      px      :     0.918704
      py      :     0.635315
      dz2     :     0.084806  d :     0.623166
      dxz     :     0.209851
      dyz     :     0.069876
      dx2y2   :     0.140003
      dxy     :     0.118630
      f0      :     0.006278  f :     0.052347
      f+1     :     0.006793
      f-1     :     0.005039
      f+2     :     0.007088
      f-2     :     0.003221
      f+3     :     0.010061
      f-3     :     0.013866

  3 H s       :     0.705249  s :     0.705249
      pz      :     0.115937  p :     0.243427
      px      :     0.076924
      py      :     0.050565
      dz2     :     0.009045  d :     0.029291
      dxz     :     0.008179
      dyz     :     0.005994
      dx2y2   :     0.003273
      dxy     :     0.002799

  4 H s       :     0.705244  s :     0.705244
      pz      :     0.115930  p :     0.243430
      px      :     0.076927
      py      :     0.050573
      dz2     :     0.009045  d :     0.029291
      dxz     :     0.008178
      dyz     :     0.005994
      dx2y2   :     0.003274
      dxy     :     0.002800

  5 H s       :     0.709925  s :     0.709925
      pz      :     0.120553  p :     0.257425
      px      :     0.079539
      py      :     0.057333
      dz2     :     0.009847  d :     0.030211
      dxz     :     0.009350
      dyz     :     0.005834
      dx2y2   :     0.002852
      dxy     :     0.002328

  6 H s       :     0.709900  s :     0.709900
      pz      :     0.120574  p :     0.257456
      px      :     0.079537
      py      :     0.057345
      dz2     :     0.009853  d :     0.030214
      dxz     :     0.009351
      dyz     :     0.005835
      dx2y2   :     0.002847
      dxy     :     0.002327



                      *****************************
                      * MAYER POPULATION ANALYSIS *
                      *****************************

  NA   - Mulliken gross atomic population
  ZA   - Total nuclear charge
  QA   - Mulliken gross atomic charge
  VA   - Mayer's total valence
  BVA  - Mayer's bonded valence
  FA   - Mayer's free valence

  ATOM       NA         ZA         QA         VA         BVA        FA
  0 O      8.4061     8.0000    -0.4061     1.6656     1.6656    -0.0000
  1 C      6.1191     6.0000    -0.1191     3.5889     3.5889     0.0000
  2 C      6.2439     6.0000    -0.2439     3.5976     3.5976     0.0000
  3 H      0.8054     1.0000     0.1946     1.0768     1.0768    -0.0000
  4 H      0.8054     1.0000     0.1946     1.0767     1.0767     0.0000
  5 H      0.8101     1.0000     0.1899     0.9980     0.9980     0.0000
  6 H      0.8100     1.0000     0.1900     0.9980     0.9980    -0.0000

  Mayer bond orders larger than 0.100000
B(  0-O ,  1-C ) :   0.7438 B(  0-O ,  2-C ) :   0.8905 B(  1-C ,  2-C ) :   0.8044 
B(  1-C ,  3-H ) :   1.0419 B(  1-C ,  4-H ) :   1.0418 B(  2-C ,  5-H ) :   0.9898 
B(  2-C ,  6-H ) :   0.9898 

-------
TIMINGS
-------

Total SCF time: 0 days 0 hours 0 min 4 sec 

Total time                  ....       4.171 sec
Sum of individual times     ....       4.144 sec  ( 99.4%)

SCF preparation             ....       0.792 sec  ( 19.0%)
Fock matrix formation       ....       3.089 sec  ( 74.1%)
  Startup                   ....       0.025 sec  (  0.8% of F)
  Split-RI-J                ....       0.156 sec  (  5.0% of F)
  Chain of spheres X        ....       2.196 sec  ( 71.1% of F)
  XC integration            ....       0.665 sec  ( 21.5% of F)
    XC Preparation          ....       0.000 sec  (  0.0% of XC)
    Basis function eval.    ....       0.070 sec  ( 10.5% of XC)
    Density eval.           ....       0.173 sec  ( 26.0% of XC)
    XC-Functional eval.     ....       0.028 sec  (  4.3% of XC)
    XC-Potential eval.      ....       0.267 sec  ( 40.2% of XC)
Diagonalization             ....       0.000 sec  (  0.0%)
Density matrix formation    ....       0.026 sec  (  0.6%)
Total Energy calculation    ....       0.024 sec  (  0.6%)
Population analysis         ....       0.014 sec  (  0.3%)
Orbital Transformation      ....       0.021 sec  (  0.5%)
Orbital Orthonormalization  ....       0.000 sec  (  0.0%)
DIIS solution               ....       0.124 sec  (  3.0%)
SOSCF solution              ....       0.051 sec  (  1.2%)
Finished LeanSCF after   4.2 sec

Maximum memory used throughout the entire LEANSCF-calculation: 13.5 MB
[1741191059.906237] [ohm:190150:0]        ib_iface.c:1059 UCX  ERROR ibv_create_cq(cqe=256) failed: Connection timed out
[1741191059.906232] [ohm:190152:0]        ib_iface.c:1059 UCX  ERROR ibv_create_cq(cqe=256) failed: Connection timed out
[1741191059.916310] [ohm:190148:0]        ib_iface.c:1059 UCX  ERROR ibv_create_cq(cqe=256) failed: Connection timed out
[1741191059.921996] [ohm:190158:0]        ib_iface.c:1059 UCX  ERROR ibv_create_cq(cqe=256) failed: Connection timed out
[1741191059.922765] [ohm:190161:0]        ib_iface.c:1059 UCX  ERROR ibv_create_cq(cqe=256) failed: Connection timed out
[1741191059.927080] [ohm:190154:0]        ib_iface.c:1059 UCX  ERROR ibv_create_cq(cqe=256) failed: Connection timed out
[1741191059.927334] [ohm:190147:0]        ib_iface.c:1059 UCX  ERROR ibv_create_cq(cqe=256) failed: Connection timed out
[1741191059.928087] [ohm:190149:0]        ib_iface.c:1059 UCX  ERROR ibv_create_cq(cqe=256) failed: Connection timed out
[1741191059.929428] [ohm:190151:0]        ib_iface.c:1059 UCX  ERROR ibv_create_cq(cqe=256) failed: Connection timed out
[1741191059.941236] [ohm:190164:0]        ib_iface.c:1059 UCX  ERROR ibv_create_cq(cqe=256) failed: Connection timed out
[1741191059.950347] [ohm:190156:0]        ib_iface.c:1059 UCX  ERROR ibv_create_cq(cqe=256) failed: Connection timed out
[1741191059.952239] [ohm:190153:0]        ib_iface.c:1059 UCX  ERROR ibv_create_cq(cqe=256) failed: Connection timed out
[1741191059.955961] [ohm:190170:0]        ib_iface.c:1059 UCX  ERROR ibv_create_cq(cqe=256) failed: Connection timed out
[1741191059.957163] [ohm:190159:0]        ib_iface.c:1059 UCX  ERROR ibv_create_cq(cqe=256) failed: Connection timed out
[1741191059.982584] [ohm:190175:0]        ib_iface.c:1059 UCX  ERROR ibv_create_cq(cqe=256) failed: Connection timed out
[1741191059.986504] [ohm:190173:0]        ib_iface.c:1059 UCX  ERROR ibv_create_cq(cqe=256) failed: Connection timed out


           ************************************************************
           *        Program running with 16 parallel MPI-processes    *
           *              working on a common directory               *
           ************************************************************

------------------------------------------------------------------------------
                         ORCA PROPERTY INTEGRAL CALCULATIONS
------------------------------------------------------------------------------

GBWName                                   ... orca.gbw
Number of atoms                           ...      7
Number of basis functions                 ...    182
Max core memory                           ...   1024 MB

Dipole integrals                          ... YES
Quadrupole integrals                      ...  NO
Linear momentum integrals                 ... YES
Angular momentum integrals                ... YES
Higher moments length integrals           ...  NO
Higher moments velocity integrals         ...  NO
Kinetic energy integrals                  ...  NO
GIAO right hand sides                     ...  NO
GIAO dipole derivative integrals          ...  NO
SOC integrals                             ...  NO
EPR diamagnetic integrals (GIAO)          ...  NO
EPR gauge integrals                       ...  NO
Field gradient integrals                  ...  NO (   0 nuclei)
Spin-dipole/Fermi contact integrals       ...  NO (   0 nuclei)
Contact density integrals                 ...  NO (   0 nuclei)
Nucleus-orbit integrals                   ...  NO (   0 nuclei)
Geometric perturbations                   ...  NO (   7 nuclei)

Choice of electric origin   ... Center of mass
Position of electric origin ... (  0.1446,  0.0258, -0.0001) 
Choice of magnetic origin   ... GIAO
Position of magnetic origin ... (  0.0000,  0.0000,  0.0000) 

Calculating integrals                     ... Electric Dipole (Length)     done (  0.0 sec)
Calculating integrals                     ... Linear Momentum              done (  0.0 sec)
Calculating integrals                     ... Angular Momentum  (ElOri)    done (  0.0 sec)

Property integrals calculated in   0.0 sec

Maximum memory used throughout the entire PROPINT-calculation: 10.1 MB
[1741191060.839437] [ohm:190230:0]        ib_iface.c:1059 UCX  ERROR ibv_create_cq(cqe=256) failed: Connection timed out
[1741191060.840409] [ohm:190231:0]        ib_iface.c:1059 UCX  ERROR ibv_create_cq(cqe=256) failed: Connection timed out
[1741191060.840548] [ohm:190234:0]        ib_iface.c:1059 UCX  ERROR ibv_create_cq(cqe=256) failed: Connection timed out
[1741191060.840683] [ohm:190233:0]        ib_iface.c:1059 UCX  ERROR ibv_create_cq(cqe=256) failed: Connection timed out
[1741191060.844204] [ohm:190235:0]        ib_iface.c:1059 UCX  ERROR ibv_create_cq(cqe=256) failed: Connection timed out
[1741191060.860371] [ohm:190240:0]        ib_iface.c:1059 UCX  ERROR ibv_create_cq(cqe=256) failed: Connection timed out
[1741191060.860465] [ohm:190236:0]        ib_iface.c:1059 UCX  ERROR ibv_create_cq(cqe=256) failed: Connection timed out
[1741191060.861468] [ohm:190250:0]        ib_iface.c:1059 UCX  ERROR ibv_create_cq(cqe=256) failed: Connection timed out
[1741191060.863031] [ohm:190242:0]        ib_iface.c:1059 UCX  ERROR ibv_create_cq(cqe=256) failed: Connection timed out
[1741191060.869307] [ohm:190232:0]        ib_iface.c:1059 UCX  ERROR ibv_create_cq(cqe=256) failed: Connection timed out
[1741191060.871595] [ohm:190241:0]        ib_iface.c:1059 UCX  ERROR ibv_create_cq(cqe=256) failed: Connection timed out
[1741191060.873918] [ohm:190237:0]        ib_iface.c:1059 UCX  ERROR ibv_create_cq(cqe=256) failed: Connection timed out
[1741191060.883279] [ohm:190244:0]        ib_iface.c:1059 UCX  ERROR ibv_create_cq(cqe=256) failed: Connection timed out
[1741191060.886691] [ohm:190255:0]        ib_iface.c:1059 UCX  ERROR ibv_create_cq(cqe=256) failed: Connection timed out
[1741191060.890216] [ohm:190257:0]        ib_iface.c:1059 UCX  ERROR ibv_create_cq(cqe=256) failed: Connection timed out
[1741191060.893396] [ohm:190259:0]        ib_iface.c:1059 UCX  ERROR ibv_create_cq(cqe=256) failed: Connection timed out


           ************************************************************
           *        Program running with 16 parallel MPI-processes    *
           *              working on a common directory               *
           ************************************************************
------------------------------------------------------------------------------
                        ORCA TD-DFT/TDA CALCULATION
------------------------------------------------------------------------------

Input orbitals are from        ... orca.gbw
CI-vector output               ... orca.cis
Solver                         ... FN-2001
Tamm-Dancoff approximation     ... operative
CIS-Integral strategy          ... AO-integrals
Integral handling              ... AO integral Direct
Max. core memory used          ... 512 MB
Reference state                ... RHF
Generation of triplets         ... off
Follow IRoot                   ... off
Number of operators            ... 1
Orbital ranges used for CIS calculation:
 Operator 0:  Orbitals   3... 11  to  12...181
XAS localization array:
 Operator 0:  Orbitals  -1... -1

-------------------
XC-INTEGRATION GRID
-------------------

General Integration Accuracy     IntAcc      ... 3.467
Radial Grid Type                 RadialGrid  ... OptM3 with GC (2021)
Angular Grid (max. ang.)         AngularGrid ... 1 (Lebedev-50)
Angular grid pruning method      GridPruning ... 4 (adaptive)
Weight generation scheme         WeightScheme... mBecke (2022)
Basis function cutoff            BFCut       ... 1.0000e-11
Integration weight cutoff        WCut        ... 1.0000e-14
Partially contracted basis set               ... off
Rotationally invariant grid construction     ... off
Angular grids for H and He will be reduced by one unit
Diffuse basis detected: some atoms will have their outermost
                        angular grid increased by 1.

Total number of grid points                  ...     4736
Total number of batches                      ...       77
Average number of points per batch           ...       61
Average number of grid points per atom       ...      677

---------------------
COSX-INTEGRATION GRID
---------------------

General Integration Accuracy     IntAcc      ... 3.067
Radial Grid Type                 RadialGrid  ... OptM3 with GC (2021)
Angular Grid (max. ang.)         AngularGrid ... 1 (Lebedev-50)
Angular grid pruning method      GridPruning ... 4 (adaptive)
Weight generation scheme         WeightScheme... mBecke (2022)
Basis function cutoff            BFCut       ... 1.0000e-11
Integration weight cutoff        WCut        ... 1.0000e-14
Partially contracted basis set               ... on
Rotationally invariant grid construction     ... off
Angular grids for H and He will be reduced by one unit
Diffuse basis detected: some atoms will have their outermost
                        angular grid increased by 1.

Total number of grid points                  ...     2150
Total number of batches                      ...       22
Average number of points per batch           ...       97
Average number of grid points per atom       ...      307

---------------
TD-DFT XC SETUP
---------------

DFT calculation                         ... on
Name of the grid file                   ... orca.grid_cis.tmp
RI-approximation                        ... on
Aux-basis dimension                     ... 0
Functional (TD-DFT)
  Functional kind                       .... Exchange-Correlation
  Functional name                       .... wB97M-V exchange-correlation functional
  Functional family                     .... Hybrid MGGA
  Functional refs                              
    [ 0] N. Mardirossian and M. Head-Gordon.,  J. Chem. Phys. 144, 214110 (2016), doi: 10.1063/1.4952647
  Fraction of HF Exchange (short range) .... 0.1500
  Fraction of HF Exchange (long range)  .... 1.0000
  Range separation parameter mu         .... 0.3000
  Functional external parameters        .... 17
    Parameter  0 _cx00      =  8.500000e-01 : u^00 coefficient for exchange
    Parameter  1 _cx01      =  1.007000e+00 : u^01 coefficient for exchange
    Parameter  2 _cx10      =  2.590000e-01 : u^10 coefficient for exchange
    Parameter  3 _css00     =  4.430000e-01 : u^00 coefficient for same-spin correlation
    Parameter  4 _css04     = -1.437000e+00 : u^04 coefficient for same-spin correlation
    Parameter  5 _css10     = -4.535000e+00 : u^10 coefficient for same-spin correlation
    Parameter  6 _css20     = -3.390000e+00 : u^20 coefficient for same-spin correlation
    Parameter  7 _css43     =  4.278000e+00 : u^43 coefficient for same-spin correlation
    Parameter  8 _cos00     =  1.000000e+00 : u^00 coefficient for opposite-spin correlation
    Parameter  9 _cos10     =  1.358000e+00 : u^10 coefficient for opposite-spin correlation
    Parameter 10 _cos20     =  2.924000e+00 : u^20 coefficient for opposite-spin correlation
    Parameter 11 _cos21     = -8.812000e+00 : u^21 coefficient for opposite-spin correlation
    Parameter 12 _cos60     = -1.390000e+00 : u^60 coefficient for opposite-spin correlation
    Parameter 13 _cos61     =  9.142000e+00 : u^61 coefficient for opposite-spin correlation
    Parameter 14 _alpha     =  1.000000e+00 : fraction of HF exchange
    Parameter 15 _beta      = -8.500000e-01 : fraction of short-range exchange
    Parameter 16 _omega     =  3.000000e-01 : range-separation constant
Hybrid DFT                              ... on
   Exchange mixing (TD-DFT)             ...  0.150
   GGA exch. scaling (TD-DFT)           ...  0.000
   GGA corr. scaling (TD-DFT)           ...  1.000
Range-Separated Exchange                ... on
   Range Range separation parameter mu  .... 0.300
   Max. amount of RS exchange (TD-DFT)  ...  0.850

Building densities             ... done
Calculating rho(r) on the grid ... done
Building xc-kernel on the grid ... done
                    *** TD-DFT CALCULATION INITIALIZED ***

------------------------
DAVIDSON-DIAGONALIZATION
------------------------

Dimension of the eigenvalue problem            ...   1530
Number of roots to be determined               ...      4
Maximum size of the expansion space            ...     40
Maximum number of iterations                   ...    100
Convergence tolerance for the residual         ...    2.500e-07
Convergence tolerance for the energies         ...    2.500e-07
Orthogonality tolerance                        ...    1.000e-14
Level Shift                                    ...    0.000e+00
Constructing the preconditioner                ... o.k.
Building the initial guess                     ... o.k.
Number of trial vectors determined             ...     40


                       ****Iteration    0****
   Time for iteration     :  TOTAL=0.4 TRAFO=0.0 RIJ=0.1 COSX=0.2 XC=0.1
   Size of expansion space: 12
   Lowest Energy          :     0.240581235012
   Maximum Energy change  :     0.296518906320 (vector 3)
   Maximum residual norm  :     0.004916969646

                       ****Iteration    1****
   Time for iteration     :  TOTAL=0.2 TRAFO=0.0 RIJ=0.0 COSX=0.1 XC=0.0
   Size of expansion space: 16
   Lowest Energy          :     0.225843804874
   Maximum Energy change  :     0.014737430138 (vector 0)
   Maximum residual norm  :     0.001068207592

                       ****Iteration    2****
   Time for iteration     :  TOTAL=0.2 TRAFO=0.0 RIJ=0.0 COSX=0.1 XC=0.0
   Size of expansion space: 20
   Lowest Energy          :     0.225068572382
   Maximum Energy change  :     0.000775232493 (vector 0)
   Maximum residual norm  :     0.000082308143

                       ****Iteration    3****
   Time for iteration     :  TOTAL=0.2 TRAFO=0.0 RIJ=0.0 COSX=0.1 XC=0.0
   Size of expansion space: 24
   Lowest Energy          :     0.224979498192
   Maximum Energy change  :     0.000089074190 (vector 0)
   Maximum residual norm  :     0.000010093860

                       ****Iteration    4****
   Time for iteration     :  TOTAL=0.2 TRAFO=0.0 RIJ=0.0 COSX=0.1 XC=0.0
   Size of expansion space: 28
   Lowest Energy          :     0.224970277630
   Maximum Energy change  :     0.000012113513 (vector 3)
   Maximum residual norm  :     0.000002245229

                       ****Iteration    5****
   Time for iteration     :  TOTAL=0.2 TRAFO=0.0 RIJ=0.0 COSX=0.1 XC=0.0
   Size of expansion space: 32
   Lowest Energy          :     0.224969448201
   Maximum Energy change  :     0.000003640394 (vector 3)
   Maximum residual norm  :     0.000000666123

                       ****Iteration    6****
   Time for iteration     :  TOTAL=0.2 TRAFO=0.0 RIJ=0.0 COSX=0.1 XC=0.0
   Size of expansion space: 36
   Lowest Energy          :     0.224969411994
   Maximum Energy change  :     0.000001139957 (vector 3)
   Maximum residual norm  :     0.000000261149

                       ****Iteration    7****
   Time for iteration     :  TOTAL=0.2 TRAFO=0.0 RIJ=0.0 COSX=0.1 XC=0.0
   Size of expansion space: 40
   Lowest Energy          :     0.224969410876
   Maximum Energy change  :     0.000000273036 (vector 3)
   Maximum residual norm  :     0.000000022195

      *** CONVERGENCE OF RESIDUAL NORM REACHED ***

Storing the converged CI vectors               ... orca.cis1

                 *** DAVIDSON DONE ***

Total time for solving the CIS problem:     1.972sec

------------------------------------
TD-DFT/TDA EXCITED STATES (SINGLETS)
------------------------------------

the weight of the individual excitations are printed if larger than 1.0e-02

STATE  1:  E=   0.224969 au      6.122 eV    49375.1 cm**-1 <S**2> =   0.000000 Mult 1
    11a ->  12a  :     0.041009 (c=  0.20250573)
    11a ->  13a  :     0.159530 (c=  0.39941230)
    11a ->  14a  :     0.526027 (c= -0.72527744)
    11a ->  16a  :     0.093332 (c=  0.30550318)
    11a ->  17a  :     0.011395 (c= -0.10674733)
    11a ->  19a  :     0.087289 (c= -0.29544728)
    11a ->  21a  :     0.029462 (c= -0.17164564)
    11a ->  23a  :     0.016039 (c=  0.12664550)
    11a ->  25a  :     0.016812 (c= -0.12966172)

STATE  2:  E=   0.260787 au      7.096 eV    57236.2 cm**-1 <S**2> =   0.000000 Mult 1
    11a ->  12a  :     0.771183 (c= -0.87817025)
    11a ->  13a  :     0.142510 (c=  0.37750490)
    11a ->  14a  :     0.011069 (c= -0.10520739)
    11a ->  17a  :     0.010442 (c= -0.10218831)
    11a ->  19a  :     0.032914 (c=  0.18142086)
    11a ->  29a  :     0.013726 (c= -0.11716009)

STATE  3:  E=   0.282849 au      7.697 eV    62078.1 cm**-1 <S**2> =   0.000000 Mult 1
    11a ->  12a  :     0.088152 (c=  0.29690366)
    11a ->  13a  :     0.575979 (c=  0.75893290)
    11a ->  14a  :     0.181590 (c=  0.42613337)
    11a ->  16a  :     0.064938 (c= -0.25482942)
    11a ->  17a  :     0.048672 (c= -0.22061718)

STATE  4:  E=   0.289592 au      7.880 eV    63558.1 cm**-1 <S**2> =   0.000000 Mult 1
    10a ->  12a  :     0.020533 (c= -0.14329389)
    11a ->  15a  :     0.940815 (c= -0.96995614)
    11a ->  31a  :     0.015555 (c= -0.12471774)


-----------------------------
TD-DFT/TDA-EXCITATION SPECTRA
-----------------------------

Center of mass = (  0.1446,  0.0258, -0.0001)
Generating CIS transition densities           ... done

----------------------------------------------------------------------------------------------------
                     ABSORPTION SPECTRUM VIA TRANSITION ELECTRIC DIPOLE MOMENTS    
----------------------------------------------------------------------------------------------------
     Transition      Energy     Energy  Wavelength fosc(D2)      D2        DX        DY        DZ   
                      (eV)      (cm-1)    (nm)                 (au**2)    (au)      (au)      (au)  
----------------------------------------------------------------------------------------------------
  0-1A  ->  1-1A    6.121729   49375.1   202.5   0.005635874   0.03758  -0.00010  -0.00000   0.19385
  0-1A  ->  2-1A    7.096386   57236.2   174.7   0.009501244   0.05465   0.00003  -0.00002  -0.23377
  0-1A  ->  3-1A    7.696701   62078.1   161.1   0.001569234   0.00832  -0.00003  -0.00005  -0.09122
  0-1A  ->  4-1A    7.880196   63558.1   157.3   0.041713357   0.21606  -0.20122   0.41901  -0.00004

----------------------------------------------------------------------------------------------------
                     ABSORPTION SPECTRUM VIA TRANSITION VELOCITY DIPOLE MOMENTS    
----------------------------------------------------------------------------------------------------
     Transition      Energy     Energy  Wavelength fosc(P2)      P2        PX        PY        PZ   
                      (eV)      (cm-1)    (nm)                 (au**2)    (au)      (au)      (au)  
----------------------------------------------------------------------------------------------------
  0-1A  ->  1-1A    6.121729   49375.1   202.5   0.016859862   0.00569   0.00001  -0.00001  -0.07543
  0-1A  ->  2-1A    7.096386   57236.2   174.7   0.008779449   0.00343  -0.00001   0.00001   0.05860
  0-1A  ->  3-1A    7.696701   62078.1   161.1   0.001417866   0.00060   0.00000   0.00001   0.02453
  0-1A  ->  4-1A    7.880196   63558.1   157.3   0.030464316   0.01323   0.04482  -0.10595   0.00001

------------------------------------------------------------------------------------------
                     CD SPECTRUM VIA TRANSITION ELECTRIC DIPOLE MOMENTS    
------------------------------------------------------------------------------------------
     Transition      Energy     Energy  Wavelength    R        MX        MY        MZ   
                      (eV)      (cm-1)    (nm)   (1e40*cgs)   (au)      (au)      (au)  
------------------------------------------------------------------------------------------
  0-1A  ->  1-1A    6.121729   49375.1   202.5   -0.01116  -0.14462  -0.17070   0.00004
  0-1A  ->  2-1A    7.096386   57236.2   174.7    0.00186  -0.29146  -0.07176  -0.00001
  0-1A  ->  3-1A    7.696701   62078.1   161.1   -0.00134  -0.00297   0.01967  -0.00004
  0-1A  ->  4-1A    7.880196   63558.1   157.3    0.00064   0.00001   0.00000  -0.00055

------------------------------------------------------------------------------------------
                     CD SPECTRUM VIA TRANSITION VELOCITY DIPOLE MOMENTS    
------------------------------------------------------------------------------------------
     Transition      Energy     Energy  Wavelength    R        MX        MY        MZ   
                      (eV)      (cm-1)    (nm)   (1e40*cgs)   (au)      (au)      (au)  
------------------------------------------------------------------------------------------
  0-1A  ->  1-1A    6.121729   49375.1   202.5   -0.00904  -0.14462  -0.17070   0.00004
  0-1A  ->  2-1A    7.096386   57236.2   174.7    0.00191  -0.29146  -0.07176  -0.00001
  0-1A  ->  3-1A    7.696701   62078.1   161.1   -0.00124  -0.00297   0.01967  -0.00004
  0-1A  ->  4-1A    7.880196   63558.1   157.3    0.00045   0.00001   0.00000  -0.00055

Total run time:        2.440 sec

           *** ORCA-CIS/TD-DFT FINISHED WITHOUT ERROR ***
-----------------------
CIS/TD-DFT TOTAL ENERGY
-----------------------

    E(SCF)  =   -153.869383052 Eh
    DE(CIS) =      0.224969411 Eh (Root  1)
    ----------------------------- ---------
    E(tot)  =   -153.644413641 Eh


------------------------
TD-DFT GRADIENT XC SETUP
------------------------

Building densities                     ... done
Calculating rho(r) on the grid         ... done
Building xc-kernel on the grid         ... done
Building xc 3rd derivative on the grid ... done
                *** TD-DFT GRADIENT CALCULATION INITIALIZED ***

--------------------------
TD-DFT/TDA RELAXED DENSITY
--------------------------

Reference wavefunction             ... RHF
State of interest                  ... 1
Basis dimension                    ... 182
DFT-XC contribution needed         ... YES
RI-approximation                   ... YES
Do Coulomb                         ... YES
Do Exchange                        ... YES
Need Hartree-Fock Exchange         ... YES
facj, facx                         ...  2.000, -0.150
Conventional                       ... NO
Range separation                   ... YES
Triplet state                      ... NO
Spin Flip                          ... NO
CIS-vectors being read from        ... orca.cis
 => Number of Vectors found: 4
 => Orbital Window: 3...11 -> 12...181

Reading the CIS file                     ... done
Norm of the CI vector                    ... 1.000000000
Making the CIS (pseudo)densities         ... done
Making operators G(D) and Q(T)           ... (SHARK-ok)done
Transforming the Fock operators          ... done
Making the frozen-core relaxed density   ... done
Constructing the G(H) operator           ... (SHARK-ok)done
Transforming the G(H) operator           ... done
Calculating the CIS Lagrangian           ... done
Solving the Z-vector equations           ... 

Using XC Grid                  ... (orca.grid_cpscf.tmp) 
Recalculating density on grid  ... (orca.grho_cpscf0.tmp) done
Calculating the xc-kernel      ... (orca.fxc_cpscf0.tmp) done

-------------------
SHARK CP-SCF DRIVER
-------------------

Dimension of the orbital basis          ...    182
Dimension of the CPSCF-problem          ...   2040
Number of operators                     ...      1
Max. number of iterations               ...    128
Convergence Tolerance                   ... 1.0e-04
Number of perturbations                 ...      1
Perturbation type                       ... REAL

----------------------------
POPLE LINEAR EQUATION SOLVER
----------------------------

  ITERATION   0:   ||err||_max =   1.3515e+00 (   0.2 sec)
  ITERATION   1:   ||err||_max =   4.3940e-02 (   0.1 sec)
  ITERATION   2:   ||err||_max =   1.1274e-02 (   0.2 sec)
  ITERATION   3:   ||err||_max =   2.4510e-03 (   0.2 sec)
  ITERATION   4:   ||err||_max =   5.7735e-04 (   0.2 sec)
  ITERATION   5:   ||err||_max =   1.8616e-04 (   0.2 sec)
  ITERATION   6:   ||err||_max =   4.2873e-05 (   0.2 sec)

Finalizing the relaxed density           ... done
Storing the relaxed density              ... done
Constructing the G(Z) operator           ... (SHARK-ok)done
Adding the XC terms                      ... done
Transforming the G(Z) operator           ... done
Making the W-matrix                      ... done
Finalizing the W-matrix                  ... done
Transforming the W-matrix                ... done
Nuc. rep. gradient        (SHARK) ... done (  0.0 sec)
HCore & Overlap gradient  (SHARK) ... done (  0.0 sec)
Split-RIJ-J gradient      (SHARK) ... done (  0.1 sec)
COSX-gradient                     ... done (  2.1 sec)
Dispersion correction             ... done (  0.0 sec)

-------------------
DISPERSION GRADIENT
-------------------

   1   O   :    0.000013998    0.000134022   -0.000000007
   2   C   :    0.000100442    0.000005747    0.000000009
   3   C   :   -0.000084238    0.000027177   -0.000000009
   4   H   :    0.000171539   -0.000041763    0.000091732
   5   H   :    0.000171542   -0.000041761   -0.000091720
   6   H   :   -0.000186668   -0.000041760   -0.000102785
   7   H   :   -0.000186616   -0.000041662    0.000102780

Difference to translation invariance:
           :    0.0000000000   -0.0000000000    0.0000000000

Difference to rotation invariance:
           :   -0.0000000000   -0.0000000000    0.0000000000

Norm of the Dispersion gradient    ...    0.0004577772
RMS gradient                       ...    0.0000998952
MAX gradient                       ...    0.0001866675

                 ---------------------------
                 EXCITED STATE GRADIENT DONE
                 ---------------------------

------------------
CARTESIAN GRADIENT
------------------

   1   O   :   -0.083431732   -0.126669751    0.000001424
[...]
      f0      :     0.008064  f :     0.094054
      f+1     :     0.007614
      f-1     :     0.009898
      f+2     :     0.009003
      f-2     :     0.006456
      f+3     :     0.024910
      f-3     :     0.028109
  2 C s       :     2.675259  s :     2.675259
      pz      :     0.937285  p :     2.570165
      px      :     0.895281
      py      :     0.737599
      dz2     :     0.101867  d :     0.633854
      dxz     :     0.192877
      dyz     :     0.026556
      dx2y2   :     0.167692
      dxy     :     0.144863
      f0      :     0.005473  f :     0.057400
      f+1     :     0.007059
      f-1     :     0.006544
      f+2     :     0.005421
      f-2     :     0.001963
      f+3     :     0.017873
      f-3     :     0.013066
  3 H s       :     0.674529  s :     0.674529
      pz      :     0.113042  p :     0.261610
      px      :     0.081299
      py      :     0.067269
      dz2     :     0.009272  d :     0.029840
      dxz     :     0.008267
      dyz     :     0.006014
      dx2y2   :     0.003510
      dxy     :     0.002777
  4 H s       :     0.674514  s :     0.674514
      pz      :     0.113036  p :     0.261612
      px      :     0.081301
      py      :     0.067274
      dz2     :     0.009271  d :     0.029840
      dxz     :     0.008267
      dyz     :     0.006014
      dx2y2   :     0.003511
      dxy     :     0.002777
  5 H s       :     0.701865  s :     0.701865
      pz      :     0.118030  p :     0.323923
      px      :     0.077425
      py      :     0.128468
      dz2     :     0.009349  d :     0.030881
      dxz     :     0.008854
      dyz     :     0.007357
      dx2y2   :     0.002760
      dxy     :     0.002561
  6 H s       :     0.701851  s :     0.701851
      pz      :     0.118048  p :     0.323918
      px      :     0.077424
      py      :     0.128446
      dz2     :     0.009354  d :     0.030882
      dxz     :     0.008855
      dyz     :     0.007358
      dx2y2   :     0.002757
      dxy     :     0.002557


                      *****************************
                      * MAYER POPULATION ANALYSIS *
                      *****************************

  NA   - Mulliken gross atomic population
  ZA   - Total nuclear charge
  QA   - Mulliken gross atomic charge
  VA   - Mayer's total valence
  BVA  - Mayer's bonded valence
  FA   - Mayer's free valence

  ATOM       NA         ZA         QA         VA         BVA        FA
  0 O      8.3193     8.0000    -0.3193     2.2829     1.1817     1.1012
  1 C      5.9014     6.0000     0.0986     3.2798     3.2344     0.0454
  2 C      6.4865     6.0000    -0.4865     3.3752     2.9508     0.4244
  3 H      0.8241     1.0000     0.1759     1.0603     1.0134     0.0469
  4 H      0.8241     1.0000     0.1759     1.0603     1.0133     0.0470
  5 H      0.8223     1.0000     0.1777     1.1207     1.0124     0.1082
  6 H      0.8223     1.0000     0.1777     1.1208     1.0125     0.1083

  Mayer bond orders larger than 0.100000
B(  0-O ,  1-C ) :   0.7731 B(  0-O ,  2-C ) :   0.2916 B(  1-C ,  2-C ) :   0.6614 
B(  1-C ,  3-H ) :   0.9711 B(  1-C ,  4-H ) :   0.9710 B(  2-C ,  5-H ) :   1.0146 
B(  2-C ,  6-H ) :   1.0148 


-------
TIMINGS
-------

Total TD-DFT gradient time  ....        5.073 sec

Fock matrix formation       ....       1.126 sec  ( 22.2%)
  Coulomb formation         ....       0.854 sec  ( 75.9% of F)
  XC integration            ....       0.272 sec  ( 24.1% of F)
Z-vector equation           ....       1.096 sec  ( 21.6%)
Densities                   ....       0.000 sec  (  0.0%)
One electron gradient       ....       0.010 sec  (  0.2%)
RI-J Coulomb gradient       ....       0.105 sec  (  2.1%)
COSX gradient               ....       0.385 sec  (  7.6%)
XC gradient                 ....       2.140 sec  ( 42.2%)

Maximum memory used throughout the entire CIS-calculation: 34.9 MB
=> NOW LEAVING ORCA_CIS


-------------------------------------------------------------------------------
                          DFT DISPERSION CORRECTION                            
                                                                               
                              DFTD3 V3.1  Rev 1                                
                          USING Becke-Johnson damping                          
-------------------------------------------------------------------------------
The WB97M functional is recognized
Active option DFTDOPT                   ...         4   

molecular C6(AA) [au] = 351.502040 


            DFT-D V3
 parameters
 s6 scaling factor         :     1.0000 
 a1 scaling factor         :     0.5660 
 s8 scaling factor         :     0.3908 
 a2 scaling factor         :     3.1280 
 ad hoc parameters k1-k3   :    16.0000     1.3333    -4.0000 

 Edisp/kcal,au: -3.288487341363  -0.005240537596 
 E6   /kcal   :  -2.652142918 
 E8   /kcal   :  -0.636344424 
 % E8         :  19.350672745 

-------------------------   ----------------
Dispersion correction           -0.005240538
-------------------------   ----------------


-------------------------   --------------------
FINAL SINGLE POINT ENERGY      -153.649654178691
-------------------------   --------------------

[1741191069.462644] [ohm:190316:0]        ib_iface.c:1059 UCX  ERROR ibv_create_cq(cqe=256) failed: Connection timed out
[1741191069.462639] [ohm:190320:0]        ib_iface.c:1059 UCX  ERROR ibv_create_cq(cqe=256) failed: Connection timed out
[1741191069.463189] [ohm:190318:0]        ib_iface.c:1059 UCX  ERROR ibv_create_cq(cqe=256) failed: Connection timed out
[1741191069.464718] [ohm:190314:0]        ib_iface.c:1059 UCX  ERROR ibv_create_cq(cqe=256) failed: Connection timed out
[1741191069.488391] [ohm:190321:0]        ib_iface.c:1059 UCX  ERROR ibv_create_cq(cqe=256) failed: Connection timed out
[1741191069.493853] [ohm:190322:0]        ib_iface.c:1059 UCX  ERROR ibv_create_cq(cqe=256) failed: Connection timed out
[1741191069.494211] [ohm:190315:0]        ib_iface.c:1059 UCX  ERROR ibv_create_cq(cqe=256) failed: Connection timed out
[1741191069.497141] [ohm:190330:0]        ib_iface.c:1059 UCX  ERROR ibv_create_cq(cqe=256) failed: Connection timed out
[1741191069.497783] [ohm:190326:0]        ib_iface.c:1059 UCX  ERROR ibv_create_cq(cqe=256) failed: Connection timed out
[1741191069.501201] [ohm:190317:0]        ib_iface.c:1059 UCX  ERROR ibv_create_cq(cqe=256) failed: Connection timed out
[1741191069.515160] [ohm:190324:0]        ib_iface.c:1059 UCX  ERROR ibv_create_cq(cqe=256) failed: Connection timed out
[1741191069.515455] [ohm:190327:0]        ib_iface.c:1059 UCX  ERROR ibv_create_cq(cqe=256) failed: Connection timed out
[1741191069.522790] [ohm:190338:0]        ib_iface.c:1059 UCX  ERROR ibv_create_cq(cqe=256) failed: Connection timed out
[1741191069.529597] [ohm:190319:0]        ib_iface.c:1059 UCX  ERROR ibv_create_cq(cqe=256) failed: Connection timed out
[1741191069.538581] [ohm:190335:0]        ib_iface.c:1059 UCX  ERROR ibv_create_cq(cqe=256) failed: Connection timed out
[1741191069.546048] [ohm:190344:0]        ib_iface.c:1059 UCX  ERROR ibv_create_cq(cqe=256) failed: Connection timed out


           ************************************************************
           *        Program running with 16 parallel MPI-processes    *
           *              working on a common directory               *
           ************************************************************

------------------------------------------------------------------------------
                              ORCA PROPERTY CALCULATIONS
------------------------------------------------------------------------------

GBWName                                 ... orca.gbw
Number of atoms                         ...      7
Number of basis functions               ...    182
Max core memory                         ...   1024 MB

Electric properties:
Dipole moment                           ... YES
Quadrupole moment                       ...  NO
Static polarizability (Dipole/Dipole)   ...  NO
Static polarizability (Dipole/Quad.)    ...  NO
Static polarizability (Quad./Quad.)     ...  NO
Static polarizability (Velocity)        ...  NO

Atomic electric properties:
Dipole moment                           ...  NO
Quadrupole moment                       ...  NO
Static polarizability                   ...  NO

Choice of electric origin               ... Center of mass
Position of electric origin             ...     0.144575     0.025792    -0.000096

General magnetic properties:
Magnetizability                         ...  NO

EPR properties:
g-Tensor (aka g-matrix)                 ...  NO
Zero-Field splitting spin-orbit         ...  NO
Zero-field splitting spin-spin          ...  NO
Hyperfine couplings                     ...  NO (   0 nuclei)
Quadrupole couplings                    ...  NO (   0 nuclei)
Contact density                         ...  NO (   0 nuclei)

NMR properties:
Chemical shifts                         ...  NO (   0 nuclei)
Spin-rotation constants                 ...  NO (   0 nuclei)
Spin-spin couplings                     ...  NO (   0 nuclei,    0 pairs)

Choice of magnetic origin               ... GIAO
Position of magnetic origin             ...     0.000000     0.000000     0.000000

Properties with geometric perturbations:
SCF Hessian                             ...  NO
IR spectrum                             ...  NO
VCD spectrum                            ...  NO
X-ray spectroscopy properties:
SCF XES/XAS/RIXS spectra                ...  NO


-------------
DIPOLE MOMENT
-------------

Method             : SCF
Type of density    : Electron Density
Multiplicity       :   1
Irrep              :   0
Energy             :  -153.8693830519714822 Eh
Relativity type    : 
Basis              : AO
                                X                 Y                 Z
Electronic contribution:      0.069766601       1.561898397      -0.000285864
Nuclear contribution   :     -0.225312991      -2.445431715       0.000342631
                        -----------------------------------------
Total Dipole Moment    :     -0.155546390      -0.883533318       0.000056767
                        -----------------------------------------
Magnitude (a.u.)       :      0.897120842
Magnitude (Debye)      :      2.280299963



--------------------
Rotational spectrum 
--------------------
 
Rotational constants in cm-1:             0.890962             0.679640             0.455790 
Rotational constants in MHz :         26710.376300         20375.090246         13664.253372 

Dipole components along the rotational axes: 
x,y,z [a.u.] :    -0.720644    -0.534320     0.000016 
x,y,z [Debye]:    -1.831731    -1.358134     0.000040 

 

-------------
DIPOLE MOMENT
-------------

Method             : TDA/CIS
Type of density    : Electron Density
Level              : Relaxed density
State              :   1
Multiplicity       :   1
Irrep              :   0
Energy             :     0.0000000000000000 Eh
Relativity type    : 
Basis              : AO
                                X                 Y                 Z
Electronic contribution:      0.747297784       2.010302043      -0.000315393
Nuclear contribution   :     -0.225312991      -2.445431715       0.000342631
                        -----------------------------------------
Total Dipole Moment    :      0.521984793      -0.435129672       0.000027238
                        -----------------------------------------
Magnitude (a.u.)       :      0.679563063
Magnitude (Debye)      :      1.727312035



--------------------
Rotational spectrum 
--------------------
 
Rotational constants in cm-1:             0.890962             0.679640             0.455790 
Rotational constants in MHz :         26710.376300         20375.090246         13664.253372 

Dipole components along the rotational axes: 
x,y,z [a.u.] :     0.079578    -0.674888    -0.000043 
x,y,z [Debye]:     0.202271    -1.715428    -0.000108 

 

Dipole moment calculation done in   0.5 sec 

Maximum memory used throughout the entire PROP-calculation: 7.3 MB
[1741191071.498199] [ohm:190398:0]        ib_iface.c:1059 UCX  ERROR ibv_create_cq(cqe=256) failed: Connection timed out
[1741191071.548185] [ohm:190400:0]        ib_iface.c:1059 UCX  ERROR ibv_create_cq(cqe=256) failed: Connection timed out
[1741191071.550685] [ohm:190399:0]        ib_iface.c:1059 UCX  ERROR ibv_create_cq(cqe=256) failed: Connection timed out
[1741191071.561685] [ohm:190407:0]        ib_iface.c:1059 UCX  ERROR ibv_create_cq(cqe=256) failed: Connection timed out
[1741191071.575180] [ohm:190409:0]        ib_iface.c:1059 UCX  ERROR ibv_create_cq(cqe=256) failed: Connection timed out
[1741191071.577229] [ohm:190412:0]        ib_iface.c:1059 UCX  ERROR ibv_create_cq(cqe=256) failed: Connection timed out
[1741191071.578386] [ohm:190415:0]        ib_iface.c:1059 UCX  ERROR ibv_create_cq(cqe=256) failed: Connection timed out
[1741191071.580308] [ohm:190403:0]        ib_iface.c:1059 UCX  ERROR ibv_create_cq(cqe=256) failed: Connection timed out
[1741191071.584597] [ohm:190397:0]        ib_iface.c:1059 UCX  ERROR ibv_create_cq(cqe=256) failed: Connection timed out
[1741191071.585372] [ohm:190401:0]        ib_iface.c:1059 UCX  ERROR ibv_create_cq(cqe=256) failed: Connection timed out
[1741191071.588349] [ohm:190404:0]        ib_iface.c:1059 UCX  ERROR ibv_create_cq(cqe=256) failed: Connection timed out
[1741191071.594989] [ohm:190419:0]        ib_iface.c:1059 UCX  ERROR ibv_create_cq(cqe=256) failed: Connection timed out
[1741191071.595804] [ohm:190424:0]        ib_iface.c:1059 UCX  ERROR ibv_create_cq(cqe=256) failed: Connection timed out
[1741191071.596008] [ohm:190402:0]        ib_iface.c:1059 UCX  ERROR ibv_create_cq(cqe=256) failed: Connection timed out
[1741191071.598245] [ohm:190405:0]        ib_iface.c:1059 UCX  ERROR ibv_create_cq(cqe=256) failed: Connection timed out
[1741191071.629405] [ohm:190423:0]        ib_iface.c:1059 UCX  ERROR ibv_create_cq(cqe=256) failed: Connection timed out

--------------------------------
SUGGESTED CITATIONS FOR THIS RUN
--------------------------------

Below you find a list of papers that are relevant to this ORCA run
We neither can nor want to force you to cite these papers, but we appreciate if you do
You receive ORCA, which is the product of decades of hard work by many enthusiastic individuals, for free
The only thing we kindly ask in return is that you cite our papers,
We deeply appreciate it, if you show your appreciation for ORCA by not just citing the generic ORCA reference.

Please note that relegating all ORCA citations to the supporting information does *not* help us.
SI sections are not indexed - citations you put there will not count into any citation statistics
But we need these citations in order to attract the funding resources that allow us to do what we are doing

Therefore, if you are a happy ORCA user, please consider citing a few of the papers listed below in the main body of your paper

In addition to the list printed below, the program has created the file orca.bibtex that contains the list in bibtex format
You can import this file easily into all common literature databanks and citation aid programs


List of essential papers. We consider these as the minimum necessary citations

  1. Neese,F.
     Software update: the ORCA program system, version 5.0
     WIRES Comput. Molec. Sci., 2022 12(1)e1606
     doi.org/10.1002/wcms.1606

List of papers to cite with high priority. The work reported in these papers was absolutely
necessary for this run to complete.
Our perspective: the developers of density functionals and basis sets usually get cited in chemistry papers
Good! But without the algorithms to do something with them, the functionals or basis sets would not do anything.
Hence, in our opinion, the algorithm design and method developments papers are equally worthy of getting cited

  1. Neese,F.; Olbrich,G.
     Efficient use of the resolution of the identity approximation in time-dependent density functional calculations with hybrid density functionals
     Chem. Phys. Lett., 2002 362 170-178
     doi.org/10.1016/s0009-2614(02)01053-9
  2. Neese,F.
     An improvement of the resolution of the identity approximation for the formation of the Coulomb matrix
     J. Comp. Chem., 2003 24(14)1740-1747
     doi.org/10.1002/jcc.10318
  3. Neese,F.; Wennmohs,F.; Hansen,A.; Becker,U.
     Efficient, approximate and parallel Hartree-Fock and hybrid DFT calculations. A 'chain-of-spheres' algorithm for the Hartree-Fock exchange
     Chem. Phys., 2009 356(1-3)98-109
     doi.org/10.1016/j.chemphys.2008.10.036
  4. Petrenko,T.; Kossmann,S.; Neese,F.
     Efficient time-dependent density functional theory approximations for hybrid density functionals: Analytical gradients and parallelization
     J. Chem. Phys., 2011 134 054116
     doi.org/10.1063/1.3533441
  5. Helmich-Paris,B.; de Souza,B.; Neese,F.; Izsák,R.
     An improved chain of spheres for exchange algorithm
     J. Chem. Phys., 2021 155 104109
     doi.org/doi: 10.1063/5.0058766.
  6. Neese,F.
     The SHARK Integral Generation and Digestion System
     J. Comp. Chem., 2022  1-16
     doi.org/10.1002/jcc.26942
  7. Lehtola,S.; Steigemann,C.; Oliveira,M.; Marques,M.
     Recent developments in Libxc - A comprehensive library of functionals for density functional theory
     Software X, 2018 7 
     doi.org/10.1016/j.softx.2017.11.002
  8. Grimme,S.; Antony,J.; Ehrlich,S.; Krieg,H.
     A consistent and accurate ab initio parametrization of density functional dispersion correction (DFT-D) for the 94 elements H-Pu
     J. Chem. Phys., 2010 132 154104-XXXX
     doi.org/10.1063/1.3382344
  9. Grimme,S.; Ehrlich,S.; Goerigk,L.
     Effect of the damping function in dispersion corrected density functional theory
     J. Comput. Chem., 2011 32(7)1456-1465
     doi.org/10.1002/jcc.21759

List of suggested additional citations. These are papers that are important in the 'surrounding' of 
of this run, or papers that preceded the highly important papers. If you like your results we are grateful for a citation.

  1. Izsak,R.; Neese,F.
     An overlap fitted chain of spheres exchange method
     J. Chem. Phys., 2011 135 144105
     doi.org/10.1063/1.3646921
  2. Izsak,R.; Hansen,A.; Neese,F.
     The resolution of identity and chain of spheres approximations for the LPNO-CCSD singles Fock term
     Molec. Phys., 2012 110 2413-2417
     doi.org/10.1080/00268976.2012.687466
  3. Neese,F.
     The ORCA program system
     WIRES Comput. Molec. Sci., 2012 2(1)73-78
     doi.org/10.1002/wcms.81
  4. Izsak,R.; Neese,F.; Klopper,W.
     Robust fitting techniques in the chain of spheres approximation to the Fock exchange: The role of the complementary space
     J. Chem. Phys., 2013 139 
     doi.org/10.1063/1.4819264
  5. Neese,F.
     Software update: the ORCA program system, version 4.0
     WIRES Comput. Molec. Sci., 2018 8(1)1-6
     doi.org/10.1002/wcms.1327
  6. Neese,F.; Wennmohs,F.; Becker,U.; Riplinger,C.
     The ORCA quantum chemistry program package
     J. Chem. Phys., 2020 152 Art. No. L224108
     doi.org/10.1063/5.0004608

List of optional additional citations

  1. Neese,F.
     Approximate second-order SCF convergence for spin unrestricted wavefunctions
     Chem. Phys. Lett., 2000 325(1-3)93-98
     doi.org/10.1016/s0009-2614(00)00662-x

Timings for individual modules:

Sum of individual times          ...       21.556 sec (=   0.359 min)
Startup calculation              ...        1.412 sec (=   0.024 min)   6.6 %
SCF iterations                   ...        8.559 sec (=   0.143 min)  39.7 %
Property integrals               ...        0.934 sec (=   0.016 min)   4.3 %
Property calculations            ...        2.073 sec (=   0.035 min)   9.6 %
CIS module                       ...        8.578 sec (=   0.143 min)  39.8 %
                             ****ORCA TERMINATED NORMALLY****
TOTAL RUN TIME: 0 days 0 hours 0 minutes 23 seconds 154 msec
