7
Properties=species:S:1:pos:R:3:forces:R:3 energy=-4183.557174974078 free_energy=-4183.557174974078 dipole="0.13929499328026704 -0.1841580360465583 0.005688757144762931" pbc="F F F"
O        0.41408490       1.06391977      -0.01310988       0.95277329       1.63047800       0.01094916
C        0.61188311      -0.28163453       0.00138500      -0.11069919      -0.05873852       0.14530258
C       -0.75652623      -0.75622882       0.00819875      -0.64632504      -1.30030185       0.11742999
H        1.20880391      -0.54911861       0.87600438       0.13197315       0.01846741       0.21583161
H        1.23333744      -0.54999431      -0.85114885       0.11800354      -0.10375396      -0.32427043
H       -1.30236316      -0.71313296      -0.91159776      -0.27321587      -0.08527239      -0.18968660
H       -1.28762723      -0.72627003       0.94307816      -0.17122594      -0.09707860       0.02317989
7
Properties=species:S:1:pos:R:3:forces:R:3 energy=-4183.419236301619 free_energy=-4183.419236301619 dipole="-0.006810178376668401 -0.49825205204431344 -0.057666444100060964" pbc="F F F"
O        0.56129594       1.18586029       0.05995269      -0.55055487      -2.34954852      -0.82494767
C        0.49896241      -0.26695260       0.12812430      -0.44639813       2.50603323       0.97085617
C       -0.82513711      -0.87518597      -0.17374284      -0.20954895       0.63893863      -0.75502277
H        0.83199138      -0.42020140       1.12348412       0.10053053      -0.82064575       1.40140666
H        1.22022457      -0.74182037      -0.47634831       1.14356055      -0.27754630      -1.32306257
H       -1.50895996      -0.17416854      -0.63495703      -0.34742663      -0.21106607       0.20922234
H       -0.92310456      -1.92543058      -0.47253812       0.30858152       0.51518102       0.32168329
7
Properties=species:S:1:pos:R:3:forces:R:3 energy=-4183.4837926356195 free_energy=-4183.4837926356195 dipole="0.141126270814448 -0.19480723792023583 0.0002463092368974138" pbc="F F F"
O        0.41151252       1.05536827      -0.00577382       1.24501496       2.17566992      -0.00681536
C        0.61463716      -0.27430975       0.00031121      -0.20913514      -0.97956042       0.19947083
C       -0.74795491      -0.73929734       0.00187055      -1.56864888      -1.71761925       0.18094381
H        1.17728321      -0.60510270       0.88491853       0.25687581       0.32112840      -0.02260650
H        1.19014234      -0.60411554      -0.86805547       0.31209105       0.23207210      -0.15223769
H       -1.30932222      -0.74569045      -0.91568145      -0.06615940      -0.00886051      -0.08829092
H       -1.30164604      -0.74100676       0.93135773       0.03176586      -0.01845499      -0.11112891
7
Properties=species:S:1:pos:R:3:forces:R:3 energy=-4183.625027545394 free_energy=-4183.625027545394 dipole="0.013572073037113327 -0.37373871977729445 0.040710218770949394" pbc="F F F"
O        0.52029823       1.20787082      -0.04338143       0.31404022      -2.37784934       0.30246875
C        0.56667786      -0.26910500       0.03551353      -1.97350200       1.07559332      -0.27594462
C       -0.82313414      -0.90362445       0.01348193       1.55717103       0.95421259      -0.09017778
H        1.12553697      -0.56280839       0.92935532       0.08477084       0.40598330      -0.06839959
H        1.11041041      -0.61780956      -0.84152222       0.37081133       0.18963913      -0.01650460
H       -1.37542415      -0.87858582      -0.89309549      -0.22972127      -0.00364277      -0.65265722
H       -1.36889114      -1.18304570       0.87623403      -0.12448220      -0.23966559       0.80122645
7
Properties=species:S:1:pos:R:3:forces:R:3 energy=-4183.449750395199 free_energy=-4183.449750395199 dipole="-0.07961108593626033 -0.4251759458763678 -0.176010923198033" pbc="F F F"
O        0.52177002       0.89364749       0.67527455      -0.97583086       0.52390777       0.21341601
C        0.45472237      -0.31897014       0.12768648       1.08249187      -0.03389266      -2.42533544
C       -0.71094742      -0.49893460      -0.88464702       0.23564205       0.16482796       1.34155358
H        0.58596701      -1.11173738       0.80263914      -0.84110709      -1.51243105       1.61166190
H        1.48311805      -0.46481176      -0.32755055      -0.49915855       0.15141040      -0.77134114
H       -1.19344667       0.43052338      -1.13114320       0.06660707       0.19365286      -0.34151535
H       -1.36012939      -1.39300613      -0.98724035       0.93045944       0.51236002       0.36717020
7
Properties=species:S:1:pos:R:3:forces:R:3 energy=-4183.755392130544 free_energy=-4183.755392130544 dipole="0.07499658604615694 -0.321836541647349 -0.08551628343944762" pbc="F F F"
O        0.55767619       1.10696917       0.27675883       0.58066330       1.08023488       0.62426615
C        0.58294946      -0.21953779       0.01520749       0.16506973      -0.41964661      -0.23787065
C       -0.77350495      -0.73701747       0.02074626      -0.67338129      -0.24315519       0.39648918
H        1.24766662      -0.73818046       0.74647593      -0.03872391       0.40309660      -0.05271668
H        1.08780310      -0.35322341      -0.93846145       0.27145097      -0.34833070      -0.36203494
H       -1.19659652      -1.29803259      -0.77689403      -0.14556565      -0.36141636      -0.41691297
H       -1.42514650      -0.31988453       0.76999638      -0.15729620      -0.10845408       0.04946072
7
Properties=species:S:1:pos:R:3:forces:R:3 energy=-4183.311935361644 free_energy=-4183.311935361644 dipole="0.04077501546202851 -0.41617668044446915 0.04704431757836194" pbc="F F F"
O        0.64842543       1.15586883       0.12056197       0.12341077      -2.63713392      -0.42908797
C        0.55120613      -0.27837717       0.03855996       1.33437164      -0.51047548       0.19814728
C       -0.85085762      -0.70748552       0.12117215      -0.81332813       1.39015340       0.73452863
H        1.21187315      -0.84764779       0.76828148      -0.74974133       0.97893010       0.41560811
H        1.11761975      -0.82102833      -0.79268465      -0.68439276       1.58597206      -0.31725909
H       -1.20412733      -1.58293950       0.63759835       0.43322822      -0.45606772      -0.10992676
H       -1.58830968       0.10503151       0.16132043       0.35758246      -0.35470858      -0.49219993
7
Properties=species:S:1:pos:R:3:forces:R:3 energy=-4183.655527906448 free_energy=-4183.655527906448 dipole="0.08464758665976323 -0.3167830151762734 -0.08631406623949876" pbc="F F F"
O        0.55428876       1.09863009       0.27921040       0.88480109       1.66403802       0.78099466
C        0.58069148      -0.20350455       0.02239025       0.25815491      -1.74363058      -0.79943385
C       -0.76113314      -0.73199970       0.01754870      -1.59876731      -0.56279707       0.21493863
H        1.21963774      -0.81634765       0.71703067       0.08539222       0.87368518      -0.06167865
H        1.04829631      -0.39716834      -0.95540950       0.37780886       0.04484404      -0.02670361
H       -1.18732126      -1.27947419      -0.80405706       0.05944706      -0.14448217      -0.08519716
H       -1.43331035      -0.33458661       0.76501187      -0.06496617      -0.13029917      -0.02224892
7
Properties=species:S:1:pos:R:3:forces:R:3 energy=-4183.625801889465 free_energy=-4183.625801889465 dipole="0.07436266402771131 -0.4149274914917819 -0.06952806187288647" pbc="F F F"
O        0.57805865       1.19318274       0.22862811       0.84718095      -2.44217753      -0.22412965
C        0.57931584      -0.25139546       0.00741572      -0.88211069       1.06564236       0.19506727
C       -0.79704413      -0.77481486       0.08157733       0.60869342      -0.50999967      -0.39321683
H        1.26833582      -0.81712455       0.68253067      -0.18491024       0.97897589       0.27337887
H        1.03003908      -0.54663576      -0.94460319       0.12059469       0.62003144      -0.31892889
H       -1.12054799      -1.54764823      -0.60484737      -0.07404214       0.12593464       0.18857222
H       -1.46483744      -0.35102776       0.79244775      -0.43920515       0.16572443       0.27880266
7
Properties=species:S:1:pos:R:3:forces:R:3 energy=-4183.642712284818 free_energy=-4183.642712284818 dipole="-0.20747871167117152 -0.16737453362979754 0.30569820785229" pbc="F F F"
O        0.96927518       0.78423805      -0.33075483      -0.07956301       0.25141845      -0.35826049
C        0.23363343       0.13130615       0.59448500      -1.53286963      -0.12832101       0.65068968
C       -0.83487325      -0.73685855       0.05581971      -1.09598985       0.18976679      -2.35838800
H       -0.25235971       0.82597737       1.31981003       0.20580209       0.54432412      -0.47171355
H        0.78681810      -0.46511718       1.25659056       1.46498811      -0.99063465       1.05007601
H       -1.18098326      -1.67608296       0.46804137       0.47259840       0.18943693       0.36580140
H       -1.28073112      -0.50317191      -0.94473482       0.56764572      -0.05515692       1.12258434
7
Properties=species:S:1:pos:R:3:forces:R:3 energy=-4184.216777649761 free_energy=-4184.216777649761 dipole="-0.07094521802233324 -0.2924195625200799 -0.024561376045665818" pbc="F F F"
O        0.50858649       1.36847923       0.08700918       0.03240781       0.43443063       0.11020238
C        0.58106364       0.13042043      -0.30247494      -0.53445740       0.15613127       0.43479179
C       -0.43520003      -0.82993130       0.21155743       0.52745664      -0.64151460      -0.51192210
H        0.07531070      -1.65959997       0.72810957      -0.38626313       0.21172984       0.01179801
H        1.36654773      -0.13985290      -0.95698320       0.80079988      -0.17128724      -0.58922956
H       -0.97729892      -1.24438533      -0.64179249      -0.15952735      -0.14827368       0.13542052
H       -1.13550382      -0.33948992       0.85654236      -0.27347870       0.15418895       0.41339970
7
Properties=species:S:1:pos:R:3:forces:R:3 energy=-4183.901033360655 free_energy=-4183.901033360655 dipole="0.01588533469986563 -0.2967884569789759 -0.016201521258240786" pbc="F F F"
O        0.28420379       1.41972834       0.03197654       0.91723383      -1.54635544      -0.07204599
C        0.75347825       0.17895921      -0.05791497      -1.08937932      -0.42744429       0.44817346
C       -0.35048123      -0.94817051       0.04040195      -1.26265184       3.87269147       1.19903110
H        0.10020493      -1.81894099      -0.35472383      -0.08805686      -0.92960125      -0.35966880
H        1.81843365      -0.07733557      -0.20712240      -0.69186510       0.61133742       0.10497300
H       -1.20488817      -0.44696652      -0.54656883       1.01595145      -1.53743807       0.40250856
H       -0.81967149      -1.05409468       1.11007428       1.20289210      -0.04645665      -1.72904570
7
Properties=species:S:1:pos:R:3:forces:R:3 energy=-4184.094004163309 free_energy=-4184.094004163309 dipole="-0.07377430099203196 -0.29250476640110723 -0.0209295338934278" pbc="F F F"
O        0.50907493       1.33881805       0.07586773      -0.12913893       3.88890557       1.15013997
C        0.57769415       0.16493080      -0.28866573       0.25236449      -3.51475146      -1.17707889
C       -0.43319135      -0.82376291       0.21111111       0.25839506      -0.61894760      -0.17417172
H        0.07627179      -1.64552929       0.73201041      -0.23400410       0.17239967       0.10093707
H        1.36436292      -0.15514477      -0.95965074       0.27087115       0.07426763      -0.13886683
H       -0.96246151      -1.26415178      -0.63360316      -0.21021395      -0.01005943       0.02195047
H       -1.13389317      -0.33188164       0.86448172      -0.20125980       0.01501712       0.22332425
7
Properties=species:S:1:pos:R:3:forces:R:3 energy=-4184.080036655763 free_energy=-4184.080036655763 dipole="-0.05328658879360254 -0.33155188121374723 0.001992302455115069" pbc="F F F"
O        0.50785223       1.41372946       0.11848055      -0.14315746      -0.14310408       0.08896787
C        0.58190788       0.19174500      -0.29284583      -1.06999048      -1.62473245      -0.11686214
C       -0.44539241      -0.93388573       0.15995289       1.06806844       1.02492014      -0.23343484
H        0.12559789      -1.74517387       0.65945107      -0.46651769       0.51833171      -0.19627135
H        1.43420959      -0.10734813      -0.88319928       0.38488704       0.16439484      -0.11340316
H       -1.04600486      -1.37693831      -0.66759978       0.48815112       0.56306749       0.46183182
H       -1.08206774      -0.39854304       0.85951260      -0.25137744      -0.50216998       0.11032625
7
Properties=species:S:1:pos:R:3:forces:R:3 energy=-4184.076332958529 free_energy=-4184.076332958529 dipole="0.0633484441810222 -0.2754685765745301 -0.023145162890008286" pbc="F F F"
O        0.06458649       1.34366141       0.25436267       0.31092322      -0.12464917      -0.26039114
C        0.69073244       0.32639513      -0.28539261      -0.87982027      -0.25700670      -0.07948940
C       -0.08846746      -1.00202522      -0.00063474       3.36554237       1.55962555       2.04875385
H        0.64981702      -1.80962980      -0.04091220      -0.44772915       0.05164387      -0.30356487
H        1.67054717       0.54543151      -0.73816285      -0.51763227      -0.49481027       0.23211764
H       -0.95432673      -1.14685338      -0.54424796      -1.60483300      -0.27901944      -1.40231322
H       -0.35204012      -0.86558628       1.06121657      -0.21976946      -0.46257821      -0.23366636
7
Properties=species:S:1:pos:R:3:forces:R:3 energy=-4184.152428816048 free_energy=-4184.152428816048 dipole="-0.11978055386187364 -0.29719517147029384 -0.03751985646523174" pbc="F F F"
O        0.71203177       1.38522179       0.08188602      -0.18647411       0.54041159       0.33237457
C        0.55989539       0.15350692      -0.26617171       0.04542724      -0.59441091      -0.17745208
C       -0.45347346      -0.81259295       0.22625184      -0.84871637      -0.21957317      -0.41534187
H        0.04568386      -1.68104395       0.66052160      -0.16380245      -0.04022385       0.14650250
H        1.21719138      -0.21357410      -1.02961001       0.58237722       0.13007761      -0.49413992
H       -1.06373502      -1.18057790      -0.63471079       0.33757682       0.13203705       0.54889305
H       -1.15748433      -0.38663938       0.93925547       0.23482932       0.05292448       0.06012941
7
Properties=species:S:1:pos:R:3:forces:R:3 energy=-4183.939769130191 free_energy=-4183.939769130191 dipole="-0.14686168921810683 -0.26534130059610006 -0.14182420898758719" pbc="F F F"
O        0.72770055       1.34326751       0.30083300       0.13239570      -2.33392626      -1.27663352
C        0.69344290       0.11040857      -0.27484725       0.09192190       0.10176271      -0.53414549
C       -0.57379066      -0.74928946       0.00899493       0.09044653       2.13092552       1.57074735
H       -0.42933869      -1.41350712       0.88082955      -0.00455164       0.16815876      -0.47089314
H        1.43079829      -0.21774451      -1.13334613      -1.43233811       1.22424495       1.88848086
H       -0.88726084      -1.27927406      -0.84645292       0.07377323      -0.80696527      -0.99412971
H       -1.45579352      -0.08908005       0.26986909       1.05031652      -0.48289594      -0.18962221
7
Properties=species:S:1:pos:R:3:forces:R:3 energy=-4183.996682436074 free_energy=-4183.996682436074 dipole="-0.1159093299316017 -0.31077312842881144 -0.026334761063833888" pbc="F F F"
O        0.70713198       1.35728732       0.07306435       0.26172720       3.83660910       1.24568724
C        0.55509930       0.18586305      -0.25364947       0.14682962      -3.90629440      -1.63871554
C       -0.45068502      -0.80885567       0.22552738      -0.45003239      -0.24176477      -0.51801066
H        0.07711289      -1.65917619       0.64250903      -0.09884362      -0.26337453       0.25376865
H        1.23435616      -0.23025271      -1.01266345       0.16083449       0.36366667       0.00577408
H       -1.03251260      -1.17288865      -0.64324899       0.06848146       0.07260787       0.44971198
H       -1.13165147      -0.39654596       0.95272897      -0.08523529       0.15104414       0.20471578
7
Properties=species:S:1:pos:R:3:forces:R:3 energy=-4183.932560184171 free_energy=-4183.932560184171 dipole="-0.1475215705537939 -0.3136603288148376 -0.06889776418915598" pbc="F F F"
O        0.74282463       1.41351389       0.13753148      -0.25531498      -3.07358264      -1.09087054
C        0.63541803       0.10568304      -0.30021618      -0.69160537       0.78198225       0.89244639
C       -0.55760704      -0.81269996       0.19716595       1.89969074       1.07669648      -0.93783625
H       -0.15407155      -1.61180988       0.82895946      -0.16389045       0.12478960      -0.10648603
H        1.27550015      -0.30562792      -1.09831736      -0.09744652       0.87257099       0.44725739
H       -1.01483123      -1.24811619      -0.71528790      -0.05786963       0.33006805       0.77829808
H       -1.19065391      -0.17093858       0.78425697      -0.63886033      -0.11235660       0.01762169
7
Properties=species:S:1:pos:R:3:forces:R:3 energy=-4183.865699646954 free_energy=-4183.865699646954 dipole="-0.06219474948939887 -0.32167652269229213 -0.043127229859250424" pbc="F F F"
O        0.42622166       1.41313651      -0.03310847       0.85577189      -1.67737752      -0.49202433
C        0.79309923       0.14308468      -0.15672196      -2.72143299       0.98966371       1.82274819
C       -0.37212705      -0.85800638       0.23993707       1.22930534       3.79713574       0.03520094
H       -0.89474212      -0.51121960       1.11739281       0.08047280       0.00378014       0.51517850
H        1.65684237      -0.26584204      -0.58329684       1.28766583       0.13585035      -0.69482608
H        0.15775056      -1.72315062       0.40700830       0.42840179      -2.31196573       0.00072998
H       -1.03733001      -0.71624755      -0.55956114      -1.15749069      -0.93383310      -1.19080458
7
Properties=species:S:1:pos:R:3:forces:R:3 energy=-4183.978378709537 free_energy=-4183.978378709537 dipole="-0.12164372173147202 -0.32308647938578916 -0.0018784452156673634" pbc="F F F"
O        0.81558726       1.41666861      -0.00513547      -0.41169625       0.74170366      -0.72286946
C        0.51733771       0.19065971       0.23426124       0.21536043      -0.37844254       0.47525767
C       -0.45545567      -0.80828428      -0.24343448      -0.84763154      -0.16183333      -0.73440665
H        1.19409219      -0.21537477       0.95251040       0.86349507      -0.22295541       0.79200004
H        0.09612493      -1.66433358      -0.66105784      -0.27706062       0.03567798       0.01582645
H       -1.17483779      -0.46566202      -1.00947150       0.50190096       0.07313426       0.43861555
H       -1.02728515      -1.17222980       0.62133186      -0.04687295      -0.09227047      -0.26836232
7
Properties=species:S:1:pos:R:3:forces:R:3 energy=-4184.166878009319 free_energy=-4184.166878009319 dipole="-0.0065421093728726025 -0.2984445350514606 0.04729814166082656" pbc="F F F"
O        0.64287210       1.39800827      -0.14515320      -0.41610932      -1.52519105       1.12537569
C        0.28733653       0.27844699       0.53851589       0.62070092       1.03967678      -1.38629618
C       -0.06841594      -0.88562873      -0.34986369      -0.64667669       0.18858354       0.26474828
H        0.52093878       0.27091627       1.60864672      -0.05965949      -0.07637162      -0.47207551
H        0.68545853      -1.42755712      -0.89691508       1.25220672       0.14838427      -0.00850859
H       -0.70952419      -0.55039067      -1.17495479      -0.36082068      -0.02334303       0.45032989
H       -0.53313886      -1.66575770       0.24916591      -0.39505264       0.25073810       0.02559802
7
Properties=species:S:1:pos:R:3:forces:R:3 energy=-4183.8007393076 free_energy=-4183.8007393076 dipole="-0.13255554684627144 -0.338272052367848 0.008291104084228576" pbc="F F F"
O        0.81327338       1.38951878      -0.00041788       0.44219136       3.91626365      -1.22885870
C        0.52211397       0.22269398       0.21592016      -0.10641655      -3.98380191       1.56865463
C       -0.46015738      -0.80236879      -0.23992649      -0.36852658      -0.27920365      -0.09425344
H        1.17847554      -0.25877339       0.96298809       0.32165589       0.29582541       0.15292483
H        0.11253427      -1.65600180      -0.61861709      -0.30246110      -0.05062685      -0.18257993
H       -1.17785539      -0.47652898      -0.99369917       0.21001802       0.15685358       0.13485852
H       -0.99229294      -1.15539026       0.65458613      -0.19708580      -0.04689442      -0.35720193
7
Properties=species:S:1:pos:R:3:forces:R:3 energy=-4183.865524630204 free_energy=-4183.865524630204 dipole="-0.03733681565562934 -0.35512172257384045 -0.04246965203196095" pbc="F F F"
O        0.69771923       1.44347206      -0.08318823       0.09537541      -3.32103390       1.44440724
C        0.61147669       0.15140824       0.43911488      -2.38379635       1.46414813      -2.46422076
C       -0.41438590      -0.81382750      -0.31650929       0.23815572       2.13755612       0.58871135
H        1.31401157      -0.33064376       1.07151389       0.97943163       0.41302005       0.43187006
H        0.16026320      -1.60232074      -0.75721235       0.24342766      -0.48661501      -0.41398353
H       -0.94765276      -0.22913084      -1.10109489       0.42539735      -0.56823139       0.58536613
H       -1.15832888      -1.25343088       0.36977223       0.40057217       0.36124875      -0.16450937
7
Properties=species:S:1:pos:R:3:forces:R:3 energy=-4184.047477046077 free_energy=-4184.047477046077 dipole="-0.15826523638050635 -0.2567156146953027 0.1307824078955063" pbc="F F F"
O        0.75880175       1.37081039      -0.48598050      -0.84863103      -2.03209338       0.98402659
C        0.35993002       0.40803100       0.38720787       0.24964580      -0.00606371      -1.32933179
C       -0.22908760      -0.97765957       0.11430266       0.65995736      -0.51117309      -0.19050451
H        0.39956950       0.77418280       1.38899362       0.04747375       0.28429034       0.67661852
H        0.39028460      -1.71500331      -0.48710488      -0.11323184       1.06813397       0.65663888
H       -1.15660584      -0.96519621      -0.44378087      -0.43888520       0.40839233      -0.25282559
H       -0.47731722      -1.50187671       1.06665944       0.44637859       0.78083990      -0.54244083
7
Properties=species:S:1:pos:R:3:forces:R:3 energy=-4180.99436640744 free_energy=-4180.99436640744 dipole="-0.3664217425651197 -0.034046951100654935 0.003458701719068055" pbc="F F F"
O       -0.09587380       0.81258604       0.00547136      -3.20862811       6.10873728       0.03198713
C        0.78326160      -0.55433774      -0.00686899       0.94335389      -5.17985792      -0.36947024
C       -0.73269882      -0.41232101       0.00179669       2.66023386      -1.50198372      -0.31095356
H        1.32356388      -0.61643441       0.92915559      -0.11717511       0.03380775      -0.16894500
H        1.33225480      -0.61032461      -0.95646864      -0.42990719       0.06874058       0.60799232
H       -1.27872166      -0.61834054      -0.93675323       0.09075941       0.27235397       0.54463493
H       -1.29184960      -0.62111751       0.92307181       0.06377991       0.19695404      -0.33533881
7
Properties=species:S:1:pos:R:3:forces:R:3 energy=-4182.762013480968 free_energy=-4182.762013480968 dipole="-0.2260398563367593 -0.33413630492109103 0.13721376259491672" pbc="F F F"
O       -0.16513580       0.97852900      -0.23925181      -1.87125541       1.36013270       0.69345192
C        0.77646556      -0.84654497       0.03604854      -2.92117383      -1.68468711      -0.13654732
C       -0.60322546      -0.28235779       0.23057917       1.47010817       0.84796314       0.12263735
H        1.27813864      -1.30222428       0.83571385       1.00464339      -0.41853142       0.65814777
H        0.86139363      -1.05271725      -1.00072216       1.19501428      -0.25706538      -0.49198934
H       -1.42834463      -0.50119329      -0.50131525       0.56945542      -0.38852297       0.58538759
H       -1.04096598      -0.33221436       1.28996614       0.55465649       0.53454196      -1.42414949
7
Properties=species:S:1:pos:R:3:forces:R:3 energy=-4180.3943793883855 free_energy=-4180.3943793883855 dipole="-0.36135876234317743 -0.11401711076232057 0.005155154954364355" pbc="F F F"
O       -0.08961976       0.76997174       0.00096894      -2.48717987       8.32844699      -0.05886221
C        0.78407554      -0.52240044      -0.00295693       1.13687520      -5.48432876       0.25658738
C       -0.74019757      -0.38055363      -0.00005437       1.98089794      -3.81015983      -0.06347828
H        1.31139457      -0.63650043       0.94752383      -0.21926487       0.08437753      -0.47950870
H        1.31646076      -0.63462625      -0.94479421      -0.14577561       0.11945817       0.31554399
H       -1.27805094      -0.64345092      -0.91993325      -0.17799093       0.42335104       0.23833460
H       -1.28188925      -0.63352606       0.92009338      -0.08684825       0.34034238      -0.20878048
7
Properties=species:S:1:pos:R:3:forces:R:3 energy=-4182.477584059551 free_energy=-4182.477584059551 dipole="0.059559640659650005 -0.4922457356554911 -0.0383600485852919" pbc="F F F"
O       -0.34466086       1.30136544       0.04914279       0.12316992      -4.52678814      -0.41416327
C        0.78825889      -1.16142071      -0.03473219       2.22693065       3.09762414       0.46084999
C       -0.46826369      -0.38368727      -0.02608426      -0.39369195       1.71064865       0.63369321
H        1.42503619      -0.92234383       0.86161664      -0.73652197      -0.96821325      -0.66338413
H        1.41300899      -1.10467682      -0.93310428      -0.45436332      -0.70927890       0.02747037
H       -1.05630482      -0.64763040      -0.91011075      -0.16750758       0.77965867       0.24079555
H       -0.93927315      -0.68876973       0.91077322      -0.60287303       0.62041739      -0.28454660
7
Properties=species:S:1:pos:R:3:forces:R:3 energy=-4183.551512649851 free_energy=-4183.551512649851 dipole="-0.04253320409824083 -0.2102876917278181 0.26053124591371885" pbc="F F F"
O       -0.24128692       0.94827611      -0.50270615      -0.27889480       1.28705606      -1.21843065
C        0.46035594      -1.15685199       0.05279824       1.06300903      -2.77545608      -0.61114214
C       -0.23006396       0.03095169       0.47941525      -1.49435976       0.16816374       0.06927033
H        1.57262024      -1.25659205       0.05674326      -1.26090146       0.16494374      -0.02112429
H       -0.15247089      -1.95601538      -0.47614956       1.12441000       1.17356000       0.82007163
H       -1.29180924      -0.20590775       0.71024937       0.06546142       0.11367600      -0.07664691
H        0.03990567       0.60391233       1.34748696       0.78112438      -0.13192941       1.04413937
7
Properties=species:S:1:pos:R:3:forces:R:3 energy=-4180.485299265678 free_energy=-4180.485299265678 dipole="0.12399263617960886 0.4634101513583927 0.041913855090996904" pbc="F F F"
O        0.01403647       0.81050856       0.00212202       0.98283138       2.45176667      -0.05308630
C        0.72276538      -0.46267412      -0.00029910      -0.12474469      -0.84551400      -0.43800609
C       -0.73299994      -0.46604126      -0.00042932      -0.61733097      -2.53151391      -0.73726569
H        1.23131528      -0.61676479       0.94977472       0.14262243       0.19082986       0.11056020
H        1.27998497      -0.61570042      -0.95187442      -0.37567639       0.27871600       0.49076937
H       -1.26343839      -0.60568751      -0.95677734       0.15625429       0.31690079       0.20324308
H       -1.27203331      -0.59287062       0.92515462      -0.16475358       0.15122816       0.42463372
7
Properties=species:S:1:pos:R:3:forces:R:3 energy=-4182.053962638704 free_energy=-4182.053962638704 dipole="0.13511160348006582 -0.34584065387282303 -0.0434983841711957" pbc="F F F"
O        0.06185604       1.09010500       0.06107319       1.64287552       0.22965104      -0.10013250
C        0.62841440      -0.49868735      -0.12806277       0.16786437       2.86798031      -0.88340062
C       -0.69163323      -0.77397562       0.07720936      -4.87954165      -3.09881034      -0.44149180
H        1.36329674      -0.65678217       0.61424078       0.73848582       0.01800228       0.61748482
H        0.95557252      -0.41805831      -1.16333544       0.27495373      -0.37803376       0.27258053
H       -1.34825518      -0.88985138      -0.91158105       1.21782874       0.36191030       2.82986079
H       -1.15435640      -0.82637964       1.13728487       0.83655249       0.00136934      -2.29326069
7
Properties=species:S:1:pos:R:3:forces:R:3 energy=-4180.34764168923 free_energy=-4180.34764168923 dipole="0.1574506103990202 0.47379781268752114 -0.027384767714464926" pbc="F F F"
O        0.01052629       0.79389862       0.00039332       0.90934592       2.37507027      -0.01171228
C        0.72487673      -0.44245325      -0.00180894      -0.22365303      -1.15181676       0.20001316
C       -0.72889499      -0.45130557      -0.00073130      -0.92699693      -2.78614871       0.14423687