
                                 *****************
                                 * O   R   C   A *
                                 *****************

                                            #,                                       
                                            ###                                      
                                            ####                                     
                                            #####                                    
                                            ######                                   
                                           ########,                                 
                                     ,,################,,,,,                         
                               ,,#################################,,                 
                          ,,##########################################,,             
                       ,#########################################, ''#####,          
                    ,#############################################,,   '####,        
                  ,##################################################,,,,####,       
                ,###########''''           ''''###############################       
              ,#####''   ,,,,##########,,,,          '''####'''          '####       
            ,##' ,,,,###########################,,,                        '##       
           ' ,,###''''                  '''############,,,                           
         ,,##''                                '''############,,,,        ,,,,,,###''
      ,#''                                            '''#######################'''  
     '                                                          ''''####''''         
             ,#######,   #######,   ,#######,      ##                                
            ,#'     '#,  ##    ##  ,#'     '#,    #''#        ,####,   ,####,        
            ##       ##  ##   ,#'  ##            #'  '#       #'       #'  '#        
            ##       ##  #######   ##           ,######,      #####,   #    #        
            '#,     ,#'  ##    ##  '#,     ,#' ,#      #,     #,   #   #,  ,#        
             '#######'   ##     ##  '#######'  #'      '#     '####' # '####'        



                #########################################################
                #                        -***-                          #
                #          Department of theory and spectroscopy        #
                #                                                       #
                #                      Frank Neese                      #
                #                                                       #
                #     Directorship, Architecture, Infrastructure        #
                #                    SHARK, DRIVERS                     #
                #        Core code/Algorithms in most modules           #
                #                                                       #
                #        Max Planck Institute fuer Kohlenforschung      #
                #                Kaiser Wilhelm Platz 1                 #
                #                 D-45470 Muelheim/Ruhr                 #
                #                      Germany                          #
                #                                                       #
                #                  All rights reserved                  #
                #                        -***-                          #
                #########################################################


                         Program Version 6.0.0  -   RELEASE  -


 With contributions from (in alphabetic order):
   Daniel Aravena         : Magnetic Suceptibility
   Michael Atanasov       : Ab Initio Ligand Field Theory (pilot matlab implementation)
   Alexander A. Auer      : GIAO ZORA, VPT2 properties, NMR spectrum
   Ute Becker             : All parallelization in ORCA, NUMFREQ, NUMCALC
   Giovanni Bistoni       : ED, misc. LED, open-shell LED, HFLD
   Martin Brehm           : Molecular dynamics
   Dmytro Bykov           : pre 5.0 version of the SCF Hessian
   Marcos Casanova-Páez   : Triplet and SCS-CIS(D). UHF-(DLPNO)-IP/EA/STEOM-CCSD. UHF-CVS-IP/STEOM-CCSD
   Vijay G. Chilkuri      : MRCI spin determinant printing, contributions to CSF-ICE
   Pauline Colinet        : FMM embedding
   Dipayan Datta          : RHF DLPNO-CCSD density
   Achintya Kumar Dutta   : EOM-CC, STEOM-CC
   Nicolas Foglia         : Exact transition moments, OPA infrastructure, MCD improvements
   Dmitry Ganyushin       : Spin-Orbit,Spin-Spin,Magnetic field MRCI
   Miquel Garcia          : C-PCM and meta-GGA Hessian, CCSD/C-PCM, Gaussian charge scheme
   Tiago L. C. Gouveia    : GS-ROHF, GS-ROCIS
   Yang Guo               : DLPNO-NEVPT2, F12-NEVPT2, CIM, IAO-localization
   Andreas Hansen         : Spin unrestricted coupled pair/coupled cluster methods
   Ingolf Harden          : AUTO-CI MPn and infrastructure 
   Benjamin Helmich-Paris : MC-RPA, TRAH-(SCF,CASSCF), AVAS, COSX integrals, SCF dyn. polar.
   Lee Huntington         : MR-EOM, pCC
   Robert Izsak           : Overlap fitted RIJCOSX, COSX-SCS-MP3, EOM
   Riya Kayal             : Wick's Theorem for AUTO-CI, AUTO-CI UHF-CCSDT
   Emily Kempfer          : AUTO-CI, RHF CISDT and CCSDT
   Christian Kollmar      : KDIIS, OOCD, Brueckner-CCSD(T), CCSD density, CASPT2, CASPT2-K, improved NEVPT2
   Axel Koslowski         : Symmetry handling
   Simone Kossmann        : Meta GGA functionals, TD-DFT gradient, OOMP2, (MP2 Hessian; deprecated post 5.0)
   Lucas Lang             : DCDCAS
   Marvin Lechner         : AUTO-CI (C++ implementation), FIC-MRCC
   Spencer Leger          : CASSCF response
   Dagmar Lenk            : GEPOL surface, SMD, ORCA-2-JSON
   Dimitrios Liakos       : Extrapolation schemes; Compound Job, initial MDCI parallelization
   Dimitrios Manganas     : Further ROCIS development; embedding schemes. LFT, Crystal Embedding
   Dimitrios Pantazis     : SARC Basis sets
   Anastasios Papadopoulos: AUTO-CI, single reference methods and gradients
   Taras Petrenko         : pre 6.0 DFT Hessian and TD-DFT gradient, (ASA, deprecated), ECA, 1-Electron XAS/XES, NRVS
   Peter Pinski           : DLPNO-MP2, DLPNO-MP2 Gradient
   Christoph Reimann      : Effective Core Potentials
   Marius Retegan         : Local ZFS, SOC
   Christoph Riplinger    : Optimizer, TS searches, QM/MM, DLPNO-CCSD(T), (RO)-DLPNO pert. Triples
   Michael Roemelt        : Original ROCIS implementation
   Masaaki Saitow         : Open-shell DLPNO-CCSD energy and density
   Barbara Sandhoefer     : DKH picture change effects
   Kantharuban Sivalingam : CASSCF convergence/infrastructure, NEVPT2 and variants, FIC-MRCI
   Bernardo de Souza      : ESD, SOC TD-DFT
   Georgi Stoychev        : AutoAux, RI-MP2 NMR, DLPNO-MP2 response, X2C
   Van Anh Tran           : RI-MP2 g-tensors
   Willem Van den Heuvel  : Paramagnetic NMR
   Zikuan Wang            : NOTCH, Electric field optimization 
   Frank Wennmohs         : Technical directorship and infrastructure
   Hang Xu                : AUTO-CI-Response properties 


 We gratefully acknowledge several colleagues who have allowed us to
 interface, adapt or use parts of their codes:
   Stefan Grimme, W. Hujo, H. Kruse, P. Pracht,  : VdW corrections, initial TS optimization,
                  C. Bannwarth, S. Ehlert,         DFT functionals, gCP, sTDA/sTD-DF
                  L. Wittmann, M. Mueller
   Ed Valeev, F. Pavosevic, A. Kumar             : LibInt (2-el integral package), F12 methods
   Garnet Chan, S. Sharma, J. Yang, R. Olivares  : DMRG
   Ulf Ekstrom                                   : XCFun DFT Library
   Mihaly Kallay                                 : mrcc  (arbitrary order and MRCC methods)
   Frank Weinhold                                : gennbo (NPA and NBO analysis)
   Simon Mueller                                 : openCOSMO-RS
   Christopher J. Cramer and Donald G. Truhlar   : smd solvation model
   Lars Goerigk                                  : TD-DFT with DH, B97 family of functionals
   V. Asgeirsson, H. Jonsson                     : NEB implementation
   FAccTs GmbH                                   : IRC, NEB, NEB-TS, DLPNO-Multilevel, CI-OPT
                                                   MM, QMMM, 2- and 3-layer-ONIOM, Crystal-QMMM,
                                                   LR-CPCM, SF, NACMEs, symmetry and pop. for TD-DFT,
                                                   nearIR, NL-DFT gradient (VV10), updates on ESD,
                                                   ML-optimized integration grids, MBIS, APM,
                                                   GOAT, DOCKER, SOLVATOR, interface openCOSMO-RS
   S Lehtola, MJT Oliveira, MAL Marques          : LibXC Library
   Liviu Ungur et al                             : ANISO software


 Your calculation uses the libint2 library for the computation of 2-el integrals
 For citations please refer to: http://libint.valeyev.net

 Your ORCA version has been built with support for libXC version: 6.2.2
 For citations please refer to: https://libxc.gitlab.io

 This ORCA versions uses:
   CBLAS   interface :  Fast vector & matrix operations
   LAPACKE interface :  Fast linear algebra routines
   SCALAPACK package :  Parallel linear algebra routines
   Shared memory     :  Shared parallel matrices
   BLAS/LAPACK       :  OpenBLAS 0.3.27  USE64BITINT DYNAMIC_ARCH NO_AFFINITY Zen SINGLE_THREADED
        Core in use  :  Zen
   Copyright (c) 2011-2014, The OpenBLAS Project


Your calculation utilizes the atom-pairwise dispersion correction
with the Becke-Johnson damping scheme (D3BJ)


Warning: RI is on but no J-basis has been assigned. Assigning Def2/J (nothing to worry about!)
================================================================================

----- Orbital basis set information -----
Your calculation utilizes the basis: def2-TZVPPD
   F. Weigend and R. Ahlrichs, Phys. Chem. Chem. Phys. 7, 3297 (2005).
   D. Rappoport and F. Furche, J. Chem. Phys. 133, 134105 (2010)
   D. Rappoport, J. Chem. Phys. 155, 124102 (2021).

----- AuxJ basis set information -----
Your calculation utilizes the auxiliary basis: def2/J
   F. Weigend, Phys. Chem. Chem. Phys. 8, 1057 (2006).

================================================================================
                                        WARNINGS
                       Please study these warnings very carefully!
================================================================================

Using LibXC functional ID 531 : wB97M-V exchange-correlation functional
[ 1]  N. Mardirossian and M. Head-Gordon.,  J. Chem. Phys. 144, 214110 (2016)
Using LibXC functional ID 531 : wB97M-V exchange-correlation functional
[ 1]  N. Mardirossian and M. Head-Gordon.,  J. Chem. Phys. 144, 214110 (2016)

WARNING: B97M-V or wB97M-V functional requested.
  ===> : libXC variant has now been activated.
         Any manually given DFX/HFX/RangeSep scaling parameters are IGNORED!

Your calculation utilizes LibXC
 by S Lehtola, C Steigemann, MJT Oliveira & MAL Marques
Please cite in your paper:
 S Lehtola, C Steigemann, MJT Oliveira & MAL Marques, SoftwareX, 7, (2018), 1.
   


WARNING: your system is open-shell and RHF/RKS was chosen
  ===> : WILL SWITCH to UHF/UKS

INFO   : Checking CIS options ...

WARNING: CIS/ROCIS methods need fully converged wavefunctions
  ===> : Setting SCFConvForced true
         You can overwrite this default with %scf ConvForced false 


================================================================================
                                       INPUT FILE
================================================================================
NAME = orca.inp
|  1> ! Engrad def2-TZVPPD wB97M-D3BJ 
|  2> %pal nprocs 8 end%pal nprocs 64 end 
|  3> %tddft 
|  4>  Iroot 1 Nroots 3 
|  5> sf true 
|  6> end 
|  7> *xyz 0 3 
|  8> O   3.14353656 0.68263982 -0.67308997
|  9> O   -0.47430496 1.3523391 -2.42315715
| 10> O   0.49374693 -3.10896667 -0.49072709
| 11> O   -2.9804935 -1.82545483 -0.23845071
| 12> N   0.1330536 -1.43594391 1.03564817
| 13> N   -2.1671624 -0.08993047 0.96284561
| 14> N   1.71319733 -1.15128343 -0.66875046
| 15> N   -1.65726287 -0.30135419 -1.35907228
| 16> C   1.53231447 0.50394541 1.06463947
| 17> C   -0.7181906 1.61633744 -0.00654701
| 18> C   0.26893163 -0.10359813 1.54506801
| 19> C   -1.1008477 0.78635544 1.16537634
| 20> C   2.16566116 1.51948494 2.00494346
| 21> C   -0.12283559 2.9384322 -0.11762604
| 22> C   2.22982282 0.03278085 -0.16791672
| 23> C   -0.97652688 0.97903392 -1.36730843
| 24> C   0.74662466 -2.0266534 -0.05068645
| 25> C   -2.33421457 -0.79560425 -0.17033672
| 26> H   0.24438489 -0.17231744 2.64849937
| 27> H   -1.37777991 1.41278653 2.00946369
| 28> H   2.64274427 0.89340879 2.71432052
| 29> H   2.91353347 2.13431263 1.49171859
| 30> H   1.40211554 2.16710993 2.44603911
| 31> H   -0.81204342 3.56202921 -0.74191271
| 32> H   -0.05662313 3.48911371 0.8542454
| 33> H   0.85577472 2.87957689 -0.56625293
| 34> H   -0.68143772 -1.97732771 1.28213122
| 35> H   -2.9326313 -0.19228495 1.66182874
| 36> H   1.92414759 -1.30668322 -1.66752849
| 37> H   -1.70464836 -0.84807959 -2.22911548
| 38> *
| 39> 
| 40>                          ****END OF INPUT****
================================================================================

                     *******************************
                     * Energy+Gradient Calculation *
                     *******************************

---------------------------------
CARTESIAN COORDINATES (ANGSTROEM)
---------------------------------
  O      3.143537    0.682640   -0.673090
  O     -0.474305    1.352339   -2.423157
  O      0.493747   -3.108967   -0.490727
  O     -2.980494   -1.825455   -0.238451
  N      0.133054   -1.435944    1.035648
  N     -2.167162   -0.089930    0.962846
  N      1.713197   -1.151283   -0.668750
  N     -1.657263   -0.301354   -1.359072
  C      1.532314    0.503945    1.064639
  C     -0.718191    1.616337   -0.006547
  C      0.268932   -0.103598    1.545068
  C     -1.100848    0.786355    1.165376
  C      2.165661    1.519485    2.004943
  C     -0.122836    2.938432   -0.117626
  C      2.229823    0.032781   -0.167917
  C     -0.976527    0.979034   -1.367308
  C      0.746625   -2.026653   -0.050686
  C     -2.334215   -0.795604   -0.170337
  H      0.244385   -0.172317    2.648499
  H     -1.377780    1.412787    2.009464
  H      2.642744    0.893409    2.714321
  H      2.913533    2.134313    1.491719
  H      1.402116    2.167110    2.446039
  H     -0.812043    3.562029   -0.741913
  H     -0.056623    3.489114    0.854245
  H      0.855775    2.879577   -0.566253
  H     -0.681438   -1.977328    1.282131
  H     -2.932631   -0.192285    1.661829
  H      1.924148   -1.306683   -1.667528
  H     -1.704648   -0.848080   -2.229115

----------------------------
CARTESIAN COORDINATES (A.U.)
----------------------------
  NO LB      ZA    FRAG     MASS         X           Y           Z
   0 O     8.0000    0    15.999    5.940423    1.290002   -1.271956
   1 O     8.0000    0    15.999   -0.896306    2.555551   -4.579103
   2 O     8.0000    0    15.999    0.933046   -5.875096   -0.927340
   3 O     8.0000    0    15.999   -5.632316   -3.449610   -0.450607
   4 N     7.0000    0    14.007    0.251435   -2.713541    1.957091
   5 N     7.0000    0    14.007   -4.095343   -0.169944    1.819515
   6 N     7.0000    0    14.007    3.237474   -2.175610   -1.263755
   7 N     7.0000    0    14.007   -3.131773   -0.569477   -2.568274
   8 C     6.0000    0    12.011    2.895655    0.952319    2.011877
   9 C     6.0000    0    12.011   -1.357184    3.054435   -0.012372
  10 C     6.0000    0    12.011    0.508207   -0.195772    2.919755
  11 C     6.0000    0    12.011   -2.080301    1.485996    2.202242
  12 C     6.0000    0    12.011    4.092506    2.871410    3.788794
  13 C     6.0000    0    12.011   -0.232126    5.552832   -0.222281
  14 C     6.0000    0    12.011    4.213754    0.061947   -0.317317
  15 C     6.0000    0    12.011   -1.845368    1.850106   -2.583838
  16 C     6.0000    0    12.011    1.410916   -3.829820   -0.095784
  17 C     6.0000    0    12.011   -4.411026   -1.503474   -0.321890
  18 H     1.0000    0     1.008    0.461821   -0.325633    5.004938
  19 H     1.0000    0     1.008   -2.603627    2.669780    3.797336
  20 H     1.0000    0     1.008    4.994063    1.688298    5.129322
  21 H     1.0000    0     1.008    5.505780    4.033266    2.818940
  22 H     1.0000    0     1.008    2.649614    4.095244    4.622344
  23 H     1.0000    0     1.008   -1.534540    6.731260   -1.402012
  24 H     1.0000    0     1.008   -0.107002    6.593469    1.614290
  25 H     1.0000    0     1.008    1.617180    5.441612   -1.070063
  26 H     1.0000    0     1.008   -1.287731   -3.736608    2.422877
  27 H     1.0000    0     1.008   -5.541870   -0.363366    3.140401
  28 H     1.0000    0     1.008    3.636112   -2.469273   -3.151172
  29 H     1.0000    0     1.008   -3.221319   -1.602638   -4.212418

--------------------------------
INTERNAL COORDINATES (ANGSTROEM)
--------------------------------
 O      0   0   0     0.000000000000     0.00000000     0.00000000
 O      1   0   0     4.074310926277     0.00000000     0.00000000
 O      1   2   0     4.629354283080    69.10147247     0.00000000
 O      3   1   2     3.712329804957   104.78423727   328.19198137
 N      3   1   2     2.293234891616    61.23118038   280.22447086
 N      4   3   1     2.262004670823    87.98620040   326.34415309
 N      3   1   2     2.313282357712     3.71370277     7.19708789
 N      2   1   3     2.294856754742    98.05442282    22.66794604
 C      1   2   3     2.376483099480    74.00329869   295.04437412
 C      6   4   3     2.439383428164   122.62901915    67.49789487
 C      5   3   1     1.432870088286   154.16940804    15.14893754
 C      6   4   3     1.394963344355   146.50418517    33.66861365
 C      9   1   2     1.522044730071    96.86030247   234.21296719
 C     10   6   4     1.454207926418   155.43036398   153.65579175
 C      1   2   3     1.229792458942    66.64432181   328.70053337
 C      2   1   3     1.227354933941    86.78041507    54.83078998
 C      3   1   2     1.195401575036    31.99049061   282.29641658
 C      4   3   1     1.217747177423    78.43479364   354.60925437
 H     11   5   3     1.105841603596   107.14925022   210.99193965
 H     12   6   4     1.087010033939   106.26077605   182.11507083
 H     13   9   1     1.059620428597   101.92977359   257.87699222
 H     13   9   1     1.095776367532   111.65510611    14.96386027
 H     13   9   1     1.094068285777   110.70919573   137.18288262
 H     14  10   6     1.119649279977   107.27381656   273.54339859
 H     14  10   6     1.119003266842   113.90949119    28.39981969
 H     14  10   6     1.078150347950   110.71734902   152.38183627
 H      5   3   1     1.008586348904    84.15008616   171.51006917
 H      6   4   3     1.041631649129    90.95978722   225.53357283
 H      7   3  17     1.032572835270    93.13966670   199.85391657
 H      8   2   1     1.028654080599    90.83427603   251.45934661

---------------------------
INTERNAL COORDINATES (A.U.)
---------------------------
 O      0   0   0     0.000000000000     0.00000000     0.00000000
 O      1   0   0     7.699331835107     0.00000000     0.00000000
 O      1   2   0     8.748211771916    69.10147247     0.00000000
 O      3   1   2     7.015286650162   104.78423727   328.19198137
 N      3   1   2     4.333585905907    61.23118038   280.22447086
 N      4   3   1     4.274569341507    87.98620040   326.34415309
 N      3   1   2     4.371470126508     3.71370277     7.19708789
 N      2   1   3     4.336650783042    98.05442282    22.66794604
 C      1   2   3     4.490902219909    74.00329869   295.04437412
 C      6   4   3     4.609766614856   122.62901915    67.49789487
 C      5   3   1     2.707732052349   154.16940804    15.14893754
 C      6   4   3     2.636098687690   146.50418517    33.66861365
 C      9   1   2     2.876247703412    96.86030247   234.21296719
 C     10   6   4     2.748054722708   155.43036398   153.65579175
 C      1   2   3     2.323970948961    66.64432181   328.70053337
 C      2   1   3     2.319364694265    86.78041507    54.83078998
 C      3   1   2     2.258981596877    31.99049061   282.29641658
 C      4   3   1     2.301208665685    78.43479364   354.60925437
 H     11   5   3     2.089737778292   107.14925022   210.99193965
 H     12   6   4     2.054151268969   106.26077605   182.11507083
 H     13   9   1     2.002392415957   101.92977359   257.87699222
 H     13   9   1     2.070717238659   111.65510611    14.96386027
 H     13   9   1     2.067489431927   110.70919573   137.18288262
 H     14  10   6     2.115830505199   107.27381656   273.54339859
 H     14  10   6     2.114609717294   113.90949119    28.39981969
 H     14  10   6     2.037408888817   110.71734902   152.38183627
 H      5   3   1     1.905951981840    84.15008616   171.51006917
 H      6   4   3     1.968398549279    90.95978722   225.53357283
 H      7   3  17     1.951279871986    93.13966670   199.85391657
 H      8   2   1     1.943874498874    90.83427603   251.45934661

---------------------
BASIS SET INFORMATION
---------------------
There are 4 groups of distinct atoms

 Group   1 Type O   : 12s7p3d1f contracted to 6s4p3d1f pattern {621111/4111/111/1}
 Group   2 Type N   : 12s6p3d1f contracted to 6s3p3d1f pattern {621111/411/111/1}
 Group   3 Type C   : 12s6p3d1f contracted to 6s3p3d1f pattern {621111/411/111/1}
 Group   4 Type H   : 5s3p1d contracted to 3s3p1d pattern {311/111/1}

Atom   0O    basis set group =>   1
Atom   1O    basis set group =>   1
Atom   2O    basis set group =>   1
Atom   3O    basis set group =>   1
Atom   4N    basis set group =>   2
Atom   5N    basis set group =>   2
Atom   6N    basis set group =>   2
Atom   7N    basis set group =>   2
Atom   8C    basis set group =>   3
Atom   9C    basis set group =>   3
Atom  10C    basis set group =>   3
Atom  11C    basis set group =>   3
Atom  12C    basis set group =>   3
Atom  13C    basis set group =>   3
Atom  14C    basis set group =>   3
Atom  15C    basis set group =>   3
Atom  16C    basis set group =>   3
Atom  17C    basis set group =>   3
Atom  18H    basis set group =>   4
Atom  19H    basis set group =>   4
Atom  20H    basis set group =>   4
Atom  21H    basis set group =>   4
Atom  22H    basis set group =>   4
Atom  23H    basis set group =>   4
Atom  24H    basis set group =>   4
Atom  25H    basis set group =>   4
Atom  26H    basis set group =>   4
Atom  27H    basis set group =>   4
Atom  28H    basis set group =>   4
Atom  29H    basis set group =>   4
---------------------------------
AUXILIARY/J BASIS SET INFORMATION
---------------------------------
There are 4 groups of distinct atoms

 Group   1 Type O   : 12s5p4d2f1g contracted to 6s4p3d1f1g pattern {711111/2111/211/2/1}
 Group   2 Type N   : 12s5p4d2f1g contracted to 6s4p3d1f1g pattern {711111/2111/211/2/1}
 Group   3 Type C   : 12s5p4d2f1g contracted to 6s4p3d1f1g pattern {711111/2111/211/2/1}
 Group   4 Type H   : 5s2p1d contracted to 3s1p1d pattern {311/2/1}

Atom   0O    basis set group =>   1
Atom   1O    basis set group =>   1
Atom   2O    basis set group =>   1
Atom   3O    basis set group =>   1
Atom   4N    basis set group =>   2
Atom   5N    basis set group =>   2
Atom   6N    basis set group =>   2
Atom   7N    basis set group =>   2
Atom   8C    basis set group =>   3
Atom   9C    basis set group =>   3
Atom  10C    basis set group =>   3
Atom  11C    basis set group =>   3
Atom  12C    basis set group =>   3
Atom  13C    basis set group =>   3
Atom  14C    basis set group =>   3
Atom  15C    basis set group =>   3
Atom  16C    basis set group =>   3
Atom  17C    basis set group =>   3
Atom  18H    basis set group =>   4
Atom  19H    basis set group =>   4
Atom  20H    basis set group =>   4
Atom  21H    basis set group =>   4
Atom  22H    basis set group =>   4
Atom  23H    basis set group =>   4
Atom  24H    basis set group =>   4
Atom  25H    basis set group =>   4
Atom  26H    basis set group =>   4
Atom  27H    basis set group =>   4
Atom  28H    basis set group =>   4
Atom  29H    basis set group =>   4
[1741086769.496077] [ohm:627130:0]        ib_iface.c:1059 UCX  ERROR ibv_create_cq(cqe=256) failed: Connection timed out
[1741086769.504290] [ohm:627129:0]        ib_iface.c:1059 UCX  ERROR ibv_create_cq(cqe=256) failed: Connection timed out
[1741086769.510426] [ohm:627134:0]        ib_iface.c:1059 UCX  ERROR ibv_create_cq(cqe=256) failed: Connection timed out
[1741086769.517902] [ohm:627131:0]        ib_iface.c:1059 UCX  ERROR ibv_create_cq(cqe=256) failed: Connection timed out
[1741086769.538512] [ohm:627132:0]        ib_iface.c:1059 UCX  ERROR ibv_create_cq(cqe=256) failed: Connection timed out
[1741086769.558923] [ohm:627151:0]        ib_iface.c:1059 UCX  ERROR ibv_create_cq(cqe=256) failed: Connection timed out
[1741086769.586218] [ohm:627136:0]        ib_iface.c:1059 UCX  ERROR ibv_create_cq(cqe=256) failed: Connection timed out
[1741086769.596730] [ohm:627165:0]        ib_iface.c:1059 UCX  ERROR ibv_create_cq(cqe=256) failed: Connection timed out
[1741086769.603314] [ohm:627135:0]        ib_iface.c:1059 UCX  ERROR ibv_create_cq(cqe=256) failed: Connection timed out
[1741086769.603518] [ohm:627193:0]        ib_iface.c:1059 UCX  ERROR ibv_create_cq(cqe=256) failed: Connection timed out
[1741086769.609328] [ohm:627255:0]        ib_iface.c:1059 UCX  ERROR ibv_create_cq(cqe=256) failed: Connection timed out
[1741086769.617530] [ohm:627232:0]        ib_iface.c:1059 UCX  ERROR ibv_create_cq(cqe=256) failed: Connection timed out
[1741086769.643470] [ohm:627237:0]        ib_iface.c:1059 UCX  ERROR ibv_create_cq(cqe=256) failed: Connection timed out
[1741086769.650747] [ohm:627256:0]        ib_iface.c:1059 UCX  ERROR ibv_create_cq(cqe=256) failed: Connection timed out
[1741086769.660966] [ohm:627150:0]        ib_iface.c:1059 UCX  ERROR ibv_create_cq(cqe=256) failed: Connection timed out
[1741086769.721415] [ohm:627251:0]        ib_iface.c:1059 UCX  ERROR ibv_create_cq(cqe=256) failed: Connection timed out
[1741086769.722989] [ohm:627266:0]        ib_iface.c:1059 UCX  ERROR ibv_create_cq(cqe=256) failed: Connection timed out
[1741086769.724673] [ohm:627139:0]        ib_iface.c:1059 UCX  ERROR ibv_create_cq(cqe=256) failed: Connection timed out
[1741086769.726614] [ohm:627154:0]        ib_iface.c:1059 UCX  ERROR ibv_create_cq(cqe=256) failed: Connection timed out
[1741086769.732066] [ohm:627176:0]        ib_iface.c:1059 UCX  ERROR ibv_create_cq(cqe=256) failed: Connection timed out
[1741086769.732888] [ohm:627218:0]        ib_iface.c:1059 UCX  ERROR ibv_create_cq(cqe=256) failed: Connection timed out
[1741086769.733442] [ohm:627259:0]        ib_iface.c:1059 UCX  ERROR ibv_create_cq(cqe=256) failed: Connection timed out
[1741086769.734434] [ohm:627153:0]        ib_iface.c:1059 UCX  ERROR ibv_create_cq(cqe=256) failed: Connection timed out
[1741086769.745680] [ohm:627155:0]        ib_iface.c:1059 UCX  ERROR ibv_create_cq(cqe=256) failed: Connection timed out
[1741086769.749260] [ohm:627228:0]        ib_iface.c:1059 UCX  ERROR ibv_create_cq(cqe=256) failed: Connection timed out
[1741086769.756699] [ohm:627215:0]        ib_iface.c:1059 UCX  ERROR ibv_create_cq(cqe=256) failed: Connection timed out
[1741086769.761351] [ohm:627245:0]        ib_iface.c:1059 UCX  ERROR ibv_create_cq(cqe=256) failed: Connection timed out
[1741086769.768948] [ohm:627152:0]        ib_iface.c:1059 UCX  ERROR ibv_create_cq(cqe=256) failed: Connection timed out
[1741086769.769668] [ohm:627209:0]        ib_iface.c:1059 UCX  ERROR ibv_create_cq(cqe=256) failed: Connection timed out
[1741086769.772681] [ohm:627146:0]        ib_iface.c:1059 UCX  ERROR ibv_create_cq(cqe=256) failed: Connection timed out
[1741086769.797144] [ohm:627202:0]        ib_iface.c:1059 UCX  ERROR ibv_create_cq(cqe=256) failed: Connection timed out
[1741086769.798896] [ohm:627189:0]        ib_iface.c:1059 UCX  ERROR ibv_create_cq(cqe=256) failed: Connection timed out
[1741086769.799652] [ohm:627143:0]        ib_iface.c:1059 UCX  ERROR ibv_create_cq(cqe=256) failed: Connection timed out
[1741086769.809194] [ohm:627205:0]        ib_iface.c:1059 UCX  ERROR ibv_create_cq(cqe=256) failed: Connection timed out
[1741086769.815765] [ohm:627156:0]        ib_iface.c:1059 UCX  ERROR ibv_create_cq(cqe=256) failed: Connection timed out
[1741086769.815941] [ohm:627240:0]        ib_iface.c:1059 UCX  ERROR ibv_create_cq(cqe=256) failed: Connection timed out
[1741086769.819819] [ohm:627161:0]        ib_iface.c:1059 UCX  ERROR ibv_create_cq(cqe=256) failed: Connection timed out
[1741086769.825937] [ohm:627138:0]        ib_iface.c:1059 UCX  ERROR ibv_create_cq(cqe=256) failed: Connection timed out
[1741086769.827960] [ohm:627213:0]        ib_iface.c:1059 UCX  ERROR ibv_create_cq(cqe=256) failed: Connection timed out
[1741086769.839143] [ohm:627179:0]        ib_iface.c:1059 UCX  ERROR ibv_create_cq(cqe=256) failed: Connection timed out
[1741086769.841090] [ohm:627186:0]        ib_iface.c:1059 UCX  ERROR ibv_create_cq(cqe=256) failed: Connection timed out
[1741086769.843275] [ohm:627196:0]        ib_iface.c:1059 UCX  ERROR ibv_create_cq(cqe=256) failed: Connection timed out
[1741086769.848640] [ohm:627147:0]        ib_iface.c:1059 UCX  ERROR ibv_create_cq(cqe=256) failed: Connection timed out
[1741086769.849162] [ohm:627158:0]        ib_iface.c:1059 UCX  ERROR ibv_create_cq(cqe=256) failed: Connection timed out
[1741086769.851444] [ohm:627170:0]        ib_iface.c:1059 UCX  ERROR ibv_create_cq(cqe=256) failed: Connection timed out
[1741086769.859201] [ohm:627174:0]        ib_iface.c:1059 UCX  ERROR ibv_create_cq(cqe=256) failed: Connection timed out
[1741086769.863945] [ohm:627271:0]        ib_iface.c:1059 UCX  ERROR ibv_create_cq(cqe=256) failed: Connection timed out
[1741086769.865656] [ohm:627148:0]        ib_iface.c:1059 UCX  ERROR ibv_create_cq(cqe=256) failed: Connection timed out
[1741086769.867327] [ohm:627142:0]        ib_iface.c:1059 UCX  ERROR ibv_create_cq(cqe=256) failed: Connection timed out
[1741086769.869407] [ohm:627220:0]        ib_iface.c:1059 UCX  ERROR ibv_create_cq(cqe=256) failed: Connection timed out
[1741086769.870308] [ohm:627137:0]        ib_iface.c:1059 UCX  ERROR ibv_create_cq(cqe=256) failed: Connection timed out
[1741086769.872125] [ohm:627261:0]        ib_iface.c:1059 UCX  ERROR ibv_create_cq(cqe=256) failed: Connection timed out
[1741086769.874471] [ohm:627224:0]        ib_iface.c:1059 UCX  ERROR ibv_create_cq(cqe=256) failed: Connection timed out
[1741086769.874827] [ohm:627133:0]        ib_iface.c:1059 UCX  ERROR ibv_create_cq(cqe=256) failed: Connection timed out
[1741086769.875535] [ohm:627145:0]        ib_iface.c:1059 UCX  ERROR ibv_create_cq(cqe=256) failed: Connection timed out
[1741086769.875929] [ohm:627248:0]        ib_iface.c:1059 UCX  ERROR ibv_create_cq(cqe=256) failed: Connection timed out
[1741086769.876497] [ohm:627273:0]        ib_iface.c:1059 UCX  ERROR ibv_create_cq(cqe=256) failed: Connection timed out
[1741086769.877907] [ohm:627140:0]        ib_iface.c:1059 UCX  ERROR ibv_create_cq(cqe=256) failed: Connection timed out
[1741086769.879846] [ohm:627141:0]        ib_iface.c:1059 UCX  ERROR ibv_create_cq(cqe=256) failed: Connection timed out
[1741086769.880035] [ohm:627144:0]        ib_iface.c:1059 UCX  ERROR ibv_create_cq(cqe=256) failed: Connection timed out
[1741086769.880597] [ohm:627159:0]        ib_iface.c:1059 UCX  ERROR ibv_create_cq(cqe=256) failed: Connection timed out
[1741086769.880780] [ohm:627230:0]        ib_iface.c:1059 UCX  ERROR ibv_create_cq(cqe=256) failed: Connection timed out
[1741086769.882261] [ohm:627149:0]        ib_iface.c:1059 UCX  ERROR ibv_create_cq(cqe=256) failed: Connection timed out
[1741086769.882249] [ohm:627167:0]        ib_iface.c:1059 UCX  ERROR ibv_create_cq(cqe=256) failed: Connection timed out


           ************************************************************
           *        Program running with 64 parallel MPI-processes    *
           *              working on a common directory               *
           ************************************************************
------------------------------------------------------------------------------
                             ORCA STARTUP CALCULATIONS
                           -- RI-GTO INTEGRALS CHOSEN --
------------------------------------------------------------------------------
------------------------------------------------------------------------------
                   ___                                                        
                  /   \      - P O W E R E D   B Y -                         
                 /     \                                                     
                 |  |  |   _    _      __       _____    __    __             
                 |  |  |  | |  | |    /  \     |  _  \  |  |  /  |          
                  \  \/   | |  | |   /    \    | | | |  |  | /  /          
                 / \  \   | |__| |  /  /\  \   | |_| |  |  |/  /          
                |  |  |   |  __  | /  /__\  \  |    /   |      \           
                |  |  |   | |  | | |   __   |  |    \   |  |\   \          
                \     /   | |  | | |  |  |  |  | |\  \  |  | \   \       
                 \___/    |_|  |_| |__|  |__|  |_| \__\ |__|  \__/        
                                                                              
                      - O R C A' S   B I G   F R I E N D -                    
                                      &                                       
                       - I N T E G R A L  F E E D E R -                       
                                                                              
 v1 FN, 2020, v2 2021, v3 2022-2024                                           
------------------------------------------------------------------------------


----------------------
SHARK INTEGRAL PACKAGE
----------------------

Number of atoms                             ...     30
Number of basis functions                   ...    882
Number of shells                            ...    322
Maximum angular momentum                    ...      3
Integral batch strategy                     ... SHARK/LIBINT Hybrid
RI-J (if used) integral strategy            ... SPLIT-RIJ (Revised 2003 algorithm where possible)
Printlevel                                  ...      1
Contraction scheme used                     ... SEGMENTED contraction
Prescreening option                         ... SCHWARTZ
   Thresh                                   ... 2.500e-11
   Tcut                                     ... 2.500e-12
   Tpresel                                  ... 2.500e-12 
Coulomb Range Separation                    ... NOT USED
Exchange Range Separation                   ... Long Range
   Mu parameter                             ... 3.000e-01
   Scaling (regular/separated)              ... 1.500e-01 8.500e-01
Multipole approximations                    ... NOT USED
Finite Nucleus Model                        ... NOT USED
CABS basis                                  ... NOT available
Auxiliary Coulomb fitting basis             ... AVAILABLE
   # of basis functions in Aux-J            ...   1014
   # of shells in Aux-J                     ...    330
   Maximum angular momentum in Aux-J        ...      4
Auxiliary J/K fitting basis                 ... NOT available
Auxiliary Correlation fitting basis         ... NOT available
Auxiliary 'external' fitting basis          ... NOT available

Checking pre-screening integrals            ... done (  0.0 sec) Dimension = 322
Check shell pair data                       ... done (  0.0 sec)
Shell pair information
Shell pair cut-off parameter TPreSel        ...   2.5e-12
Total number of shell pairs                 ...     52003
Shell pairs after pre-screening             ...     45262
Total number of primitive shell pairs       ...    129718
Primitive shell pairs kept                  ...     84560
          la=0 lb=0:   8759 shell pairs
          la=1 lb=0:  11957 shell pairs
          la=1 lb=1:   4123 shell pairs
          la=2 lb=0:   8135 shell pairs
          la=2 lb=1:   5615 shell pairs
          la=2 lb=2:   1939 shell pairs
          la=3 lb=0:   2083 shell pairs
          la=3 lb=1:   1488 shell pairs
          la=3 lb=2:   1019 shell pairs
          la=3 lb=3:    144 shell pairs

Calculating one electron integrals          ... done (  0.2 sec)
Calculating RI/J V-Matrix + Cholesky decomp.... done (  0.0 sec)
Calculating Nuclear repulsion               ... done (  0.0 sec) ENN=   1450.928024929066 Eh

Diagonalization of the overlap matrix:
Smallest eigenvalue                        ... 4.327e-07
Time for diagonalization                   ...    0.124 sec
Threshold for overlap eigenvalues          ... 1.000e-07
Number of eigenvalues below threshold      ... 0

IMPORTANT:
Smallest eigenvalue of S below the DiffSThresh (1.000e-06) while
Thresh>1e-12 and/or TCut>1e-13! In order to avoid SCF convergence issues,
Thresh will be set to at least 1e-12 and TCut to at least 1e-13.
This can be turned off by adding %SCF DiffSThresh -1 END to the input.

Time for construction of square roots      ...    0.117 sec
Total time needed                          ...    0.256 sec

-------------------
DFT GRID GENERATION
-------------------

General Integration Accuracy     IntAcc      ... 4.388
Radial Grid Type                 RadialGrid  ... OptM3 with GC (2021)
Angular Grid (max. ang.)         AngularGrid ... 4 (Lebedev-302)
Angular grid pruning method      GridPruning ... 4 (adaptive)
Weight generation scheme         WeightScheme... mBecke (2022)
Basis function cutoff            BFCut       ... 1.0000e-11
Integration weight cutoff        WCut        ... 1.0000e-14
Partially contracted basis set               ... off
Rotationally invariant grid construction     ... off
Angular grids for H and He will be reduced by one unit
Diffuse basis detected: some atoms will have their outermost
                        angular grid increased by 1.

Total number of grid points                  ...   151977
Total number of batches                      ...     2392
Average number of points per batch           ...       63
Average number of grid points per atom       ...     5066

--------------------
COSX GRID GENERATION
--------------------

GRIDX 1
-------
General Integration Accuracy     IntAcc      ... 3.816
Radial Grid Type                 RadialGrid  ... OptM3 with GC (2021)
Angular Grid (max. ang.)         AngularGrid ... 1 (Lebedev-50)
Angular grid pruning method      GridPruning ... 4 (adaptive)
Weight generation scheme         WeightScheme... mBecke (2022)
Basis function cutoff            BFCut       ... 1.0000e-11
Integration weight cutoff        WCut        ... 1.0000e-14
Partially contracted basis set               ... on
Rotationally invariant grid construction     ... off
Angular grids for H and He will be reduced by one unit
Diffuse basis detected: some atoms will have their outermost
                        angular grid increased by 1.

Total number of grid points                  ...    19029
Total number of batches                      ...      165
Average number of points per batch           ...      115
Average number of grid points per atom       ...      634
UseSFitting                                  ... on

GRIDX 2
-------
General Integration Accuracy     IntAcc      ... 4.020
Radial Grid Type                 RadialGrid  ... OptM3 with GC (2021)
Angular Grid (max. ang.)         AngularGrid ... 2 (Lebedev-110)
Angular grid pruning method      GridPruning ... 4 (adaptive)
Weight generation scheme         WeightScheme... mBecke (2022)
Basis function cutoff            BFCut       ... 1.0000e-11
Integration weight cutoff        WCut        ... 1.0000e-14
Partially contracted basis set               ... on
Rotationally invariant grid construction     ... off
Angular grids for H and He will be reduced by one unit
Diffuse basis detected: some atoms will have their outermost
                        angular grid increased by 1.

Total number of grid points                  ...    45814
Total number of batches                      ...      372
Average number of points per batch           ...      123
Average number of grid points per atom       ...     1527
UseSFitting                                  ... on

GRIDX 3
-------
General Integration Accuracy     IntAcc      ... 4.338
Radial Grid Type                 RadialGrid  ... OptM3 with GC (2021)
Angular Grid (max. ang.)         AngularGrid ... 3 (Lebedev-194)
Angular grid pruning method      GridPruning ... 4 (adaptive)
Weight generation scheme         WeightScheme... mBecke (2022)
Basis function cutoff            BFCut       ... 1.0000e-11
Integration weight cutoff        WCut        ... 1.0000e-14
Partially contracted basis set               ... on
Rotationally invariant grid construction     ... off
Angular grids for H and He will be reduced by one unit
Diffuse basis detected: some atoms will have their outermost
                        angular grid increased by 1.

Total number of grid points                  ...   100872
Total number of batches                      ...      804
Average number of points per batch           ...      125
Average number of grid points per atom       ...     3362
UseSFitting                                  ... on
Initializing property integral containers    ... done (  0.0 sec)

SHARK setup successfully completed in   4.1 seconds

Maximum memory used throughout the entire STARTUP-calculation: 80.4 MB
[1741086775.859325] [ohm:627489:0]        ib_iface.c:1059 UCX  ERROR ibv_create_cq(cqe=256) failed: Connection timed out
[1741086775.864774] [ohm:627493:0]        ib_iface.c:1059 UCX  ERROR ibv_create_cq(cqe=256) failed: Connection timed out
[1741086775.871269] [ohm:627490:0]        ib_iface.c:1059 UCX  ERROR ibv_create_cq(cqe=256) failed: Connection timed out
[1741086775.880593] [ohm:627485:0]        ib_iface.c:1059 UCX  ERROR ibv_create_cq(cqe=256) failed: Connection timed out
[1741086775.882680] [ohm:627488:0]        ib_iface.c:1059 UCX  ERROR ibv_create_cq(cqe=256) failed: Connection timed out
[1741086775.891311] [ohm:627494:0]        ib_iface.c:1059 UCX  ERROR ibv_create_cq(cqe=256) failed: Connection timed out
[1741086775.893621] [ohm:627502:0]        ib_iface.c:1059 UCX  ERROR ibv_create_cq(cqe=256) failed: Connection timed out
[1741086775.909828] [ohm:627487:0]        ib_iface.c:1059 UCX  ERROR ibv_create_cq(cqe=256) failed: Connection timed out
[1741086775.915154] [ohm:627510:0]        ib_iface.c:1059 UCX  ERROR ibv_create_cq(cqe=256) failed: Connection timed out
[1741086775.921293] [ohm:627509:0]        ib_iface.c:1059 UCX  ERROR ibv_create_cq(cqe=256) failed: Connection timed out
[1741086775.926620] [ohm:627508:0]        ib_iface.c:1059 UCX  ERROR ibv_create_cq(cqe=256) failed: Connection timed out
[1741086775.927355] [ohm:627500:0]        ib_iface.c:1059 UCX  ERROR ibv_create_cq(cqe=256) failed: Connection timed out
[1741086775.938843] [ohm:627507:0]        ib_iface.c:1059 UCX  ERROR ibv_create_cq(cqe=256) failed: Connection timed out
[1741086775.987956] [ohm:627517:0]        ib_iface.c:1059 UCX  ERROR ibv_create_cq(cqe=256) failed: Connection timed out
[1741086775.996222] [ohm:627511:0]        ib_iface.c:1059 UCX  ERROR ibv_create_cq(cqe=256) failed: Connection timed out
[1741086775.997925] [ohm:627503:0]        ib_iface.c:1059 UCX  ERROR ibv_create_cq(cqe=256) failed: Connection timed out
[1741086776.000521] [ohm:627505:0]        ib_iface.c:1059 UCX  ERROR ibv_create_cq(cqe=256) failed: Connection timed out
[1741086776.002461] [ohm:627499:0]        ib_iface.c:1059 UCX  ERROR ibv_create_cq(cqe=256) failed: Connection timed out
[1741086776.006577] [ohm:627495:0]        ib_iface.c:1059 UCX  ERROR ibv_create_cq(cqe=256) failed: Connection timed out
[1741086776.040367] [ohm:627498:0]        ib_iface.c:1059 UCX  ERROR ibv_create_cq(cqe=256) failed: Connection timed out
[1741086776.046473] [ohm:627492:0]        ib_iface.c:1059 UCX  ERROR ibv_create_cq(cqe=256) failed: Connection timed out
[1741086776.063575] [ohm:627558:0]        ib_iface.c:1059 UCX  ERROR ibv_create_cq(cqe=256) failed: Connection timed out
[1741086776.079478] [ohm:627513:0]        ib_iface.c:1059 UCX  ERROR ibv_create_cq(cqe=256) failed: Connection timed out
[1741086776.082617] [ohm:627497:0]        ib_iface.c:1059 UCX  ERROR ibv_create_cq(cqe=256) failed: Connection timed out
[1741086776.089151] [ohm:627591:0]        ib_iface.c:1059 UCX  ERROR ibv_create_cq(cqe=256) failed: Connection timed out
[1741086776.099320] [ohm:627538:0]        ib_iface.c:1059 UCX  ERROR ibv_create_cq(cqe=256) failed: Connection timed out
[1741086776.099596] [ohm:627496:0]        ib_iface.c:1059 UCX  ERROR ibv_create_cq(cqe=256) failed: Connection timed out
[1741086776.111105] [ohm:627562:0]        ib_iface.c:1059 UCX  ERROR ibv_create_cq(cqe=256) failed: Connection timed out
[1741086776.111288] [ohm:627486:0]        ib_iface.c:1059 UCX  ERROR ibv_create_cq(cqe=256) failed: Connection timed out
[1741086776.116707] [ohm:627615:0]        ib_iface.c:1059 UCX  ERROR ibv_create_cq(cqe=256) failed: Connection timed out
[1741086776.121010] [ohm:627506:0]        ib_iface.c:1059 UCX  ERROR ibv_create_cq(cqe=256) failed: Connection timed out
[1741086776.121373] [ohm:627542:0]        ib_iface.c:1059 UCX  ERROR ibv_create_cq(cqe=256) failed: Connection timed out
[1741086776.122110] [ohm:627581:0]        ib_iface.c:1059 UCX  ERROR ibv_create_cq(cqe=256) failed: Connection timed out
[1741086776.127718] [ohm:627585:0]        ib_iface.c:1059 UCX  ERROR ibv_create_cq(cqe=256) failed: Connection timed out
[1741086776.137163] [ohm:627601:0]        ib_iface.c:1059 UCX  ERROR ibv_create_cq(cqe=256) failed: Connection timed out
[1741086776.139966] [ohm:627628:0]        ib_iface.c:1059 UCX  ERROR ibv_create_cq(cqe=256) failed: Connection timed out
[1741086776.143105] [ohm:627519:0]        ib_iface.c:1059 UCX  ERROR ibv_create_cq(cqe=256) failed: Connection timed out
[1741086776.150438] [ohm:627595:0]        ib_iface.c:1059 UCX  ERROR ibv_create_cq(cqe=256) failed: Connection timed out
[1741086776.156134] [ohm:627574:0]        ib_iface.c:1059 UCX  ERROR ibv_create_cq(cqe=256) failed: Connection timed out
[1741086776.160152] [ohm:627606:0]        ib_iface.c:1059 UCX  ERROR ibv_create_cq(cqe=256) failed: Connection timed out
[1741086776.166710] [ohm:627624:0]        ib_iface.c:1059 UCX  ERROR ibv_create_cq(cqe=256) failed: Connection timed out
[1741086776.168625] [ohm:627631:0]        ib_iface.c:1059 UCX  ERROR ibv_create_cq(cqe=256) failed: Connection timed out
[1741086776.171336] [ohm:627551:0]        ib_iface.c:1059 UCX  ERROR ibv_create_cq(cqe=256) failed: Connection timed out
[1741086776.174416] [ohm:627597:0]        ib_iface.c:1059 UCX  ERROR ibv_create_cq(cqe=256) failed: Connection timed out
[1741086776.174992] [ohm:627535:0]        ib_iface.c:1059 UCX  ERROR ibv_create_cq(cqe=256) failed: Connection timed out
[1741086776.175935] [ohm:627491:0]        ib_iface.c:1059 UCX  ERROR ibv_create_cq(cqe=256) failed: Connection timed out
[1741086776.176501] [ohm:627529:0]        ib_iface.c:1059 UCX  ERROR ibv_create_cq(cqe=256) failed: Connection timed out
[1741086776.176811] [ohm:627612:0]        ib_iface.c:1059 UCX  ERROR ibv_create_cq(cqe=256) failed: Connection timed out
[1741086776.177735] [ohm:627570:0]        ib_iface.c:1059 UCX  ERROR ibv_create_cq(cqe=256) failed: Connection timed out
[1741086776.178339] [ohm:627604:0]        ib_iface.c:1059 UCX  ERROR ibv_create_cq(cqe=256) failed: Connection timed out
[1741086776.180914] [ohm:627515:0]        ib_iface.c:1059 UCX  ERROR ibv_create_cq(cqe=256) failed: Connection timed out
[1741086776.184606] [ohm:627620:0]        ib_iface.c:1059 UCX  ERROR ibv_create_cq(cqe=256) failed: Connection timed out
[1741086776.185578] [ohm:627566:0]        ib_iface.c:1059 UCX  ERROR ibv_create_cq(cqe=256) failed: Connection timed out
[1741086776.186408] [ohm:627545:0]        ib_iface.c:1059 UCX  ERROR ibv_create_cq(cqe=256) failed: Connection timed out
[1741086776.188562] [ohm:627579:0]        ib_iface.c:1059 UCX  ERROR ibv_create_cq(cqe=256) failed: Connection timed out
[1741086776.196227] [ohm:627587:0]        ib_iface.c:1059 UCX  ERROR ibv_create_cq(cqe=256) failed: Connection timed out
[1741086776.197290] [ohm:627501:0]        ib_iface.c:1059 UCX  ERROR ibv_create_cq(cqe=256) failed: Connection timed out
[1741086776.197429] [ohm:627504:0]        ib_iface.c:1059 UCX  ERROR ibv_create_cq(cqe=256) failed: Connection timed out
[1741086776.197689] [ohm:627554:0]        ib_iface.c:1059 UCX  ERROR ibv_create_cq(cqe=256) failed: Connection timed out
[1741086776.197848] [ohm:627575:0]        ib_iface.c:1059 UCX  ERROR ibv_create_cq(cqe=256) failed: Connection timed out
[1741086776.200261] [ohm:627611:0]        ib_iface.c:1059 UCX  ERROR ibv_create_cq(cqe=256) failed: Connection timed out
[1741086776.200618] [ohm:627512:0]        ib_iface.c:1059 UCX  ERROR ibv_create_cq(cqe=256) failed: Connection timed out
[1741086776.201151] [ohm:627618:0]        ib_iface.c:1059 UCX  ERROR ibv_create_cq(cqe=256) failed: Connection timed out
[1741086776.202446] [ohm:627526:0]        ib_iface.c:1059 UCX  ERROR ibv_create_cq(cqe=256) failed: Connection timed out


           ************************************************************
           *        Program running with 64 parallel MPI-processes    *
           *              working on a common directory               *
           ************************************************************
-------------------------------------------------------------------------------
                                 ORCA GUESS
                   Start orbitals & Density for SCF / CASSCF
-------------------------------------------------------------------------------

------------
SCF SETTINGS
------------
Hamiltonian:
 Density Functional     Method          .... DFT(GTOs)
  Functional kind                       .... Exchange-Correlation
  Functional name                       .... wB97M-V exchange-correlation functional
  Functional family                     .... Hybrid MGGA
  Functional refs                              
    [ 0] N. Mardirossian and M. Head-Gordon.,  J. Chem. Phys. 144, 214110 (2016), doi: 10.1063/1.4952647
  Fraction of HF Exchange (short range) .... 0.1500
  Fraction of HF Exchange (long range)  .... 1.0000
  Range separation parameter mu         .... 0.3000
  Functional external parameters        .... 17
    Parameter  0 _cx00      =  8.500000e-01 : u^00 coefficient for exchange
    Parameter  1 _cx01      =  1.007000e+00 : u^01 coefficient for exchange
    Parameter  2 _cx10      =  2.590000e-01 : u^10 coefficient for exchange
    Parameter  3 _css00     =  4.430000e-01 : u^00 coefficient for same-spin correlation
    Parameter  4 _css04     = -1.437000e+00 : u^04 coefficient for same-spin correlation
    Parameter  5 _css10     = -4.535000e+00 : u^10 coefficient for same-spin correlation
    Parameter  6 _css20     = -3.390000e+00 : u^20 coefficient for same-spin correlation
    Parameter  7 _css43     =  4.278000e+00 : u^43 coefficient for same-spin correlation
    Parameter  8 _cos00     =  1.000000e+00 : u^00 coefficient for opposite-spin correlation
    Parameter  9 _cos10     =  1.358000e+00 : u^10 coefficient for opposite-spin correlation
    Parameter 10 _cos20     =  2.924000e+00 : u^20 coefficient for opposite-spin correlation
    Parameter 11 _cos21     = -8.812000e+00 : u^21 coefficient for opposite-spin correlation
    Parameter 12 _cos60     = -1.390000e+00 : u^60 coefficient for opposite-spin correlation
    Parameter 13 _cos61     =  9.142000e+00 : u^61 coefficient for opposite-spin correlation
    Parameter 14 _alpha     =  1.000000e+00 : fraction of HF exchange
    Parameter 15 _beta      = -8.500000e-01 : fraction of short-range exchange
    Parameter 16 _omega     =  3.000000e-01 : range-separation constant
 Long-range corrected/Screened/Range-Separated Hybrid DFT is turned on
   Amount of maximum screened exact exchange              ....  0.850000
   Range separation parameter mu (erf(mu*r12)/r12)        ....  0.300000
 RI-approximation to the Coulomb term is turned on
   Number of AuxJ basis functions       .... 1014
   RIJ-COSX (HFX calculated with COS-X)).... on


General Settings:
 Integral files         IntName         .... orca
 Hartree-Fock type      HFTyp           .... UHF
 Total Charge           Charge          ....    0
 Multiplicity           Mult            ....    3
 Number of Electrons    NEL             ....  132
 Basis Dimension        Dim             ....  882
 Nuclear Repulsion      ENuc            ....   1450.9280249291 Eh

Convergence Acceleration:
 AO-DIIS                CNVDIIS         .... on
   Start iteration      DIISMaxIt       ....    12
   Startup error        DIISStart       ....  0.200000
   # of expansion vecs  DIISMaxEq       ....     5
   Bias factor          DIISBfac        ....   1.050
   Max. coefficient     DIISMaxC        ....  10.000
 MO-DIIS                CNVKDIIS        .... off
 Trust-Rad. Augm. Hess. CNVTRAH         .... auto
   Auto Start mean grad. ratio tolernc. ....  1.125000
   Auto Start start iteration           ....    50
   Auto Start num. interpolation iter.  ....    10
   Max. Number of Micro iterations      ....    24
   Max. Number of Macro iterations      .... Maxiter - #DIIS iter
   Number of Davidson start vectors     ....     2
   Converg. threshold    (grad. norm)   ....   1.000e-05
   Grad. Scal. Fac. for Micro threshold ....   0.100
   Minimum threshold for Micro iter.    ....   1.000e-02
   NR start threshold (gradient norm)   ....   1.000e-04
   Initial trust radius                 ....   0.400
   Minimum AH scaling param. (alpha)    ....   1.000
   Maximum AH scaling param. (alpha)    .... 1000.000
   Quad. conv. algorithm                .... NR
   White noise on init. David. guess    .... on
   Maximum white noise                  ....   0.010
   Pseudo random numbers                .... off
   Inactive MOs                         .... canonical
   Orbital update algorithm             .... Taylor
   Preconditioner                       .... Diag
   Full preconditioner red. dimension   ....   250
 SOSCF                  CNVSOSCF        .... on
   Start iteration      SOSCFMaxIt      ....   150
   Startup grad/error   SOSCFStart      ....  0.003300
   Hessian update       SOSCFHessUp     .... L-BFGS
 Level Shifting         CNVShift        .... on
   Level shift para.    LevelShift      ....    0.2500
   Turn off err/grad.   ShiftErr        ....    0.0010
 Zerner damping         CNVZerner       .... off
 Static damping         CNVDamp         .... on
   Fraction old density DampFac         ....    0.7000
   Max. Damping (<1)    DampMax         ....    0.9800
   Min. Damping (>=0)   DampMin         ....    0.0000
   Turn off err/grad.   DampErr         ....    0.1000

SCF Procedure:
 Maximum # iterations   MaxIter         ....   125
 SCF integral mode      SCFMode         .... Direct
   Integral package                     .... SHARK and LIBINT hybrid scheme
 Reset frequency        DirectResetFreq ....    20
 Integral Threshold     Thresh          ....  1.000e-12 Eh
 Primitive CutOff       TCut            ....  1.000e-13 Eh

Convergence Tolerance:
 Convergence Check Mode ConvCheckMode   .... Total+1el-Energy
 Convergence forced     ConvForced      .... 1
 Energy Change          TolE            ....  1.000e-08 Eh
 1-El. energy change                    ....  1.000e-05 Eh
 Orbital Gradient       TolG            ....  1.000e-05
 Orbital Rotation angle TolX            ....  1.000e-05
 DIIS Error             TolErr          ....  5.000e-07

------------------------------
INITIAL GUESS: MODEL POTENTIAL
------------------------------
Loading Hartree-Fock densities                     ... done
Calculating cut-offs                               ... done
Initializing the effective Hamiltonian             ... done
Setting up the integral package (SHARK)            ... done
Starting the Coulomb interaction                   ... done (   0.1 sec)
Making the grid                                    ... done (   0.3 sec)
Mapping shells                                     ... done
Starting the XC term evaluation                    ... done (   0.1 sec)
  promolecular density results
     # of electrons  =    131.993690149
     EX              =   -113.464724026
     EC              =     -4.482710697
     EX+EC           =   -117.947434723
Transforming the Hamiltonian                       ... done (   0.1 sec)
Diagonalizing the Hamiltonian                      ... done (   0.1 sec)
Back transforming the eigenvectors                 ... done (   0.1 sec)
Now organizing SCF variables                       ... done
                      ------------------
                      INITIAL GUESS DONE (   1.1 sec)
                      ------------------
             **** ENERGY FILE WAS UPDATED (orca.en.tmp) ****
Finished Guess after   3.6 sec
Maximum memory used throughout the entire GUESS-calculation: 72.8 MB
[1741086780.104216] [ohm:627844:0]        ib_iface.c:1059 UCX  ERROR ibv_create_cq(cqe=256) failed: Connection timed out
[1741086780.111038] [ohm:627834:0]        ib_iface.c:1059 UCX  ERROR ibv_create_cq(cqe=256) failed: Connection timed out
[1741086780.112154] [ohm:627829:0]        ib_iface.c:1059 UCX  ERROR ibv_create_cq(cqe=256) failed: Connection timed out
[1741086780.116688] [ohm:627830:0]        ib_iface.c:1059 UCX  ERROR ibv_create_cq(cqe=256) failed: Connection timed out
[1741086780.122216] [ohm:627831:0]        ib_iface.c:1059 UCX  ERROR ibv_create_cq(cqe=256) failed: Connection timed out
[1741086780.123025] [ohm:627843:0]        ib_iface.c:1059 UCX  ERROR ibv_create_cq(cqe=256) failed: Connection timed out
[1741086780.131155] [ohm:627839:0]        ib_iface.c:1059 UCX  ERROR ibv_create_cq(cqe=256) failed: Connection timed out
[1741086780.132264] [ohm:627865:0]        ib_iface.c:1059 UCX  ERROR ibv_create_cq(cqe=256) failed: Connection timed out
[1741086780.135625] [ohm:627835:0]        ib_iface.c:1059 UCX  ERROR ibv_create_cq(cqe=256) failed: Connection timed out
[1741086780.156976] [ohm:627855:0]        ib_iface.c:1059 UCX  ERROR ibv_create_cq(cqe=256) failed: Connection timed out
[1741086780.158160] [ohm:627857:0]        ib_iface.c:1059 UCX  ERROR ibv_create_cq(cqe=256) failed: Connection timed out
[1741086780.161911] [ohm:627859:0]        ib_iface.c:1059 UCX  ERROR ibv_create_cq(cqe=256) failed: Connection timed out
[1741086780.164501] [ohm:627850:0]        ib_iface.c:1059 UCX  ERROR ibv_create_cq(cqe=256) failed: Connection timed out
[1741086780.167688] [ohm:627841:0]        ib_iface.c:1059 UCX  ERROR ibv_create_cq(cqe=256) failed: Connection timed out
[1741086780.186997] [ohm:627890:0]        ib_iface.c:1059 UCX  ERROR ibv_create_cq(cqe=256) failed: Connection timed out
[1741086780.196081] [ohm:627877:0]        ib_iface.c:1059 UCX  ERROR ibv_create_cq(cqe=256) failed: Connection timed out
[1741086780.200168] [ohm:627842:0]        ib_iface.c:1059 UCX  ERROR ibv_create_cq(cqe=256) failed: Connection timed out
[1741086780.200234] [ohm:627912:0]        ib_iface.c:1059 UCX  ERROR ibv_create_cq(cqe=256) failed: Connection timed out
[1741086780.208135] [ohm:627833:0]        ib_iface.c:1059 UCX  ERROR ibv_create_cq(cqe=256) failed: Connection timed out
[1741086780.214381] [ohm:627849:0]        ib_iface.c:1059 UCX  ERROR ibv_create_cq(cqe=256) failed: Connection timed out
[1741086780.232093] [ohm:627847:0]        ib_iface.c:1059 UCX  ERROR ibv_create_cq(cqe=256) failed: Connection timed out
[1741086780.242241] [ohm:627940:0]        ib_iface.c:1059 UCX  ERROR ibv_create_cq(cqe=256) failed: Connection timed out
[1741086780.253659] [ohm:627853:0]        ib_iface.c:1059 UCX  ERROR ibv_create_cq(cqe=256) failed: Connection timed out
[1741086780.253870] [ohm:627897:0]        ib_iface.c:1059 UCX  ERROR ibv_create_cq(cqe=256) failed: Connection timed out
[1741086780.267518] [ohm:627885:0]        ib_iface.c:1059 UCX  ERROR ibv_create_cq(cqe=256) failed: Connection timed out
[1741086780.272185] [ohm:627917:0]        ib_iface.c:1059 UCX  ERROR ibv_create_cq(cqe=256) failed: Connection timed out
[1741086780.273764] [ohm:627846:0]        ib_iface.c:1059 UCX  ERROR ibv_create_cq(cqe=256) failed: Connection timed out
[1741086780.295469] [ohm:627923:0]        ib_iface.c:1059 UCX  ERROR ibv_create_cq(cqe=256) failed: Connection timed out
[1741086780.300963] [ohm:627881:0]        ib_iface.c:1059 UCX  ERROR ibv_create_cq(cqe=256) failed: Connection timed out
[1741086780.306611] [ohm:627921:0]        ib_iface.c:1059 UCX  ERROR ibv_create_cq(cqe=256) failed: Connection timed out
[1741086780.308031] [ohm:627840:0]        ib_iface.c:1059 UCX  ERROR ibv_create_cq(cqe=256) failed: Connection timed out
[1741086780.314686] [ohm:627961:0]        ib_iface.c:1059 UCX  ERROR ibv_create_cq(cqe=256) failed: Connection timed out
[1741086780.324944] [ohm:627932:0]        ib_iface.c:1059 UCX  ERROR ibv_create_cq(cqe=256) failed: Connection timed out
[1741086780.330486] [ohm:627969:0]        ib_iface.c:1059 UCX  ERROR ibv_create_cq(cqe=256) failed: Connection timed out
[1741086780.331319] [ohm:627905:0]        ib_iface.c:1059 UCX  ERROR ibv_create_cq(cqe=256) failed: Connection timed out
[1741086780.331988] [ohm:627900:0]        ib_iface.c:1059 UCX  ERROR ibv_create_cq(cqe=256) failed: Connection timed out
[1741086780.338253] [ohm:627914:0]        ib_iface.c:1059 UCX  ERROR ibv_create_cq(cqe=256) failed: Connection timed out
[1741086780.338937] [ohm:627945:0]        ib_iface.c:1059 UCX  ERROR ibv_create_cq(cqe=256) failed: Connection timed out
[1741086780.340205] [ohm:627926:0]        ib_iface.c:1059 UCX  ERROR ibv_create_cq(cqe=256) failed: Connection timed out
[1741086780.340428] [ohm:627943:0]        ib_iface.c:1059 UCX  ERROR ibv_create_cq(cqe=256) failed: Connection timed out
[1741086780.340754] [ohm:627851:0]        ib_iface.c:1059 UCX  ERROR ibv_create_cq(cqe=256) failed: Connection timed out
[1741086780.340796] [ohm:627975:0]        ib_iface.c:1059 UCX  ERROR ibv_create_cq(cqe=256) failed: Connection timed out
[1741086780.342647] [ohm:627938:0]        ib_iface.c:1059 UCX  ERROR ibv_create_cq(cqe=256) failed: Connection timed out
[1741086780.346165] [ohm:627950:0]        ib_iface.c:1059 UCX  ERROR ibv_create_cq(cqe=256) failed: Connection timed out
[1741086780.354017] [ohm:627837:0]        ib_iface.c:1059 UCX  ERROR ibv_create_cq(cqe=256) failed: Connection timed out
[1741086780.368573] [ohm:627934:0]        ib_iface.c:1059 UCX  ERROR ibv_create_cq(cqe=256) failed: Connection timed out
[1741086780.377470] [ohm:627980:0]        ib_iface.c:1059 UCX  ERROR ibv_create_cq(cqe=256) failed: Connection timed out
[1741086780.381252] [ohm:627867:0]        ib_iface.c:1059 UCX  ERROR ibv_create_cq(cqe=256) failed: Connection timed out
[1741086780.381253] [ohm:627880:0]        ib_iface.c:1059 UCX  ERROR ibv_create_cq(cqe=256) failed: Connection timed out
[1741086780.381248] [ohm:627952:0]        ib_iface.c:1059 UCX  ERROR ibv_create_cq(cqe=256) failed: Connection timed out
[1741086780.388203] [ohm:627909:0]        ib_iface.c:1059 UCX  ERROR ibv_create_cq(cqe=256) failed: Connection timed out
[1741086780.389690] [ohm:627959:0]        ib_iface.c:1059 UCX  ERROR ibv_create_cq(cqe=256) failed: Connection timed out
[1741086780.390041] [ohm:627854:0]        ib_iface.c:1059 UCX  ERROR ibv_create_cq(cqe=256) failed: Connection timed out
[1741086780.390356] [ohm:627848:0]        ib_iface.c:1059 UCX  ERROR ibv_create_cq(cqe=256) failed: Connection timed out
[1741086780.390801] [ohm:627954:0]        ib_iface.c:1059 UCX  ERROR ibv_create_cq(cqe=256) failed: Connection timed out
[1741086780.394309] [ohm:627874:0]        ib_iface.c:1059 UCX  ERROR ibv_create_cq(cqe=256) failed: Connection timed out
[1741086780.394871] [ohm:627845:0]        ib_iface.c:1059 UCX  ERROR ibv_create_cq(cqe=256) failed: Connection timed out
[1741086780.401110] [ohm:627852:0]        ib_iface.c:1059 UCX  ERROR ibv_create_cq(cqe=256) failed: Connection timed out
[1741086780.401535] [ohm:627836:0]        ib_iface.c:1059 UCX  ERROR ibv_create_cq(cqe=256) failed: Connection timed out
[1741086780.401537] [ohm:627856:0]        ib_iface.c:1059 UCX  ERROR ibv_create_cq(cqe=256) failed: Connection timed out
[1741086780.401825] [ohm:627862:0]        ib_iface.c:1059 UCX  ERROR ibv_create_cq(cqe=256) failed: Connection timed out
[1741086780.401832] [ohm:627832:0]        ib_iface.c:1059 UCX  ERROR ibv_create_cq(cqe=256) failed: Connection timed out
[1741086780.404931] [ohm:627886:0]        ib_iface.c:1059 UCX  ERROR ibv_create_cq(cqe=256) failed: Connection timed out
[1741086780.405589] [ohm:627838:0]        ib_iface.c:1059 UCX  ERROR ibv_create_cq(cqe=256) failed: Connection timed out


           ************************************************************
           *        Program running with 64 parallel MPI-processes    *
           *              working on a common directory               *
           ************************************************************

-------------------------------------------------------------------------------------------
                                      ORCA LEAN-SCF
                              memory conserving SCF solver
-------------------------------------------------------------------------------------------

----------------------------------------D-I-I-S--------------------------------------------
Iteration    Energy (Eh)           Delta-E    RMSDP     MaxDP     DIISErr   Damp  Time(sec)
-------------------------------------------------------------------------------------------
               ***  Starting incremental Fock matrix formation  ***
    1    -908.1069999622889100     0.00e+00  1.72e-03  2.71e-01  1.46e-01  0.700   7.8
    2    -908.3770284588310915    -2.70e-01  1.36e-03  1.92e-01  6.78e-02  0.700   6.7
                               ***Turning on AO-DIIS***
    3    -908.4947003977588338    -1.18e-01  9.77e-04  1.59e-01  2.68e-02  0.700   5.7
    4    -908.5673426231871872    -7.26e-02  2.27e-03  2.80e-01  1.71e-02  0.000   5.7
    5    -908.7309241545747227    -1.64e-01  3.11e-04  8.58e-02  3.90e-03  0.000   5.8
                              *** Initializing SOSCF ***
---------------------------------------S-O-S-C-F--------------------------------------
Iteration    Energy (Eh)           Delta-E    RMSDP     MaxDP     MaxGrad    Time(sec)
--------------------------------------------------------------------------------------
    6    -908.7323464064490963    -1.42e-03  1.38e-04  3.54e-02  2.63e-03     6.5
               *** Restarting incremental Fock matrix formation ***
    7    -908.7330203732178688    -6.74e-04  2.06e-04  3.21e-02  6.05e-03     7.5
    8    -908.7334729788974528    -4.53e-04  2.62e-04  6.59e-02  3.28e-03     6.6
    9    -908.7336292323486759    -1.56e-04  1.05e-04  1.31e-02  1.03e-03     6.8
   10    -908.7337180005804385    -8.88e-05  3.50e-05  8.81e-03  4.44e-04     6.6
   11    -908.7337284139068743    -1.04e-05  8.80e-06  1.54e-03  1.47e-04     6.4
   12    -908.7337303197393794    -1.91e-06  6.99e-06  1.34e-03  1.25e-04     6.2
   13    -908.7337312780452976    -9.58e-07  4.83e-06  9.86e-04  4.82e-05     6.2
   14    -908.7337314999233513    -2.22e-07  1.94e-06  3.99e-04  2.53e-05     6.1
   15    -908.7337315219322136    -2.20e-08  1.26e-06  2.62e-04  1.20e-05     5.9
   16    -908.7337315806646529    -5.87e-08  1.30e-06  3.41e-04  4.54e-06     5.7
   17    -908.7337316139144150    -3.32e-08  1.14e-06  2.96e-04  2.03e-06     5.6
                  *** Gradient check signals convergence ***

               *****************************************************
               *                     SUCCESS                       *
               *           SCF CONVERGED AFTER  17 CYCLES          *
               *****************************************************

Recomputing exchange energy using gridx3       ... done (    7.910 sec)
Old exchange energy                            :    -35.005283052 Eh
New exchange energy                            :    -35.005277574 Eh
Exchange energy change after final integration :      0.000005477 Eh
Total energy after final integration           :   -908.733726137 Eh
             **** ENERGY FILE WAS UPDATED (orca.en.tmp) ****

----------------
TOTAL SCF ENERGY
----------------

Total Energy       :       -908.73372613657466 Eh          -24727.90183 eV

Components:
Nuclear Repulsion  :       1450.92802492906617 Eh           39481.75877 eV
Electronic Energy  :      -2359.66175654298058 Eh          -64209.66075 eV
One Electron Energy:      -4119.41628307436895 Eh         -112095.01586 eV
Two Electron Energy:       1759.75452653138814 Eh           47885.35511 eV

Virial components:
Potential Energy   :      -1813.89445862801517 Eh          -49358.57756 eV
Kinetic Energy     :        905.16073249144051 Eh           24630.67573 eV
Virial Ratio       :          2.00394735820598

DFT components:
N(Alpha)           :       66.999940660031 electrons
N(Beta)            :       64.999954575810 electrons
N(Total)           :      131.999895235841 electrons
E(XC)              :      -86.144848488179 Eh       

---------------
SCF CONVERGENCE
---------------

  Last Energy change         ...    3.3250e-08  Tolerance :   1.0000e-08
  Last MAX-Density change    ...    2.9577e-04  Tolerance :   1.0000e-07
  Last RMS-Density change    ...    1.1391e-06  Tolerance :   5.0000e-09
  Last DIIS Error            ...    2.6255e-03  Tolerance :   5.0000e-07
  Last Orbital Gradient      ...    2.0346e-06  Tolerance :   1.0000e-05
  Last Orbital Rotation      ...    1.3842e-05  Tolerance :   1.0000e-05


----------------------
UHF SPIN CONTAMINATION
----------------------

Warning: in a DFT calculation there is little theoretical justification to 
         calculate <S**2> as in Hartree-Fock theory. We will do it anyways
         but you should keep in mind that the values have only limited relevance

Expectation value of <S**2>     :     2.012035
Ideal value S*(S+1) for S=1.0   :     2.000000
Deviation                       :     0.012035

----------------
ORBITAL ENERGIES
----------------
                 SPIN UP ORBITALS
  NO   OCC          E(Eh)            E(eV) 
   0   1.0000     -19.333848      -526.1007 
   1   1.0000     -19.329960      -525.9949 
   2   1.0000     -19.327546      -525.9293 
   3   1.0000     -19.322256      -525.7853 
   4   1.0000     -14.573030      -396.5523 
   5   1.0000     -14.561906      -396.2496 
   6   1.0000     -14.559416      -396.1819 
   7   1.0000     -14.557139      -396.1199 
   8   1.0000     -10.510533      -286.0061 
   9   1.0000     -10.509891      -285.9887 
  10   1.0000     -10.485820      -285.3337 
  11   1.0000     -10.482420      -285.2412 
  12   1.0000     -10.449691      -284.3506 
  13   1.0000     -10.444950      -284.2215 
  14   1.0000     -10.418357      -283.4979 
  15   1.0000     -10.414166      -283.3839 
  16   1.0000     -10.375039      -282.3192 
  17   1.0000     -10.372218      -282.2424 
  18   1.0000      -1.219184       -33.1757 
  19   1.0000      -1.212077       -32.9823 
  20   1.0000      -1.188777       -32.3483 
  21   1.0000      -1.187082       -32.3022 
  22   1.0000      -1.125340       -30.6221 
  23   1.0000      -1.097813       -29.8730 
  24   1.0000      -1.051458       -28.6116 
  25   1.0000      -1.040306       -28.3082 
  26   1.0000      -0.979098       -26.6426 
  27   1.0000      -0.946112       -25.7450 
  28   1.0000      -0.886795       -24.1309 
  29   1.0000      -0.840049       -22.8589 
  30   1.0000      -0.812666       -22.1138 
  31   1.0000      -0.796853       -21.6835 
  32   1.0000      -0.777053       -21.1447 
  33   1.0000      -0.766407       -20.8550 
  34   1.0000      -0.700406       -19.0590 
  35   1.0000      -0.684279       -18.6202 
  36   1.0000      -0.680176       -18.5085 
  37   1.0000      -0.666653       -18.1405 
  38   1.0000      -0.652272       -17.7492 
  39   1.0000      -0.641315       -17.4511 
  40   1.0000      -0.626850       -17.0574 
  41   1.0000      -0.595160       -16.1951 
  42   1.0000      -0.588985       -16.0271 
  43   1.0000      -0.579102       -15.7582 
  44   1.0000      -0.574854       -15.6426 
  45   1.0000      -0.569691       -15.5021 
  46   1.0000      -0.562329       -15.3018 
  47   1.0000      -0.559392       -15.2218 
  48   1.0000      -0.556009       -15.1298 
  49   1.0000      -0.553657       -15.0658 
  50   1.0000      -0.542927       -14.7738 
  51   1.0000      -0.541516       -14.7354 
  52   1.0000      -0.527203       -14.3459 
  53   1.0000      -0.514140       -13.9904 
  54   1.0000      -0.511553       -13.9201 
  55   1.0000      -0.503570       -13.7028 
  56   1.0000      -0.490361       -13.3434 
  57   1.0000      -0.421452       -11.4683 
  58   1.0000      -0.416690       -11.3387 
  59   1.0000      -0.408738       -11.1223 
  60   1.0000      -0.402606       -10.9555 
  61   1.0000      -0.396200       -10.7811 
  62   1.0000      -0.392960       -10.6930 
  63   1.0000      -0.389007       -10.5854 
  64   1.0000      -0.382545       -10.4096 
  65   1.0000      -0.327181        -8.9030 
  66   1.0000      -0.322491        -8.7754 
  67   0.0000       0.003651         0.0993 
  68   0.0000       0.029804         0.8110 
  69   0.0000       0.031619         0.8604 
  70   0.0000       0.037384         1.0173 
  71   0.0000       0.055096         1.4992 
  72   0.0000       0.057326         1.5599 
  73   0.0000       0.058753         1.5988 
  74   0.0000       0.062473         1.7000 
  75   0.0000       0.065684         1.7873 
  76   0.0000       0.069203         1.8831 
  77   0.0000       0.077010         2.0955 

                 SPIN DOWN ORBITALS
  NO   OCC          E(Eh)            E(eV) 
   0   1.0000     -19.330568      -526.0115 
   1   1.0000     -19.327424      -525.9259 
   2   1.0000     -19.326160      -525.8916 
   3   1.0000     -19.322141      -525.7822 
   4   1.0000     -14.572708      -396.5435 
   5   1.0000     -14.561392      -396.2356 
   6   1.0000     -14.558838      -396.1661 
   7   1.0000     -14.556860      -396.1123 
   8   1.0000     -10.510561      -286.0069 
   9   1.0000     -10.509918      -285.9894 
  10   1.0000     -10.486688      -285.3573 
  11   1.0000     -10.483466      -285.2696 
  12   1.0000     -10.448995      -284.3316 
  13   1.0000     -10.444267      -284.2030 
  14   1.0000     -10.406785      -283.1830 
  15   1.0000     -10.402429      -283.0645 
  16   1.0000     -10.375493      -282.3315 
  17   1.0000     -10.372677      -282.2549 
  18   1.0000      -1.218516       -33.1575 
  19   1.0000      -1.211325       -32.9618 
  20   1.0000      -1.184094       -32.2208 
  21   1.0000      -1.181799       -32.1584 
  22   1.0000      -1.123202       -30.5639 
  23   1.0000      -1.095826       -29.8189 
  24   1.0000      -1.049723       -28.5644 
  25   1.0000      -1.038746       -28.2657 
  26   1.0000      -0.964557       -26.2469 
  27   1.0000      -0.929648       -25.2970 
  28   1.0000      -0.881510       -23.9871 
  29   1.0000      -0.836145       -22.7527 
  30   1.0000      -0.803159       -21.8551 
  31   1.0000      -0.790334       -21.5061 
  32   1.0000      -0.775348       -21.0983 
  33   1.0000      -0.764180       -20.7944 
  34   1.0000      -0.695115       -18.9150 
  35   1.0000      -0.678366       -18.4593 
  36   1.0000      -0.673092       -18.3158 
  37   1.0000      -0.660683       -17.9781 
  38   1.0000      -0.645922       -17.5764 
  39   1.0000      -0.635151       -17.2833 
  40   1.0000      -0.618704       -16.8358 
  41   1.0000      -0.590895       -16.0791 
  42   1.0000      -0.583707       -15.8835 
  43   1.0000      -0.569630       -15.5004 
  44   1.0000      -0.567035       -15.4298 
  45   1.0000      -0.564898       -15.3717 
  46   1.0000      -0.557225       -15.1629 
  47   1.0000      -0.552497       -15.0342 
  48   1.0000      -0.547873       -14.9084 
  49   1.0000      -0.546941       -14.8830 
  50   1.0000      -0.538884       -14.6638 
  51   1.0000      -0.534705       -14.5501 
  52   1.0000      -0.517439       -14.0802 
  53   1.0000      -0.505158       -13.7461 
  54   1.0000      -0.502699       -13.6791 
  55   1.0000      -0.498754       -13.5718 
  56   1.0000      -0.486252       -13.2316 
  57   1.0000      -0.418279       -11.3819 
  58   1.0000      -0.414268       -11.2728 
  59   1.0000      -0.404484       -11.0066 
  60   1.0000      -0.391184       -10.6446 
  61   1.0000      -0.385650       -10.4941 
  62   1.0000      -0.383863       -10.4454 
  63   1.0000      -0.381873       -10.3913 
  64   1.0000      -0.371263       -10.1026 
  65   0.0000      -0.054607        -1.4859 
  66   0.0000      -0.039709        -1.0805 
  67   0.0000       0.003211         0.0874 
  68   0.0000       0.029794         0.8107 
  69   0.0000       0.031501         0.8572 
  70   0.0000       0.037595         1.0230 
  71   0.0000       0.056708         1.5431 
  72   0.0000       0.058734         1.5982 
  73   0.0000       0.060659         1.6506 
  74   0.0000       0.062344         1.6965 
  75   0.0000       0.066571         1.8115 
*Only the first 10 virtual orbitals were printed.

                    ********************************
                    * MULLIKEN POPULATION ANALYSIS *
                    ********************************

--------------------------------------------
MULLIKEN ATOMIC CHARGES AND SPIN POPULATIONS
--------------------------------------------
   0 O :   -0.669292    0.136923
   1 O :   -0.660438    0.125145
   2 O :   -0.590667    0.004845
   3 O :   -0.640777    0.004194
   4 N :   -0.312141    0.021850
   5 N :   -0.261517    0.023553
   6 N :   -0.053363    0.026093
   7 N :    0.032475    0.023526
   8 C :    0.069437    0.500822
   9 C :    0.020362    0.563890
  10 C :    0.259595    0.188858
  11 C :    0.589083    0.078029
  12 C :   -1.669563   -0.014633
  13 C :   -1.436192    0.012103
  14 C :    0.698147    0.097533
  15 C :    0.498340    0.104620
  16 C :    0.407554   -0.004582
  17 C :    0.257000   -0.004250
  18 H :    0.504689    0.008050
  19 H :    0.537138    0.010486
  20 H :    0.448362    0.027059
  21 H :    0.321218    0.011400
  22 H :    0.321745    0.004472
  23 H :    0.412407    0.029187
  24 H :    0.290659    0.005272
  25 H :    0.288502    0.017660
  26 H :    0.081489   -0.001047
  27 H :    0.113894    0.000592
  28 H :    0.065719    0.000135
  29 H :    0.076138   -0.001783
Sum of atomic charges         :   -0.0000000
Sum of atomic spin populations:    2.0000000

-----------------------------------------------------
MULLIKEN REDUCED ORBITAL CHARGES AND SPIN POPULATIONS
-----------------------------------------------------
CHARGE
  0 O s       :     4.089629  s :     4.089629
      pz      :     1.632014  p :     4.546996
      px      :     1.343616
      py      :     1.571366
      dz2     :     0.004761  d :     0.030825
      dxz     :     0.003784
      dyz     :     0.005131
      dx2y2   :     0.011276
      dxy     :     0.005873
      f0      :     0.000155  f :     0.001842
      f+1     :     0.000266
      f-1     :     0.000172
      f+2     :     0.000209
      f-2     :     0.000357
      f+3     :     0.000365
      f-3     :     0.000320

  1 O s       :     4.092089  s :     4.092089
[...]
[1741087058.880847] [ohm:630014:0]        ib_iface.c:1059 UCX  ERROR ibv_create_cq(cqe=256) failed: Connection timed out
[1741087058.882010] [ohm:630078:0]        ib_iface.c:1059 UCX  ERROR ibv_create_cq(cqe=256) failed: Connection timed out
[1741087058.883931] [ohm:630084:0]        ib_iface.c:1059 UCX  ERROR ibv_create_cq(cqe=256) failed: Connection timed out
[1741087058.884198] [ohm:630069:0]        ib_iface.c:1059 UCX  ERROR ibv_create_cq(cqe=256) failed: Connection timed out
[1741087058.887399] [ohm:630101:0]        ib_iface.c:1059 UCX  ERROR ibv_create_cq(cqe=256) failed: Connection timed out
[1741087058.887870] [ohm:630100:0]        ib_iface.c:1059 UCX  ERROR ibv_create_cq(cqe=256) failed: Connection timed out
[1741087058.887955] [ohm:630055:0]        ib_iface.c:1059 UCX  ERROR ibv_create_cq(cqe=256) failed: Connection timed out
[1741087058.888401] [ohm:630016:0]        ib_iface.c:1059 UCX  ERROR ibv_create_cq(cqe=256) failed: Connection timed out
[1741087058.888672] [ohm:630080:0]        ib_iface.c:1059 UCX  ERROR ibv_create_cq(cqe=256) failed: Connection timed out
[1741087058.890812] [ohm:630091:0]        ib_iface.c:1059 UCX  ERROR ibv_create_cq(cqe=256) failed: Connection timed out
[1741087058.907672] [ohm:630033:0]        ib_iface.c:1059 UCX  ERROR ibv_create_cq(cqe=256) failed: Connection timed out


           ************************************************************
           *        Program running with 64 parallel MPI-processes    *
           *              working on a common directory               *
           ************************************************************

------------------------------------------------------------------------------
                              ORCA PROPERTY CALCULATIONS
------------------------------------------------------------------------------

GBWName                                 ... orca.gbw
Number of atoms                         ...     30
Number of basis functions               ...    882
Max core memory                         ...   1024 MB

Electric properties:
Dipole moment                           ... YES
Quadrupole moment                       ...  NO
Static polarizability (Dipole/Dipole)   ...  NO
Static polarizability (Dipole/Quad.)    ...  NO
Static polarizability (Quad./Quad.)     ...  NO
Static polarizability (Velocity)        ...  NO

Atomic electric properties:
Dipole moment                           ...  NO
Quadrupole moment                       ...  NO
Static polarizability                   ...  NO

Choice of electric origin               ... Center of mass
Position of electric origin             ...    -0.015317    -0.078697    -0.035909

General magnetic properties:
Magnetizability                         ...  NO

EPR properties:
g-Tensor (aka g-matrix)                 ...  NO
Zero-Field splitting spin-orbit         ...  NO
Zero-field splitting spin-spin          ...  NO
Hyperfine couplings                     ...  NO (   0 nuclei)
Quadrupole couplings                    ...  NO (   0 nuclei)
Contact density                         ...  NO (   0 nuclei)

NMR properties:
Chemical shifts                         ...  NO (   0 nuclei)
Spin-rotation constants                 ...  NO (   0 nuclei)
Spin-spin couplings                     ...  NO (   0 nuclei,    0 pairs)

Choice of magnetic origin               ... GIAO
Position of magnetic origin             ...     0.000000     0.000000     0.000000

Properties with geometric perturbations:
SCF Hessian                             ...  NO
IR spectrum                             ...  NO
VCD spectrum                            ...  NO
X-ray spectroscopy properties:
SCF XES/XAS/RIXS spectra                ...  NO


-------------
DIPOLE MOMENT
-------------

Method             : SCF
Type of density    : Electron Density
Multiplicity       :   3
Irrep              :   0
Energy             :  -908.7337261365746599 Eh
Relativity type    : 
Basis              : AO
                                X                 Y                 Z
Electronic contribution:     -3.080560670     -10.064573184      -6.946433115
Nuclear contribution   :      2.351788306      11.710128826       9.449907131
                        -----------------------------------------
Total Dipole Moment    :     -0.728772364       1.645555641       2.503474015
                        -----------------------------------------
Magnitude (a.u.)       :      3.083236072
Magnitude (Debye)      :      7.836963280



--------------------
Rotational spectrum 
--------------------
 
Rotational constants in cm-1:             0.019299             0.015096             0.012608 
Rotational constants in MHz :           578.565899           452.566298           377.981175 

Dipole components along the rotational axes: 
x,y,z [a.u.] :     0.366828    -1.633367     2.589188 
x,y,z [Debye]:     0.932402    -4.151689     6.581193 

 

-------------
DIPOLE MOMENT
-------------

Method             : TDA/CIS
Type of density    : Electron Density
Level              : Relaxed density
State              :   1
Multiplicity       :   3
Irrep              :   0
Energy             :     0.0000000000000000 Eh
Relativity type    : 
Basis              : AO
                                X                 Y                 Z
Electronic contribution:     -3.007938279     -10.033637366      -6.845654515
Nuclear contribution   :      2.351788306      11.710128826       9.449907131
                        -----------------------------------------
Total Dipole Moment    :     -0.656149973       1.676491460       2.604252615
                        -----------------------------------------
Magnitude (a.u.)       :      3.165957688
Magnitude (Debye)      :      8.047224920



--------------------
Rotational spectrum 
--------------------
 
Rotational constants in cm-1:             0.019299             0.015096             0.012608 
Rotational constants in MHz :           578.565899           452.566298           377.981175 

Dipole components along the rotational axes: 
x,y,z [a.u.] :     0.459316    -1.626011     2.677387 
x,y,z [Debye]:     1.167490    -4.132993     6.805378 

 

Dipole moment calculation done in   0.2 sec 

Maximum memory used throughout the entire PROP-calculation: 81.9 MB
[1741087061.434945] [ohm:630321:0]        ib_iface.c:1059 UCX  ERROR ibv_create_cq(cqe=256) failed: Connection timed out
[1741087061.443061] [ohm:630315:0]        ib_iface.c:1059 UCX  ERROR ibv_create_cq(cqe=256) failed: Connection timed out
[1741087061.452662] [ohm:630311:0]        ib_iface.c:1059 UCX  ERROR ibv_create_cq(cqe=256) failed: Connection timed out
[1741087061.469275] [ohm:630318:0]        ib_iface.c:1059 UCX  ERROR ibv_create_cq(cqe=256) failed: Connection timed out
[1741087061.488140] [ohm:630326:0]        ib_iface.c:1059 UCX  ERROR ibv_create_cq(cqe=256) failed: Connection timed out
[1741087061.493897] [ohm:630312:0]        ib_iface.c:1059 UCX  ERROR ibv_create_cq(cqe=256) failed: Connection timed out
[1741087061.503017] [ohm:630319:0]        ib_iface.c:1059 UCX  ERROR ibv_create_cq(cqe=256) failed: Connection timed out
[1741087061.503505] [ohm:630327:0]        ib_iface.c:1059 UCX  ERROR ibv_create_cq(cqe=256) failed: Connection timed out
[1741087061.506475] [ohm:630316:0]        ib_iface.c:1059 UCX  ERROR ibv_create_cq(cqe=256) failed: Connection timed out
[1741087061.535246] [ohm:630320:0]        ib_iface.c:1059 UCX  ERROR ibv_create_cq(cqe=256) failed: Connection timed out
[1741087061.540130] [ohm:630335:0]        ib_iface.c:1059 UCX  ERROR ibv_create_cq(cqe=256) failed: Connection timed out
[1741087061.546774] [ohm:630338:0]        ib_iface.c:1059 UCX  ERROR ibv_create_cq(cqe=256) failed: Connection timed out
[1741087061.550892] [ohm:630333:0]        ib_iface.c:1059 UCX  ERROR ibv_create_cq(cqe=256) failed: Connection timed out
[1741087061.573335] [ohm:630314:0]        ib_iface.c:1059 UCX  ERROR ibv_create_cq(cqe=256) failed: Connection timed out
[1741087061.573951] [ohm:630342:0]        ib_iface.c:1059 UCX  ERROR ibv_create_cq(cqe=256) failed: Connection timed out
[1741087061.598455] [ohm:630323:0]        ib_iface.c:1059 UCX  ERROR ibv_create_cq(cqe=256) failed: Connection timed out
[1741087061.605728] [ohm:630334:0]        ib_iface.c:1059 UCX  ERROR ibv_create_cq(cqe=256) failed: Connection timed out
[1741087061.628938] [ohm:630325:0]        ib_iface.c:1059 UCX  ERROR ibv_create_cq(cqe=256) failed: Connection timed out
[1741087061.633344] [ohm:630322:0]        ib_iface.c:1059 UCX  ERROR ibv_create_cq(cqe=256) failed: Connection timed out
[1741087061.649284] [ohm:630336:0]        ib_iface.c:1059 UCX  ERROR ibv_create_cq(cqe=256) failed: Connection timed out
[1741087061.650442] [ohm:630337:0]        ib_iface.c:1059 UCX  ERROR ibv_create_cq(cqe=256) failed: Connection timed out
[1741087061.654713] [ohm:630331:0]        ib_iface.c:1059 UCX  ERROR ibv_create_cq(cqe=256) failed: Connection timed out
[1741087061.664911] [ohm:630463:0]        ib_iface.c:1059 UCX  ERROR ibv_create_cq(cqe=256) failed: Connection timed out
[1741087061.667144] [ohm:630329:0]        ib_iface.c:1059 UCX  ERROR ibv_create_cq(cqe=256) failed: Connection timed out
[1741087061.668686] [ohm:630349:0]        ib_iface.c:1059 UCX  ERROR ibv_create_cq(cqe=256) failed: Connection timed out
[1741087061.677233] [ohm:630376:0]        ib_iface.c:1059 UCX  ERROR ibv_create_cq(cqe=256) failed: Connection timed out
[1741087061.688497] [ohm:630394:0]        ib_iface.c:1059 UCX  ERROR ibv_create_cq(cqe=256) failed: Connection timed out
[1741087061.689212] [ohm:630362:0]        ib_iface.c:1059 UCX  ERROR ibv_create_cq(cqe=256) failed: Connection timed out
[1741087061.693593] [ohm:630393:0]        ib_iface.c:1059 UCX  ERROR ibv_create_cq(cqe=256) failed: Connection timed out
[1741087061.696442] [ohm:630417:0]        ib_iface.c:1059 UCX  ERROR ibv_create_cq(cqe=256) failed: Connection timed out
[1741087061.702009] [ohm:630332:0]        ib_iface.c:1059 UCX  ERROR ibv_create_cq(cqe=256) failed: Connection timed out
[1741087061.710967] [ohm:630421:0]        ib_iface.c:1059 UCX  ERROR ibv_create_cq(cqe=256) failed: Connection timed out
[1741087061.725292] [ohm:630324:0]        ib_iface.c:1059 UCX  ERROR ibv_create_cq(cqe=256) failed: Connection timed out
[1741087061.725350] [ohm:630369:0]        ib_iface.c:1059 UCX  ERROR ibv_create_cq(cqe=256) failed: Connection timed out
[1741087061.728023] [ohm:630382:0]        ib_iface.c:1059 UCX  ERROR ibv_create_cq(cqe=256) failed: Connection timed out
[1741087061.729038] [ohm:630361:0]        ib_iface.c:1059 UCX  ERROR ibv_create_cq(cqe=256) failed: Connection timed out
[1741087061.732351] [ohm:630313:0]        ib_iface.c:1059 UCX  ERROR ibv_create_cq(cqe=256) failed: Connection timed out
[1741087061.733017] [ohm:630328:0]        ib_iface.c:1059 UCX  ERROR ibv_create_cq(cqe=256) failed: Connection timed out
[1741087061.733393] [ohm:630365:0]        ib_iface.c:1059 UCX  ERROR ibv_create_cq(cqe=256) failed: Connection timed out
[1741087061.740150] [ohm:630359:0]        ib_iface.c:1059 UCX  ERROR ibv_create_cq(cqe=256) failed: Connection timed out
[1741087061.740636] [ohm:630429:0]        ib_iface.c:1059 UCX  ERROR ibv_create_cq(cqe=256) failed: Connection timed out
[1741087061.742249] [ohm:630399:0]        ib_iface.c:1059 UCX  ERROR ibv_create_cq(cqe=256) failed: Connection timed out
[1741087061.751478] [ohm:630435:0]        ib_iface.c:1059 UCX  ERROR ibv_create_cq(cqe=256) failed: Connection timed out
[1741087061.756138] [ohm:630423:0]        ib_iface.c:1059 UCX  ERROR ibv_create_cq(cqe=256) failed: Connection timed out
[1741087061.756226] [ohm:630385:0]        ib_iface.c:1059 UCX  ERROR ibv_create_cq(cqe=256) failed: Connection timed out
[1741087061.759668] [ohm:630407:0]        ib_iface.c:1059 UCX  ERROR ibv_create_cq(cqe=256) failed: Connection timed out
[1741087061.760187] [ohm:630317:0]        ib_iface.c:1059 UCX  ERROR ibv_create_cq(cqe=256) failed: Connection timed out
[1741087061.760682] [ohm:630434:0]        ib_iface.c:1059 UCX  ERROR ibv_create_cq(cqe=256) failed: Connection timed out
[1741087061.766731] [ohm:630368:0]        ib_iface.c:1059 UCX  ERROR ibv_create_cq(cqe=256) failed: Connection timed out
[1741087061.769062] [ohm:630355:0]        ib_iface.c:1059 UCX  ERROR ibv_create_cq(cqe=256) failed: Connection timed out
[1741087061.776847] [ohm:630330:0]        ib_iface.c:1059 UCX  ERROR ibv_create_cq(cqe=256) failed: Connection timed out
[1741087061.777347] [ohm:630372:0]        ib_iface.c:1059 UCX  ERROR ibv_create_cq(cqe=256) failed: Connection timed out
[1741087061.779745] [ohm:630409:0]        ib_iface.c:1059 UCX  ERROR ibv_create_cq(cqe=256) failed: Connection timed out
[1741087061.781547] [ohm:630401:0]        ib_iface.c:1059 UCX  ERROR ibv_create_cq(cqe=256) failed: Connection timed out
[1741087061.781722] [ohm:630430:0]        ib_iface.c:1059 UCX  ERROR ibv_create_cq(cqe=256) failed: Connection timed out
[1741087061.782135] [ohm:630388:0]        ib_iface.c:1059 UCX  ERROR ibv_create_cq(cqe=256) failed: Connection timed out
[1741087061.786270] [ohm:630404:0]        ib_iface.c:1059 UCX  ERROR ibv_create_cq(cqe=256) failed: Connection timed out
[1741087061.787797] [ohm:630441:0]        ib_iface.c:1059 UCX  ERROR ibv_create_cq(cqe=256) failed: Connection timed out
[1741087061.787891] [ohm:630346:0]        ib_iface.c:1059 UCX  ERROR ibv_create_cq(cqe=256) failed: Connection timed out
[1741087061.788320] [ohm:630412:0]        ib_iface.c:1059 UCX  ERROR ibv_create_cq(cqe=256) failed: Connection timed out
[1741087061.788953] [ohm:630340:0]        ib_iface.c:1059 UCX  ERROR ibv_create_cq(cqe=256) failed: Connection timed out
[1741087061.790445] [ohm:630448:0]        ib_iface.c:1059 UCX  ERROR ibv_create_cq(cqe=256) failed: Connection timed out
[1741087061.791099] [ohm:630457:0]        ib_iface.c:1059 UCX  ERROR ibv_create_cq(cqe=256) failed: Connection timed out
[1741087061.791727] [ohm:630440:0]        ib_iface.c:1059 UCX  ERROR ibv_create_cq(cqe=256) failed: Connection timed out

--------------------------------
SUGGESTED CITATIONS FOR THIS RUN
--------------------------------

Below you find a list of papers that are relevant to this ORCA run
We neither can nor want to force you to cite these papers, but we appreciate if you do
You receive ORCA, which is the product of decades of hard work by many enthusiastic individuals, for free
The only thing we kindly ask in return is that you cite our papers,
We deeply appreciate it, if you show your appreciation for ORCA by not just citing the generic ORCA reference.

Please note that relegating all ORCA citations to the supporting information does *not* help us.
SI sections are not indexed - citations you put there will not count into any citation statistics
But we need these citations in order to attract the funding resources that allow us to do what we are doing

Therefore, if you are a happy ORCA user, please consider citing a few of the papers listed below in the main body of your paper

In addition to the list printed below, the program has created the file orca.bibtex that contains the list in bibtex format
You can import this file easily into all common literature databanks and citation aid programs


List of essential papers. We consider these as the minimum necessary citations

  1. Neese,F.
     Software update: the ORCA program system, version 5.0
     WIRES Comput. Molec. Sci., 2022 12(1)e1606
     doi.org/10.1002/wcms.1606

List of papers to cite with high priority. The work reported in these papers was absolutely
necessary for this run to complete.
Our perspective: the developers of density functionals and basis sets usually get cited in chemistry papers
Good! But without the algorithms to do something with them, the functionals or basis sets would not do anything.
Hence, in our opinion, the algorithm design and method developments papers are equally worthy of getting cited

  1. Neese,F.; Olbrich,G.
     Efficient use of the resolution of the identity approximation in time-dependent density functional calculations with hybrid density functionals
     Chem. Phys. Lett., 2002 362 170-178
     doi.org/10.1016/s0009-2614(02)01053-9
  2. Neese,F.
     An improvement of the resolution of the identity approximation for the formation of the Coulomb matrix
     J. Comp. Chem., 2003 24(14)1740-1747
     doi.org/10.1002/jcc.10318
  3. Neese,F.; Wennmohs,F.; Hansen,A.; Becker,U.
     Efficient, approximate and parallel Hartree-Fock and hybrid DFT calculations. A 'chain-of-spheres' algorithm for the Hartree-Fock exchange
     Chem. Phys., 2009 356(1-3)98-109
     doi.org/10.1016/j.chemphys.2008.10.036
  4. Petrenko,T.; Kossmann,S.; Neese,F.
     Efficient time-dependent density functional theory approximations for hybrid density functionals: Analytical gradients and parallelization
     J. Chem. Phys., 2011 134 054116
     doi.org/10.1063/1.3533441
  5. Helmich-Paris,B.; de Souza,B.; Neese,F.; Izsák,R.
     An improved chain of spheres for exchange algorithm
     J. Chem. Phys., 2021 155 104109
     doi.org/doi: 10.1063/5.0058766.
  6. Neese,F.
     The SHARK Integral Generation and Digestion System
     J. Comp. Chem., 2022  1-16
     doi.org/10.1002/jcc.26942
  7. Lehtola,S.; Steigemann,C.; Oliveira,M.; Marques,M.
     Recent developments in Libxc - A comprehensive library of functionals for density functional theory
     Software X, 2018 7 
     doi.org/10.1016/j.softx.2017.11.002
  8. Grimme,S.; Antony,J.; Ehrlich,S.; Krieg,H.
     A consistent and accurate ab initio parametrization of density functional dispersion correction (DFT-D) for the 94 elements H-Pu
     J. Chem. Phys., 2010 132 154104-XXXX
     doi.org/10.1063/1.3382344
  9. Grimme,S.; Ehrlich,S.; Goerigk,L.
     Effect of the damping function in dispersion corrected density functional theory
     J. Comput. Chem., 2011 32(7)1456-1465
     doi.org/10.1002/jcc.21759

List of suggested additional citations. These are papers that are important in the 'surrounding' of 
of this run, or papers that preceded the highly important papers. If you like your results we are grateful for a citation.

  1. Izsak,R.; Neese,F.
     An overlap fitted chain of spheres exchange method
     J. Chem. Phys., 2011 135 144105
     doi.org/10.1063/1.3646921
  2. Izsak,R.; Hansen,A.; Neese,F.
     The resolution of identity and chain of spheres approximations for the LPNO-CCSD singles Fock term
     Molec. Phys., 2012 110 2413-2417
     doi.org/10.1080/00268976.2012.687466
  3. Neese,F.
     The ORCA program system
     WIRES Comput. Molec. Sci., 2012 2(1)73-78
     doi.org/10.1002/wcms.81
  4. Izsak,R.; Neese,F.; Klopper,W.
     Robust fitting techniques in the chain of spheres approximation to the Fock exchange: The role of the complementary space
     J. Chem. Phys., 2013 139 
     doi.org/10.1063/1.4819264
  5. Neese,F.
     Software update: the ORCA program system, version 4.0
     WIRES Comput. Molec. Sci., 2018 8(1)1-6
     doi.org/10.1002/wcms.1327
  6. Neese,F.; Wennmohs,F.; Becker,U.; Riplinger,C.
     The ORCA quantum chemistry program package
     J. Chem. Phys., 2020 152 Art. No. L224108
     doi.org/10.1063/5.0004608

List of optional additional citations

  1. Neese,F.
     Approximate second-order SCF convergence for spin unrestricted wavefunctions
     Chem. Phys. Lett., 2000 325(1-3)93-98
     doi.org/10.1016/s0009-2614(00)00662-x

Timings for individual modules:

Sum of individual times          ...      292.080 sec (=   4.868 min)
Startup calculation              ...        6.551 sec (=   0.109 min)   2.2 %
SCF iterations                   ...      125.531 sec (=   2.092 min)  43.0 %
Property integrals               ...        4.286 sec (=   0.071 min)   1.5 %
Property calculations            ...        2.909 sec (=   0.048 min)   1.0 %
CIS module                       ...      152.803 sec (=   2.547 min)  52.3 %
                             ****ORCA TERMINATED NORMALLY****
TOTAL RUN TIME: 0 days 0 hours 4 minutes 54 seconds 217 msec
