
                                 *****************
                                 * O   R   C   A *
                                 *****************

                                            #,                                       
                                            ###                                      
                                            ####                                     
                                            #####                                    
                                            ######                                   
                                           ########,                                 
                                     ,,################,,,,,                         
                               ,,#################################,,                 
                          ,,##########################################,,             
                       ,#########################################, ''#####,          
                    ,#############################################,,   '####,        
                  ,##################################################,,,,####,       
                ,###########''''           ''''###############################       
              ,#####''   ,,,,##########,,,,          '''####'''          '####       
            ,##' ,,,,###########################,,,                        '##       
           ' ,,###''''                  '''############,,,                           
         ,,##''                                '''############,,,,        ,,,,,,###''
      ,#''                                            '''#######################'''  
     '                                                          ''''####''''         
             ,#######,   #######,   ,#######,      ##                                
            ,#'     '#,  ##    ##  ,#'     '#,    #''#        ,####,   ,####,        
            ##       ##  ##   ,#'  ##            #'  '#       #'       #'  '#        
            ##       ##  #######   ##           ,######,      #####,   #    #        
            '#,     ,#'  ##    ##  '#,     ,#' ,#      #,     #,   #   #,  ,#        
             '#######'   ##     ##  '#######'  #'      '#     '####' # '####'        



                #########################################################
                #                        -***-                          #
                #          Department of theory and spectroscopy        #
                #                                                       #
                #                      Frank Neese                      #
                #                                                       #
                #     Directorship, Architecture, Infrastructure        #
                #                    SHARK, DRIVERS                     #
                #        Core code/Algorithms in most modules           #
                #                                                       #
                #        Max Planck Institute fuer Kohlenforschung      #
                #                Kaiser Wilhelm Platz 1                 #
                #                 D-45470 Muelheim/Ruhr                 #
                #                      Germany                          #
                #                                                       #
                #                  All rights reserved                  #
                #                        -***-                          #
                #########################################################


                         Program Version 6.0.0  -   RELEASE  -


 With contributions from (in alphabetic order):
   Daniel Aravena         : Magnetic Suceptibility
   Michael Atanasov       : Ab Initio Ligand Field Theory (pilot matlab implementation)
   Alexander A. Auer      : GIAO ZORA, VPT2 properties, NMR spectrum
   Ute Becker             : All parallelization in ORCA, NUMFREQ, NUMCALC
   Giovanni Bistoni       : ED, misc. LED, open-shell LED, HFLD
   Martin Brehm           : Molecular dynamics
   Dmytro Bykov           : pre 5.0 version of the SCF Hessian
   Marcos Casanova-Páez   : Triplet and SCS-CIS(D). UHF-(DLPNO)-IP/EA/STEOM-CCSD. UHF-CVS-IP/STEOM-CCSD
   Vijay G. Chilkuri      : MRCI spin determinant printing, contributions to CSF-ICE
   Pauline Colinet        : FMM embedding
   Dipayan Datta          : RHF DLPNO-CCSD density
   Achintya Kumar Dutta   : EOM-CC, STEOM-CC
   Nicolas Foglia         : Exact transition moments, OPA infrastructure, MCD improvements
   Dmitry Ganyushin       : Spin-Orbit,Spin-Spin,Magnetic field MRCI
   Miquel Garcia          : C-PCM and meta-GGA Hessian, CCSD/C-PCM, Gaussian charge scheme
   Tiago L. C. Gouveia    : GS-ROHF, GS-ROCIS
   Yang Guo               : DLPNO-NEVPT2, F12-NEVPT2, CIM, IAO-localization
   Andreas Hansen         : Spin unrestricted coupled pair/coupled cluster methods
   Ingolf Harden          : AUTO-CI MPn and infrastructure 
   Benjamin Helmich-Paris : MC-RPA, TRAH-(SCF,CASSCF), AVAS, COSX integrals, SCF dyn. polar.
   Lee Huntington         : MR-EOM, pCC
   Robert Izsak           : Overlap fitted RIJCOSX, COSX-SCS-MP3, EOM
   Riya Kayal             : Wick's Theorem for AUTO-CI, AUTO-CI UHF-CCSDT
   Emily Kempfer          : AUTO-CI, RHF CISDT and CCSDT
   Christian Kollmar      : KDIIS, OOCD, Brueckner-CCSD(T), CCSD density, CASPT2, CASPT2-K, improved NEVPT2
   Axel Koslowski         : Symmetry handling
   Simone Kossmann        : Meta GGA functionals, TD-DFT gradient, OOMP2, (MP2 Hessian; deprecated post 5.0)
   Lucas Lang             : DCDCAS
   Marvin Lechner         : AUTO-CI (C++ implementation), FIC-MRCC
   Spencer Leger          : CASSCF response
   Dagmar Lenk            : GEPOL surface, SMD, ORCA-2-JSON
   Dimitrios Liakos       : Extrapolation schemes; Compound Job, initial MDCI parallelization
   Dimitrios Manganas     : Further ROCIS development; embedding schemes. LFT, Crystal Embedding
   Dimitrios Pantazis     : SARC Basis sets
   Anastasios Papadopoulos: AUTO-CI, single reference methods and gradients
   Taras Petrenko         : pre 6.0 DFT Hessian and TD-DFT gradient, (ASA, deprecated), ECA, 1-Electron XAS/XES, NRVS
   Peter Pinski           : DLPNO-MP2, DLPNO-MP2 Gradient
   Christoph Reimann      : Effective Core Potentials
   Marius Retegan         : Local ZFS, SOC
   Christoph Riplinger    : Optimizer, TS searches, QM/MM, DLPNO-CCSD(T), (RO)-DLPNO pert. Triples
   Michael Roemelt        : Original ROCIS implementation
   Masaaki Saitow         : Open-shell DLPNO-CCSD energy and density
   Barbara Sandhoefer     : DKH picture change effects
   Kantharuban Sivalingam : CASSCF convergence/infrastructure, NEVPT2 and variants, FIC-MRCI
   Bernardo de Souza      : ESD, SOC TD-DFT
   Georgi Stoychev        : AutoAux, RI-MP2 NMR, DLPNO-MP2 response, X2C
   Van Anh Tran           : RI-MP2 g-tensors
   Willem Van den Heuvel  : Paramagnetic NMR
   Zikuan Wang            : NOTCH, Electric field optimization 
   Frank Wennmohs         : Technical directorship and infrastructure
   Hang Xu                : AUTO-CI-Response properties 


 We gratefully acknowledge several colleagues who have allowed us to
 interface, adapt or use parts of their codes:
   Stefan Grimme, W. Hujo, H. Kruse, P. Pracht,  : VdW corrections, initial TS optimization,
                  C. Bannwarth, S. Ehlert,         DFT functionals, gCP, sTDA/sTD-DF
                  L. Wittmann, M. Mueller
   Ed Valeev, F. Pavosevic, A. Kumar             : LibInt (2-el integral package), F12 methods
   Garnet Chan, S. Sharma, J. Yang, R. Olivares  : DMRG
   Ulf Ekstrom                                   : XCFun DFT Library
   Mihaly Kallay                                 : mrcc  (arbitrary order and MRCC methods)
   Frank Weinhold                                : gennbo (NPA and NBO analysis)
   Simon Mueller                                 : openCOSMO-RS
   Christopher J. Cramer and Donald G. Truhlar   : smd solvation model
   Lars Goerigk                                  : TD-DFT with DH, B97 family of functionals
   V. Asgeirsson, H. Jonsson                     : NEB implementation
   FAccTs GmbH                                   : IRC, NEB, NEB-TS, DLPNO-Multilevel, CI-OPT
                                                   MM, QMMM, 2- and 3-layer-ONIOM, Crystal-QMMM,
                                                   LR-CPCM, SF, NACMEs, symmetry and pop. for TD-DFT,
                                                   nearIR, NL-DFT gradient (VV10), updates on ESD,
                                                   ML-optimized integration grids, MBIS, APM,
                                                   GOAT, DOCKER, SOLVATOR, interface openCOSMO-RS
   S Lehtola, MJT Oliveira, MAL Marques          : LibXC Library
   Liviu Ungur et al                             : ANISO software


 Your calculation uses the libint2 library for the computation of 2-el integrals
 For citations please refer to: http://libint.valeyev.net

 Your ORCA version has been built with support for libXC version: 6.2.2
 For citations please refer to: https://libxc.gitlab.io

 This ORCA versions uses:
   CBLAS   interface :  Fast vector & matrix operations
   LAPACKE interface :  Fast linear algebra routines
   SCALAPACK package :  Parallel linear algebra routines
   Shared memory     :  Shared parallel matrices
   BLAS/LAPACK       :  OpenBLAS 0.3.27  USE64BITINT DYNAMIC_ARCH NO_AFFINITY Zen SINGLE_THREADED
        Core in use  :  Zen
   Copyright (c) 2011-2014, The OpenBLAS Project


Your calculation utilizes the atom-pairwise dispersion correction
with the Becke-Johnson damping scheme (D3BJ)


Warning: RI is on but no J-basis has been assigned. Assigning Def2/J (nothing to worry about!)
================================================================================

----- Orbital basis set information -----
Your calculation utilizes the basis: def2-TZVPPD
   F. Weigend and R. Ahlrichs, Phys. Chem. Chem. Phys. 7, 3297 (2005).
   D. Rappoport and F. Furche, J. Chem. Phys. 133, 134105 (2010)
   D. Rappoport, J. Chem. Phys. 155, 124102 (2021).

----- AuxJ basis set information -----
Your calculation utilizes the auxiliary basis: def2/J
   F. Weigend, Phys. Chem. Chem. Phys. 8, 1057 (2006).

================================================================================
                                        WARNINGS
                       Please study these warnings very carefully!
================================================================================

Using LibXC functional ID 531 : wB97M-V exchange-correlation functional
[ 1]  N. Mardirossian and M. Head-Gordon.,  J. Chem. Phys. 144, 214110 (2016)
Using LibXC functional ID 531 : wB97M-V exchange-correlation functional
[ 1]  N. Mardirossian and M. Head-Gordon.,  J. Chem. Phys. 144, 214110 (2016)

WARNING: B97M-V or wB97M-V functional requested.
  ===> : libXC variant has now been activated.
         Any manually given DFX/HFX/RangeSep scaling parameters are IGNORED!

Your calculation utilizes LibXC
 by S Lehtola, C Steigemann, MJT Oliveira & MAL Marques
Please cite in your paper:
 S Lehtola, C Steigemann, MJT Oliveira & MAL Marques, SoftwareX, 7, (2018), 1.
   


WARNING: your system is open-shell and RHF/RKS was chosen
  ===> : WILL SWITCH to UHF/UKS

INFO   : Checking CIS options ...

WARNING: CIS/ROCIS methods need fully converged wavefunctions
  ===> : Setting SCFConvForced true
         You can overwrite this default with %scf ConvForced false 


================================================================================
                                       INPUT FILE
================================================================================
NAME = orca.inp
|  1> ! Engrad def2-TZVPPD wB97M-D3BJ 
|  2> %pal nprocs 8 end%pal nprocs 64 end 
|  3> %tddft 
|  4>  Iroot 2 Nroots 3 
|  5> sf true 
|  6> end 
|  7> *xyz 0 3 
|  8> O   2.62554483 -0.53997615 -2.28627567
|  9> O   -2.16204429 1.03419486 -1.67641679
| 10> O   -0.97880532 -2.80546504 -0.83702082
| 11> O   -2.52472803 0.39675561 2.90221594
| 12> N   0.14290011 -1.52074229 0.66204589
| 13> N   -0.66123724 1.21871292 2.01097682
| 14> N   0.77124638 -1.53150044 -1.55926145
| 15> N   -2.334746 0.52363256 0.58093204
| 16> C   2.0954924 -0.39195788 0.01134963
| 17> C   -0.24570136 1.31478591 -0.3785701
| 18> C   0.99529846 -0.45330822 1.00992235
| 19> C   0.30622308 0.98355482 0.98625279
| 20> C   3.34822178 0.36139689 0.18996143
| 21> C   0.57458028 1.97235405 -1.37816307
| 22> C   1.85858989 -0.83013367 -1.35432165
| 23> C   -1.64226817 0.9515258 -0.5302476
| 24> C   -0.10182077 -1.99553979 -0.55927688
| 25> C   -1.91343895 0.66952887 1.92875706
| 26> H   1.40312481 -0.67088698 2.04735427
| 27> H   1.17690772 1.59010083 1.28093693
| 28> H   4.05444112 -0.04430497 -0.57846259
| 29> H   3.3798651 1.38258063 -0.01945948
| 30> H   3.72774485 0.31864535 1.25525422
| 31> H   -0.01474868 2.12177582 -2.27804418
| 32> H   0.97040624 2.93276219 -0.99926146
| 33> H   1.41245043 1.30733412 -1.72138799
| 34> H   -0.53565158 -1.90263322 1.28854383
| 35> H   -0.29444892 1.14764201 2.95097361
| 36> H   0.51089875 -1.79069089 -2.51664281
| 37> H   -3.25155729 0.15587103 0.54927951
| 38> *
| 39> 
| 40>                          ****END OF INPUT****
================================================================================

                     *******************************
                     * Energy+Gradient Calculation *
                     *******************************

---------------------------------
CARTESIAN COORDINATES (ANGSTROEM)
---------------------------------
  O      2.625545   -0.539976   -2.286276
  O     -2.162044    1.034195   -1.676417
  O     -0.978805   -2.805465   -0.837021
  O     -2.524728    0.396756    2.902216
  N      0.142900   -1.520742    0.662046
  N     -0.661237    1.218713    2.010977
  N      0.771246   -1.531500   -1.559261
  N     -2.334746    0.523633    0.580932
  C      2.095492   -0.391958    0.011350
  C     -0.245701    1.314786   -0.378570
  C      0.995298   -0.453308    1.009922
  C      0.306223    0.983555    0.986253
  C      3.348222    0.361397    0.189961
  C      0.574580    1.972354   -1.378163
  C      1.858590   -0.830134   -1.354322
  C     -1.642268    0.951526   -0.530248
  C     -0.101821   -1.995540   -0.559277
  C     -1.913439    0.669529    1.928757
  H      1.403125   -0.670887    2.047354
  H      1.176908    1.590101    1.280937
  H      4.054441   -0.044305   -0.578463
  H      3.379865    1.382581   -0.019459
  H      3.727745    0.318645    1.255254
  H     -0.014749    2.121776   -2.278044
  H      0.970406    2.932762   -0.999261
  H      1.412450    1.307334   -1.721388
  H     -0.535652   -1.902633    1.288544
  H     -0.294449    1.147642    2.950974
  H      0.510899   -1.790691   -2.516643
  H     -3.251557    0.155871    0.549280

----------------------------
CARTESIAN COORDINATES (A.U.)
----------------------------
  NO LB      ZA    FRAG     MASS         X           Y           Z
   0 O     8.0000    0    15.999    4.961561   -1.020407   -4.320435
   1 O     8.0000    0    15.999   -4.085672    1.954345   -3.167969
   2 O     8.0000    0    15.999   -1.849674   -5.301561   -1.581740
   3 O     8.0000    0    15.999   -4.771045    0.749759    5.484393
   4 N     7.0000    0    14.007    0.270042   -2.873786    1.251085
   5 N     7.0000    0    14.007   -1.249557    2.303034    3.800195
   6 N     7.0000    0    14.007    1.457444   -2.894116   -2.946577
   7 N     7.0000    0    14.007   -4.412031    0.989522    1.097802
   8 C     6.0000    0    12.011    3.959907   -0.740693    0.021448
   9 C     6.0000    0    12.011   -0.464308    2.484585   -0.715394
  10 C     6.0000    0    12.011    1.880842   -0.856628    1.908477
  11 C     6.0000    0    12.011    0.578678    1.858649    1.863748
  12 C     6.0000    0    12.011    6.327222    0.682941    0.358975
  13 C     6.0000    0    12.011    1.085799    3.727209   -2.604351
  14 C     6.0000    0    12.011    3.512226   -1.568725   -2.559297
  15 C     6.0000    0    12.011   -3.103437    1.798123   -1.002023
  16 C     6.0000    0    12.011   -0.192413   -3.771024   -1.056880
  17 C     6.0000    0    12.011   -3.615876    1.265226    3.644823
  18 H     1.0000    0     1.008    2.651522   -1.267793    3.868939
  19 H     1.0000    0     1.008    2.224033    3.004855    2.420620
  20 H     1.0000    0     1.008    7.661783   -0.083724   -1.093136
  21 H     1.0000    0     1.008    6.387019    2.612699   -0.036773
  22 H     1.0000    0     1.008    7.044417    0.602152    2.372087
  23 H     1.0000    0     1.008   -0.027871    4.009575   -4.304880
  24 H     1.0000    0     1.008    1.833802    5.542117   -1.888330
  25 H     1.0000    0     1.008    2.669144    2.470503   -3.252952
  26 H     1.0000    0     1.008   -1.012235   -3.595456    2.434995
  27 H     1.0000    0     1.008   -0.556428    2.168729    5.576532
  28 H     1.0000    0     1.008    0.965459   -3.383915   -4.755766
  29 H     1.0000    0     1.008   -6.144553    0.294554    1.037988

--------------------------------
INTERNAL COORDINATES (ANGSTROEM)
--------------------------------
 O      0   0   0     0.000000000000     0.00000000     0.00000000
 O      1   0   0     5.076509805386     0.00000000     0.00000000
 O      2   1   0     4.104586240079    57.49500121     0.00000000
 O      2   1   3     4.636997516597    98.61288851    62.23395411
 N      3   2   1     2.270668759879    75.41259938    64.88035094
 N      4   2   1     2.223177661118    59.18783920    40.33371459
 N      1   2   3     2.224880409239    46.60161228   358.95533544
 N      6   4   2     2.308418581943    61.92356171   354.81115429
 C      5   3   2     2.347376518159   119.99893279   279.67177162
 C      2   1   3     2.331417507321    47.85659109   101.28471884
 C      5   3   2     1.409615717954   152.88506937   306.02391312
 C      6   4   2     1.428754051763   142.58454770   309.46651361
 C      9   5   3     1.472676639353   156.91975538   193.76126361
 C     10   2   1     1.450670166970    97.80212323    58.44779484
 C      1   2   3     1.241349894992    53.10244542   320.00916705
 C      2   1   3     1.261231620484    72.55354220    75.24917391
 C      3   2   1     1.225651870530    68.55842607    35.49448381
 C      4   2   1     1.181398231651    27.64638279    33.46789346
 H     11   5   3     1.135749900811   107.30709010   200.63079949
 H     12   6   4     1.101284952656   104.64238601   198.25224254
 H     13   9   5     1.119738911493   105.54093007   141.15238365
 H     13   9   5     1.042916414717   120.15561751   254.67074302
 H     13   9   5     1.131686433276   112.34094449    15.24389410
 H     14  10   2     1.086011740535   109.05537497     3.11146325
 H     14  10   2     1.105725289594   111.10095439   125.79873600
 H     14  10   2     1.123423892067   111.34083072   249.55688598
 H      5   3   2     0.999386185237    82.08222249   105.44296746
 H      6   4   2     1.011522966198    84.57332791   185.91681859
 H      7   1   2     1.025446071860    91.09816902    87.18065909
 H      8   6   4     0.988328572427   143.55069056     2.46833859

---------------------------
INTERNAL COORDINATES (A.U.)
---------------------------
 O      0   0   0     0.000000000000     0.00000000     0.00000000
 O      1   0   0     9.593213248346     0.00000000     0.00000000
 O      2   1   0     7.756543886811    57.49500121     0.00000000
 O      2   1   3     8.762655390042    98.61288851    62.23395411
 N      3   2   1     4.290942097021    75.41259938    64.88035094
 N      4   2   1     4.201196926565    59.18783920    40.33371459
 N      1   2   3     4.204414654188    46.60161228   358.95533544
 N      6   4   2     4.362278922327    61.92356171   354.81115429
 C      5   3   2     4.435898752518   119.99893279   279.67177162
 C      2   1   3     4.405740592667    47.85659109   101.28471884
 C      5   3   2     2.663787661003   152.88506937   306.02391312
 C      6   4   2     2.699953870563   142.58454770   309.46651361
 C      9   5   3     2.782955532201   156.91975538   193.76126361
 C     10   2   1     2.741369326224    97.80212323    58.44779484
 C      1   2   3     2.345811337907    53.10244542   320.00916705
 C      2   1   3     2.383382354157    72.55354220    75.24917391
 C      3   2   1     2.316146370829    68.55842607    35.49448381
 C      4   2   1     2.232519112920    27.64638279    33.46789346
 H     11   5   3     2.146256269161   107.30709010   200.63079949
 H     12   6   4     2.081126955928   104.64238601   198.25224254
 H     13   9   5     2.115999884216   105.54093007   141.15238365
 H     13   9   5     1.970826404386   120.15561751   254.67074302
 H     13   9   5     2.138577428365   112.34094449    15.24389410
 H     14  10   2     2.052264767834   109.05537497     3.11146325
 H     14  10   2     2.089517976684   111.10095439   125.79873600
 H     14  10   2     2.122963488311   111.34083072   249.55688598
 H      5   3   2     1.888566192122    82.08222249   105.44296746
 H      6   4   2     1.911501384287    84.57332791   185.91681859
 H      7   1   2     1.937812240921    91.09816902    87.18065909
 H      8   6   4     1.867670332216   143.55069056     2.46833859

---------------------
BASIS SET INFORMATION
---------------------
There are 4 groups of distinct atoms

 Group   1 Type O   : 12s7p3d1f contracted to 6s4p3d1f pattern {621111/4111/111/1}
 Group   2 Type N   : 12s6p3d1f contracted to 6s3p3d1f pattern {621111/411/111/1}
 Group   3 Type C   : 12s6p3d1f contracted to 6s3p3d1f pattern {621111/411/111/1}
 Group   4 Type H   : 5s3p1d contracted to 3s3p1d pattern {311/111/1}

Atom   0O    basis set group =>   1
Atom   1O    basis set group =>   1
Atom   2O    basis set group =>   1
Atom   3O    basis set group =>   1
Atom   4N    basis set group =>   2
Atom   5N    basis set group =>   2
Atom   6N    basis set group =>   2
Atom   7N    basis set group =>   2
Atom   8C    basis set group =>   3
Atom   9C    basis set group =>   3
Atom  10C    basis set group =>   3
Atom  11C    basis set group =>   3
Atom  12C    basis set group =>   3
Atom  13C    basis set group =>   3
Atom  14C    basis set group =>   3
Atom  15C    basis set group =>   3
Atom  16C    basis set group =>   3
Atom  17C    basis set group =>   3
Atom  18H    basis set group =>   4
Atom  19H    basis set group =>   4
Atom  20H    basis set group =>   4
Atom  21H    basis set group =>   4
Atom  22H    basis set group =>   4
Atom  23H    basis set group =>   4
Atom  24H    basis set group =>   4
Atom  25H    basis set group =>   4
Atom  26H    basis set group =>   4
Atom  27H    basis set group =>   4
Atom  28H    basis set group =>   4
Atom  29H    basis set group =>   4
---------------------------------
AUXILIARY/J BASIS SET INFORMATION
---------------------------------
There are 4 groups of distinct atoms

 Group   1 Type O   : 12s5p4d2f1g contracted to 6s4p3d1f1g pattern {711111/2111/211/2/1}
 Group   2 Type N   : 12s5p4d2f1g contracted to 6s4p3d1f1g pattern {711111/2111/211/2/1}
 Group   3 Type C   : 12s5p4d2f1g contracted to 6s4p3d1f1g pattern {711111/2111/211/2/1}
 Group   4 Type H   : 5s2p1d contracted to 3s1p1d pattern {311/2/1}

Atom   0O    basis set group =>   1
Atom   1O    basis set group =>   1
Atom   2O    basis set group =>   1
Atom   3O    basis set group =>   1
Atom   4N    basis set group =>   2
Atom   5N    basis set group =>   2
Atom   6N    basis set group =>   2
Atom   7N    basis set group =>   2
Atom   8C    basis set group =>   3
Atom   9C    basis set group =>   3
Atom  10C    basis set group =>   3
Atom  11C    basis set group =>   3
Atom  12C    basis set group =>   3
Atom  13C    basis set group =>   3
Atom  14C    basis set group =>   3
Atom  15C    basis set group =>   3
Atom  16C    basis set group =>   3
Atom  17C    basis set group =>   3
Atom  18H    basis set group =>   4
Atom  19H    basis set group =>   4
Atom  20H    basis set group =>   4
Atom  21H    basis set group =>   4
Atom  22H    basis set group =>   4
Atom  23H    basis set group =>   4
Atom  24H    basis set group =>   4
Atom  25H    basis set group =>   4
Atom  26H    basis set group =>   4
Atom  27H    basis set group =>   4
Atom  28H    basis set group =>   4
Atom  29H    basis set group =>   4
[1741393722.701925] [ohm:1274797:0]        ib_iface.c:1059 UCX  ERROR ibv_create_cq(cqe=256) failed: Connection timed out
[1741393722.706217] [ohm:1274804:0]        ib_iface.c:1059 UCX  ERROR ibv_create_cq(cqe=256) failed: Connection timed out
[1741393722.707017] [ohm:1274798:0]        ib_iface.c:1059 UCX  ERROR ibv_create_cq(cqe=256) failed: Connection timed out
[1741393722.715645] [ohm:1274807:0]        ib_iface.c:1059 UCX  ERROR ibv_create_cq(cqe=256) failed: Connection timed out
[1741393722.727611] [ohm:1274800:0]        ib_iface.c:1059 UCX  ERROR ibv_create_cq(cqe=256) failed: Connection timed out
[1741393722.729076] [ohm:1274810:0]        ib_iface.c:1059 UCX  ERROR ibv_create_cq(cqe=256) failed: Connection timed out
[1741393722.734606] [ohm:1274796:0]        ib_iface.c:1059 UCX  ERROR ibv_create_cq(cqe=256) failed: Connection timed out
[1741393722.757143] [ohm:1274842:0]        ib_iface.c:1059 UCX  ERROR ibv_create_cq(cqe=256) failed: Connection timed out
[1741393722.762167] [ohm:1274802:0]        ib_iface.c:1059 UCX  ERROR ibv_create_cq(cqe=256) failed: Connection timed out
[1741393722.768038] [ohm:1274857:0]        ib_iface.c:1059 UCX  ERROR ibv_create_cq(cqe=256) failed: Connection timed out
[1741393722.768088] [ohm:1274808:0]        ib_iface.c:1059 UCX  ERROR ibv_create_cq(cqe=256) failed: Connection timed out
[1741393722.770363] [ohm:1274805:0]        ib_iface.c:1059 UCX  ERROR ibv_create_cq(cqe=256) failed: Connection timed out
[1741393722.774632] [ohm:1274803:0]        ib_iface.c:1059 UCX  ERROR ibv_create_cq(cqe=256) failed: Connection timed out
[1741393722.775065] [ohm:1274854:0]        ib_iface.c:1059 UCX  ERROR ibv_create_cq(cqe=256) failed: Connection timed out
[1741393722.777153] [ohm:1274881:0]        ib_iface.c:1059 UCX  ERROR ibv_create_cq(cqe=256) failed: Connection timed out
[1741393722.781305] [ohm:1274806:0]        ib_iface.c:1059 UCX  ERROR ibv_create_cq(cqe=256) failed: Connection timed out
[1741393722.826808] [ohm:1274864:0]        ib_iface.c:1059 UCX  ERROR ibv_create_cq(cqe=256) failed: Connection timed out
[1741393722.840171] [ohm:1274820:0]        ib_iface.c:1059 UCX  ERROR ibv_create_cq(cqe=256) failed: Connection timed out
[1741393722.859700] [ohm:1274809:0]        ib_iface.c:1059 UCX  ERROR ibv_create_cq(cqe=256) failed: Connection timed out
[1741393722.872066] [ohm:1274847:0]        ib_iface.c:1059 UCX  ERROR ibv_create_cq(cqe=256) failed: Connection timed out
[1741393722.884012] [ohm:1274915:0]        ib_iface.c:1059 UCX  ERROR ibv_create_cq(cqe=256) failed: Connection timed out
[1741393722.895124] [ohm:1274893:0]        ib_iface.c:1059 UCX  ERROR ibv_create_cq(cqe=256) failed: Connection timed out
[1741393722.896277] [ohm:1274921:0]        ib_iface.c:1059 UCX  ERROR ibv_create_cq(cqe=256) failed: Connection timed out
[1741393722.897978] [ohm:1274870:0]        ib_iface.c:1059 UCX  ERROR ibv_create_cq(cqe=256) failed: Connection timed out
[1741393722.899623] [ohm:1274863:0]        ib_iface.c:1059 UCX  ERROR ibv_create_cq(cqe=256) failed: Connection timed out
[1741393722.901028] [ohm:1274872:0]        ib_iface.c:1059 UCX  ERROR ibv_create_cq(cqe=256) failed: Connection timed out
[1741393722.903576] [ohm:1274897:0]        ib_iface.c:1059 UCX  ERROR ibv_create_cq(cqe=256) failed: Connection timed out
[1741393722.906904] [ohm:1274821:0]        ib_iface.c:1059 UCX  ERROR ibv_create_cq(cqe=256) failed: Connection timed out
[1741393722.907835] [ohm:1274819:0]        ib_iface.c:1059 UCX  ERROR ibv_create_cq(cqe=256) failed: Connection timed out
[1741393722.909453] [ohm:1274822:0]        ib_iface.c:1059 UCX  ERROR ibv_create_cq(cqe=256) failed: Connection timed out
[1741393722.913340] [ohm:1274817:0]        ib_iface.c:1059 UCX  ERROR ibv_create_cq(cqe=256) failed: Connection timed out
[1741393722.913591] [ohm:1274924:0]        ib_iface.c:1059 UCX  ERROR ibv_create_cq(cqe=256) failed: Connection timed out
[1741393722.915883] [ohm:1274906:0]        ib_iface.c:1059 UCX  ERROR ibv_create_cq(cqe=256) failed: Connection timed out
[1741393722.940970] [ohm:1274816:0]        ib_iface.c:1059 UCX  ERROR ibv_create_cq(cqe=256) failed: Connection timed out
[1741393722.944758] [ohm:1274830:0]        ib_iface.c:1059 UCX  ERROR ibv_create_cq(cqe=256) failed: Connection timed out
[1741393722.952182] [ohm:1274908:0]        ib_iface.c:1059 UCX  ERROR ibv_create_cq(cqe=256) failed: Connection timed out
[1741393722.955855] [ohm:1274902:0]        ib_iface.c:1059 UCX  ERROR ibv_create_cq(cqe=256) failed: Connection timed out
[1741393722.967883] [ohm:1274818:0]        ib_iface.c:1059 UCX  ERROR ibv_create_cq(cqe=256) failed: Connection timed out
[1741393722.968843] [ohm:1274814:0]        ib_iface.c:1059 UCX  ERROR ibv_create_cq(cqe=256) failed: Connection timed out
[1741393722.971120] [ohm:1274912:0]        ib_iface.c:1059 UCX  ERROR ibv_create_cq(cqe=256) failed: Connection timed out
[1741393722.982023] [ohm:1274884:0]        ib_iface.c:1059 UCX  ERROR ibv_create_cq(cqe=256) failed: Connection timed out
[1741393722.982708] [ohm:1274813:0]        ib_iface.c:1059 UCX  ERROR ibv_create_cq(cqe=256) failed: Connection timed out
[1741393722.989052] [ohm:1274824:0]        ib_iface.c:1059 UCX  ERROR ibv_create_cq(cqe=256) failed: Connection timed out
[1741393722.995995] [ohm:1274815:0]        ib_iface.c:1059 UCX  ERROR ibv_create_cq(cqe=256) failed: Connection timed out
[1741393722.996441] [ohm:1274877:0]        ib_iface.c:1059 UCX  ERROR ibv_create_cq(cqe=256) failed: Connection timed out
[1741393722.998354] [ohm:1274887:0]        ib_iface.c:1059 UCX  ERROR ibv_create_cq(cqe=256) failed: Connection timed out
[1741393723.005035] [ohm:1274920:0]        ib_iface.c:1059 UCX  ERROR ibv_create_cq(cqe=256) failed: Connection timed out
[1741393723.013304] [ohm:1274932:0]        ib_iface.c:1059 UCX  ERROR ibv_create_cq(cqe=256) failed: Connection timed out
[1741393723.019723] [ohm:1274811:0]        ib_iface.c:1059 UCX  ERROR ibv_create_cq(cqe=256) failed: Connection timed out
[1741393723.021750] [ohm:1274938:0]        ib_iface.c:1059 UCX  ERROR ibv_create_cq(cqe=256) failed: Connection timed out
[1741393723.022053] [ohm:1274826:0]        ib_iface.c:1059 UCX  ERROR ibv_create_cq(cqe=256) failed: Connection timed out
[1741393723.022419] [ohm:1274843:0]        ib_iface.c:1059 UCX  ERROR ibv_create_cq(cqe=256) failed: Connection timed out
[1741393723.029518] [ohm:1274901:0]        ib_iface.c:1059 UCX  ERROR ibv_create_cq(cqe=256) failed: Connection timed out
[1741393723.035855] [ohm:1274943:0]        ib_iface.c:1059 UCX  ERROR ibv_create_cq(cqe=256) failed: Connection timed out
[1741393723.036399] [ohm:1274840:0]        ib_iface.c:1059 UCX  ERROR ibv_create_cq(cqe=256) failed: Connection timed out
[1741393723.036411] [ohm:1274851:0]        ib_iface.c:1059 UCX  ERROR ibv_create_cq(cqe=256) failed: Connection timed out
[1741393723.038953] [ohm:1274801:0]        ib_iface.c:1059 UCX  ERROR ibv_create_cq(cqe=256) failed: Connection timed out
[1741393723.039380] [ohm:1274892:0]        ib_iface.c:1059 UCX  ERROR ibv_create_cq(cqe=256) failed: Connection timed out
[1741393723.039562] [ohm:1274834:0]        ib_iface.c:1059 UCX  ERROR ibv_create_cq(cqe=256) failed: Connection timed out
[1741393723.040326] [ohm:1274812:0]        ib_iface.c:1059 UCX  ERROR ibv_create_cq(cqe=256) failed: Connection timed out
[1741393723.040563] [ohm:1274861:0]        ib_iface.c:1059 UCX  ERROR ibv_create_cq(cqe=256) failed: Connection timed out
[1741393723.041684] [ohm:1274939:0]        ib_iface.c:1059 UCX  ERROR ibv_create_cq(cqe=256) failed: Connection timed out
[1741393723.042261] [ohm:1274926:0]        ib_iface.c:1059 UCX  ERROR ibv_create_cq(cqe=256) failed: Connection timed out
[1741393723.042550] [ohm:1274799:0]        ib_iface.c:1059 UCX  ERROR ibv_create_cq(cqe=256) failed: Connection timed out


           ************************************************************
           *        Program running with 64 parallel MPI-processes    *
           *              working on a common directory               *
           ************************************************************
------------------------------------------------------------------------------
                             ORCA STARTUP CALCULATIONS
                           -- RI-GTO INTEGRALS CHOSEN --
------------------------------------------------------------------------------
------------------------------------------------------------------------------
                   ___                                                        
                  /   \      - P O W E R E D   B Y -                         
                 /     \                                                     
                 |  |  |   _    _      __       _____    __    __             
                 |  |  |  | |  | |    /  \     |  _  \  |  |  /  |          
                  \  \/   | |  | |   /    \    | | | |  |  | /  /          
                 / \  \   | |__| |  /  /\  \   | |_| |  |  |/  /          
                |  |  |   |  __  | /  /__\  \  |    /   |      \           
                |  |  |   | |  | | |   __   |  |    \   |  |\   \          
                \     /   | |  | | |  |  |  |  | |\  \  |  | \   \       
                 \___/    |_|  |_| |__|  |__|  |_| \__\ |__|  \__/        
                                                                              
                      - O R C A' S   B I G   F R I E N D -                    
                                      &                                       
                       - I N T E G R A L  F E E D E R -                       
                                                                              
 v1 FN, 2020, v2 2021, v3 2022-2024                                           
------------------------------------------------------------------------------


----------------------
SHARK INTEGRAL PACKAGE
----------------------

Number of atoms                             ...     30
Number of basis functions                   ...    882
Number of shells                            ...    322
Maximum angular momentum                    ...      3
Integral batch strategy                     ... SHARK/LIBINT Hybrid
RI-J (if used) integral strategy            ... SPLIT-RIJ (Revised 2003 algorithm where possible)
Printlevel                                  ...      1
Contraction scheme used                     ... SEGMENTED contraction
Prescreening option                         ... SCHWARTZ
   Thresh                                   ... 2.500e-11
   Tcut                                     ... 2.500e-12
   Tpresel                                  ... 2.500e-12 
Coulomb Range Separation                    ... NOT USED
Exchange Range Separation                   ... Long Range
   Mu parameter                             ... 3.000e-01
   Scaling (regular/separated)              ... 1.500e-01 8.500e-01
Multipole approximations                    ... NOT USED
Finite Nucleus Model                        ... NOT USED
CABS basis                                  ... NOT available
Auxiliary Coulomb fitting basis             ... AVAILABLE
   # of basis functions in Aux-J            ...   1014
   # of shells in Aux-J                     ...    330
   Maximum angular momentum in Aux-J        ...      4
Auxiliary J/K fitting basis                 ... NOT available
Auxiliary Correlation fitting basis         ... NOT available
Auxiliary 'external' fitting basis          ... NOT available

Checking pre-screening integrals            ... done (  0.0 sec) Dimension = 322
Check shell pair data                       ... done (  0.0 sec)
Shell pair information
Shell pair cut-off parameter TPreSel        ...   2.5e-12
Total number of shell pairs                 ...     52003
Shell pairs after pre-screening             ...     45255
Total number of primitive shell pairs       ...    129718
Primitive shell pairs kept                  ...     84869
          la=0 lb=0:   8766 shell pairs
          la=1 lb=0:  11975 shell pairs
          la=1 lb=1:   4123 shell pairs
          la=2 lb=0:   8134 shell pairs
          la=2 lb=1:   5626 shell pairs
          la=2 lb=2:   1946 shell pairs
          la=3 lb=0:   2076 shell pairs
          la=3 lb=1:   1464 shell pairs
          la=3 lb=2:   1004 shell pairs
          la=3 lb=3:    141 shell pairs

Calculating one electron integrals          ... done (  0.2 sec)
Calculating RI/J V-Matrix + Cholesky decomp.... done (  0.0 sec)
Calculating Nuclear repulsion               ... done (  0.0 sec) ENN=   1453.253509706173 Eh

Diagonalization of the overlap matrix:
Smallest eigenvalue                        ... 6.693e-07
Time for diagonalization                   ...    0.128 sec
Threshold for overlap eigenvalues          ... 1.000e-07
Number of eigenvalues below threshold      ... 0

IMPORTANT:
Smallest eigenvalue of S below the DiffSThresh (1.000e-06) while
Thresh>1e-12 and/or TCut>1e-13! In order to avoid SCF convergence issues,
Thresh will be set to at least 1e-12 and TCut to at least 1e-13.
This can be turned off by adding %SCF DiffSThresh -1 END to the input.

Time for construction of square roots      ...    0.136 sec
Total time needed                          ...    0.275 sec

-------------------
DFT GRID GENERATION
-------------------

General Integration Accuracy     IntAcc      ... 4.388
Radial Grid Type                 RadialGrid  ... OptM3 with GC (2021)
Angular Grid (max. ang.)         AngularGrid ... 4 (Lebedev-302)
Angular grid pruning method      GridPruning ... 4 (adaptive)
Weight generation scheme         WeightScheme... mBecke (2022)
Basis function cutoff            BFCut       ... 1.0000e-11
Integration weight cutoff        WCut        ... 1.0000e-14
Partially contracted basis set               ... off
Rotationally invariant grid construction     ... off
Angular grids for H and He will be reduced by one unit
Diffuse basis detected: some atoms will have their outermost
                        angular grid increased by 1.

Total number of grid points                  ...   151675
Total number of batches                      ...     2385
Average number of points per batch           ...       63
Average number of grid points per atom       ...     5056

--------------------
COSX GRID GENERATION
--------------------

GRIDX 1
-------
General Integration Accuracy     IntAcc      ... 3.816
Radial Grid Type                 RadialGrid  ... OptM3 with GC (2021)
Angular Grid (max. ang.)         AngularGrid ... 1 (Lebedev-50)
Angular grid pruning method      GridPruning ... 4 (adaptive)
Weight generation scheme         WeightScheme... mBecke (2022)
Basis function cutoff            BFCut       ... 1.0000e-11
Integration weight cutoff        WCut        ... 1.0000e-14
Partially contracted basis set               ... on
Rotationally invariant grid construction     ... off
Angular grids for H and He will be reduced by one unit
Diffuse basis detected: some atoms will have their outermost
                        angular grid increased by 1.

Total number of grid points                  ...    19009
Total number of batches                      ...      166
Average number of points per batch           ...      114
Average number of grid points per atom       ...      634
UseSFitting                                  ... on

GRIDX 2
-------
General Integration Accuracy     IntAcc      ... 4.020
Radial Grid Type                 RadialGrid  ... OptM3 with GC (2021)
Angular Grid (max. ang.)         AngularGrid ... 2 (Lebedev-110)
Angular grid pruning method      GridPruning ... 4 (adaptive)
Weight generation scheme         WeightScheme... mBecke (2022)
Basis function cutoff            BFCut       ... 1.0000e-11
Integration weight cutoff        WCut        ... 1.0000e-14
Partially contracted basis set               ... on
Rotationally invariant grid construction     ... off
Angular grids for H and He will be reduced by one unit
Diffuse basis detected: some atoms will have their outermost
                        angular grid increased by 1.

Total number of grid points                  ...    45734
Total number of batches                      ...      372
Average number of points per batch           ...      122
Average number of grid points per atom       ...     1524
UseSFitting                                  ... on

GRIDX 3
-------
General Integration Accuracy     IntAcc      ... 4.338
Radial Grid Type                 RadialGrid  ... OptM3 with GC (2021)
Angular Grid (max. ang.)         AngularGrid ... 3 (Lebedev-194)
Angular grid pruning method      GridPruning ... 4 (adaptive)
Weight generation scheme         WeightScheme... mBecke (2022)
Basis function cutoff            BFCut       ... 1.0000e-11
Integration weight cutoff        WCut        ... 1.0000e-14
Partially contracted basis set               ... on
Rotationally invariant grid construction     ... off
Angular grids for H and He will be reduced by one unit
Diffuse basis detected: some atoms will have their outermost
                        angular grid increased by 1.

Total number of grid points                  ...   100619
Total number of batches                      ...      804
Average number of points per batch           ...      125
Average number of grid points per atom       ...     3354
UseSFitting                                  ... on
Initializing property integral containers    ... done (  0.0 sec)

SHARK setup successfully completed in   4.0 seconds

Maximum memory used throughout the entire STARTUP-calculation: 80.4 MB
[1741393728.871445] [ohm:1275167:0]        ib_iface.c:1059 UCX  ERROR ibv_create_cq(cqe=256) failed: Connection timed out
[1741393728.872344] [ohm:1275160:0]        ib_iface.c:1059 UCX  ERROR ibv_create_cq(cqe=256) failed: Connection timed out
[1741393728.884812] [ohm:1275180:0]        ib_iface.c:1059 UCX  ERROR ibv_create_cq(cqe=256) failed: Connection timed out
[1741393728.895232] [ohm:1275157:0]        ib_iface.c:1059 UCX  ERROR ibv_create_cq(cqe=256) failed: Connection timed out
[1741393728.943256] [ohm:1275158:0]        ib_iface.c:1059 UCX  ERROR ibv_create_cq(cqe=256) failed: Connection timed out
[1741393728.946517] [ohm:1275182:0]        ib_iface.c:1059 UCX  ERROR ibv_create_cq(cqe=256) failed: Connection timed out
[1741393728.947084] [ohm:1275161:0]        ib_iface.c:1059 UCX  ERROR ibv_create_cq(cqe=256) failed: Connection timed out
[1741393728.948113] [ohm:1275175:0]        ib_iface.c:1059 UCX  ERROR ibv_create_cq(cqe=256) failed: Connection timed out
[1741393728.950769] [ohm:1275236:0]        ib_iface.c:1059 UCX  ERROR ibv_create_cq(cqe=256) failed: Connection timed out
[1741393728.951247] [ohm:1275163:0]        ib_iface.c:1059 UCX  ERROR ibv_create_cq(cqe=256) failed: Connection timed out
[1741393728.987016] [ohm:1275193:0]        ib_iface.c:1059 UCX  ERROR ibv_create_cq(cqe=256) failed: Connection timed out
[1741393728.988215] [ohm:1275166:0]        ib_iface.c:1059 UCX  ERROR ibv_create_cq(cqe=256) failed: Connection timed out
[1741393728.998101] [ohm:1275185:0]        ib_iface.c:1059 UCX  ERROR ibv_create_cq(cqe=256) failed: Connection timed out
[1741393729.022326] [ohm:1275162:0]        ib_iface.c:1059 UCX  ERROR ibv_create_cq(cqe=256) failed: Connection timed out
[1741393729.045695] [ohm:1275186:0]        ib_iface.c:1059 UCX  ERROR ibv_create_cq(cqe=256) failed: Connection timed out
[1741393729.051453] [ohm:1275195:0]        ib_iface.c:1059 UCX  ERROR ibv_create_cq(cqe=256) failed: Connection timed out
[1741393729.058759] [ohm:1275288:0]        ib_iface.c:1059 UCX  ERROR ibv_create_cq(cqe=256) failed: Connection timed out
[1741393729.066898] [ohm:1275187:0]        ib_iface.c:1059 UCX  ERROR ibv_create_cq(cqe=256) failed: Connection timed out
[1741393729.067504] [ohm:1275177:0]        ib_iface.c:1059 UCX  ERROR ibv_create_cq(cqe=256) failed: Connection timed out
[1741393729.075623] [ohm:1275164:0]        ib_iface.c:1059 UCX  ERROR ibv_create_cq(cqe=256) failed: Connection timed out
[1741393729.079552] [ohm:1275179:0]        ib_iface.c:1059 UCX  ERROR ibv_create_cq(cqe=256) failed: Connection timed out
[1741393729.084769] [ohm:1275300:0]        ib_iface.c:1059 UCX  ERROR ibv_create_cq(cqe=256) failed: Connection timed out
[1741393729.093200] [ohm:1275276:0]        ib_iface.c:1059 UCX  ERROR ibv_create_cq(cqe=256) failed: Connection timed out
[1741393729.103919] [ohm:1275281:0]        ib_iface.c:1059 UCX  ERROR ibv_create_cq(cqe=256) failed: Connection timed out
[1741393729.110749] [ohm:1275170:0]        ib_iface.c:1059 UCX  ERROR ibv_create_cq(cqe=256) failed: Connection timed out
[1741393729.115948] [ohm:1275169:0]        ib_iface.c:1059 UCX  ERROR ibv_create_cq(cqe=256) failed: Connection timed out
[1741393729.118094] [ohm:1275257:0]        ib_iface.c:1059 UCX  ERROR ibv_create_cq(cqe=256) failed: Connection timed out
[1741393729.118379] [ohm:1275261:0]        ib_iface.c:1059 UCX  ERROR ibv_create_cq(cqe=256) failed: Connection timed out
[1741393729.118847] [ohm:1275183:0]        ib_iface.c:1059 UCX  ERROR ibv_create_cq(cqe=256) failed: Connection timed out
[1741393729.120563] [ohm:1275218:0]        ib_iface.c:1059 UCX  ERROR ibv_create_cq(cqe=256) failed: Connection timed out
[1741393729.128259] [ohm:1275176:0]        ib_iface.c:1059 UCX  ERROR ibv_create_cq(cqe=256) failed: Connection timed out
[1741393729.145337] [ohm:1275272:0]        ib_iface.c:1059 UCX  ERROR ibv_create_cq(cqe=256) failed: Connection timed out
[1741393729.149899] [ohm:1275247:0]        ib_iface.c:1059 UCX  ERROR ibv_create_cq(cqe=256) failed: Connection timed out
[1741393729.152270] [ohm:1275204:0]        ib_iface.c:1059 UCX  ERROR ibv_create_cq(cqe=256) failed: Connection timed out
[1741393729.152366] [ohm:1275265:0]        ib_iface.c:1059 UCX  ERROR ibv_create_cq(cqe=256) failed: Connection timed out
[1741393729.152400] [ohm:1275211:0]        ib_iface.c:1059 UCX  ERROR ibv_create_cq(cqe=256) failed: Connection timed out
[1741393729.159782] [ohm:1275284:0]        ib_iface.c:1059 UCX  ERROR ibv_create_cq(cqe=256) failed: Connection timed out
[1741393729.161649] [ohm:1275173:0]        ib_iface.c:1059 UCX  ERROR ibv_create_cq(cqe=256) failed: Connection timed out
[1741393729.164345] [ohm:1275251:0]        ib_iface.c:1059 UCX  ERROR ibv_create_cq(cqe=256) failed: Connection timed out
[1741393729.164887] [ohm:1275241:0]        ib_iface.c:1059 UCX  ERROR ibv_create_cq(cqe=256) failed: Connection timed out
[1741393729.164907] [ohm:1275184:0]        ib_iface.c:1059 UCX  ERROR ibv_create_cq(cqe=256) failed: Connection timed out
[1741393729.176270] [ohm:1275268:0]        ib_iface.c:1059 UCX  ERROR ibv_create_cq(cqe=256) failed: Connection timed out
[1741393729.179896] [ohm:1275207:0]        ib_iface.c:1059 UCX  ERROR ibv_create_cq(cqe=256) failed: Connection timed out
[1741393729.181739] [ohm:1275254:0]        ib_iface.c:1059 UCX  ERROR ibv_create_cq(cqe=256) failed: Connection timed out
[1741393729.184834] [ohm:1275279:0]        ib_iface.c:1059 UCX  ERROR ibv_create_cq(cqe=256) failed: Connection timed out
[1741393729.186770] [ohm:1275165:0]        ib_iface.c:1059 UCX  ERROR ibv_create_cq(cqe=256) failed: Connection timed out
[1741393729.192695] [ohm:1275171:0]        ib_iface.c:1059 UCX  ERROR ibv_create_cq(cqe=256) failed: Connection timed out
[1741393729.192904] [ohm:1275202:0]        ib_iface.c:1059 UCX  ERROR ibv_create_cq(cqe=256) failed: Connection timed out
[1741393729.198711] [ohm:1275233:0]        ib_iface.c:1059 UCX  ERROR ibv_create_cq(cqe=256) failed: Connection timed out
[1741393729.198974] [ohm:1275178:0]        ib_iface.c:1059 UCX  ERROR ibv_create_cq(cqe=256) failed: Connection timed out
[1741393729.203065] [ohm:1275168:0]        ib_iface.c:1059 UCX  ERROR ibv_create_cq(cqe=256) failed: Connection timed out
[1741393729.210523] [ohm:1275190:0]        ib_iface.c:1059 UCX  ERROR ibv_create_cq(cqe=256) failed: Connection timed out
[1741393729.211682] [ohm:1275214:0]        ib_iface.c:1059 UCX  ERROR ibv_create_cq(cqe=256) failed: Connection timed out
[1741393729.213222] [ohm:1275298:0]        ib_iface.c:1059 UCX  ERROR ibv_create_cq(cqe=256) failed: Connection timed out
[1741393729.213647] [ohm:1275228:0]        ib_iface.c:1059 UCX  ERROR ibv_create_cq(cqe=256) failed: Connection timed out
[1741393729.215322] [ohm:1275172:0]        ib_iface.c:1059 UCX  ERROR ibv_create_cq(cqe=256) failed: Connection timed out
[1741393729.215689] [ohm:1275244:0]        ib_iface.c:1059 UCX  ERROR ibv_create_cq(cqe=256) failed: Connection timed out
[1741393729.219045] [ohm:1275181:0]        ib_iface.c:1059 UCX  ERROR ibv_create_cq(cqe=256) failed: Connection timed out
[1741393729.219489] [ohm:1275223:0]        ib_iface.c:1059 UCX  ERROR ibv_create_cq(cqe=256) failed: Connection timed out
[1741393729.224028] [ohm:1275239:0]        ib_iface.c:1059 UCX  ERROR ibv_create_cq(cqe=256) failed: Connection timed out
[1741393729.224006] [ohm:1275159:0]        ib_iface.c:1059 UCX  ERROR ibv_create_cq(cqe=256) failed: Connection timed out
[1741393729.226218] [ohm:1275295:0]        ib_iface.c:1059 UCX  ERROR ibv_create_cq(cqe=256) failed: Connection timed out
[1741393729.232972] [ohm:1275174:0]        ib_iface.c:1059 UCX  ERROR ibv_create_cq(cqe=256) failed: Connection timed out
[1741393729.234679] [ohm:1275290:0]        ib_iface.c:1059 UCX  ERROR ibv_create_cq(cqe=256) failed: Connection timed out


           ************************************************************
           *        Program running with 64 parallel MPI-processes    *
           *              working on a common directory               *
           ************************************************************
-------------------------------------------------------------------------------
                                 ORCA GUESS
                   Start orbitals & Density for SCF / CASSCF
-------------------------------------------------------------------------------

------------
SCF SETTINGS
------------
Hamiltonian:
 Density Functional     Method          .... DFT(GTOs)
  Functional kind                       .... Exchange-Correlation
  Functional name                       .... wB97M-V exchange-correlation functional
  Functional family                     .... Hybrid MGGA
  Functional refs                              
    [ 0] N. Mardirossian and M. Head-Gordon.,  J. Chem. Phys. 144, 214110 (2016), doi: 10.1063/1.4952647
  Fraction of HF Exchange (short range) .... 0.1500
  Fraction of HF Exchange (long range)  .... 1.0000
  Range separation parameter mu         .... 0.3000
  Functional external parameters        .... 17
    Parameter  0 _cx00      =  8.500000e-01 : u^00 coefficient for exchange
    Parameter  1 _cx01      =  1.007000e+00 : u^01 coefficient for exchange
    Parameter  2 _cx10      =  2.590000e-01 : u^10 coefficient for exchange
    Parameter  3 _css00     =  4.430000e-01 : u^00 coefficient for same-spin correlation
    Parameter  4 _css04     = -1.437000e+00 : u^04 coefficient for same-spin correlation
    Parameter  5 _css10     = -4.535000e+00 : u^10 coefficient for same-spin correlation
    Parameter  6 _css20     = -3.390000e+00 : u^20 coefficient for same-spin correlation
    Parameter  7 _css43     =  4.278000e+00 : u^43 coefficient for same-spin correlation
    Parameter  8 _cos00     =  1.000000e+00 : u^00 coefficient for opposite-spin correlation
    Parameter  9 _cos10     =  1.358000e+00 : u^10 coefficient for opposite-spin correlation
    Parameter 10 _cos20     =  2.924000e+00 : u^20 coefficient for opposite-spin correlation
    Parameter 11 _cos21     = -8.812000e+00 : u^21 coefficient for opposite-spin correlation
    Parameter 12 _cos60     = -1.390000e+00 : u^60 coefficient for opposite-spin correlation
    Parameter 13 _cos61     =  9.142000e+00 : u^61 coefficient for opposite-spin correlation
    Parameter 14 _alpha     =  1.000000e+00 : fraction of HF exchange
    Parameter 15 _beta      = -8.500000e-01 : fraction of short-range exchange
    Parameter 16 _omega     =  3.000000e-01 : range-separation constant
 Long-range corrected/Screened/Range-Separated Hybrid DFT is turned on
   Amount of maximum screened exact exchange              ....  0.850000
   Range separation parameter mu (erf(mu*r12)/r12)        ....  0.300000
 RI-approximation to the Coulomb term is turned on
   Number of AuxJ basis functions       .... 1014
   RIJ-COSX (HFX calculated with COS-X)).... on


General Settings:
 Integral files         IntName         .... orca
 Hartree-Fock type      HFTyp           .... UHF
 Total Charge           Charge          ....    0
 Multiplicity           Mult            ....    3
 Number of Electrons    NEL             ....  132
 Basis Dimension        Dim             ....  882
 Nuclear Repulsion      ENuc            ....   1453.2535097062 Eh

Convergence Acceleration:
 AO-DIIS                CNVDIIS         .... on
   Start iteration      DIISMaxIt       ....    12
   Startup error        DIISStart       ....  0.200000
   # of expansion vecs  DIISMaxEq       ....     5
   Bias factor          DIISBfac        ....   1.050
   Max. coefficient     DIISMaxC        ....  10.000
 MO-DIIS                CNVKDIIS        .... off
 Trust-Rad. Augm. Hess. CNVTRAH         .... auto
   Auto Start mean grad. ratio tolernc. ....  1.125000
   Auto Start start iteration           ....    50
   Auto Start num. interpolation iter.  ....    10
   Max. Number of Micro iterations      ....    24
   Max. Number of Macro iterations      .... Maxiter - #DIIS iter
   Number of Davidson start vectors     ....     2
   Converg. threshold    (grad. norm)   ....   1.000e-05
   Grad. Scal. Fac. for Micro threshold ....   0.100
   Minimum threshold for Micro iter.    ....   1.000e-02
   NR start threshold (gradient norm)   ....   1.000e-04
   Initial trust radius                 ....   0.400
   Minimum AH scaling param. (alpha)    ....   1.000
   Maximum AH scaling param. (alpha)    .... 1000.000
   Quad. conv. algorithm                .... NR
   White noise on init. David. guess    .... on
   Maximum white noise                  ....   0.010
   Pseudo random numbers                .... off
   Inactive MOs                         .... canonical
   Orbital update algorithm             .... Taylor
   Preconditioner                       .... Diag
   Full preconditioner red. dimension   ....   250
 SOSCF                  CNVSOSCF        .... on
   Start iteration      SOSCFMaxIt      ....   150
   Startup grad/error   SOSCFStart      ....  0.003300
   Hessian update       SOSCFHessUp     .... L-BFGS
 Level Shifting         CNVShift        .... on
   Level shift para.    LevelShift      ....    0.2500
   Turn off err/grad.   ShiftErr        ....    0.0010
 Zerner damping         CNVZerner       .... off
 Static damping         CNVDamp         .... on
   Fraction old density DampFac         ....    0.7000
   Max. Damping (<1)    DampMax         ....    0.9800
   Min. Damping (>=0)   DampMin         ....    0.0000
   Turn off err/grad.   DampErr         ....    0.1000

SCF Procedure:
 Maximum # iterations   MaxIter         ....   125
 SCF integral mode      SCFMode         .... Direct
   Integral package                     .... SHARK and LIBINT hybrid scheme
 Reset frequency        DirectResetFreq ....    20
 Integral Threshold     Thresh          ....  1.000e-12 Eh
 Primitive CutOff       TCut            ....  1.000e-13 Eh

Convergence Tolerance:
 Convergence Check Mode ConvCheckMode   .... Total+1el-Energy
 Convergence forced     ConvForced      .... 1
 Energy Change          TolE            ....  1.000e-08 Eh
 1-El. energy change                    ....  1.000e-05 Eh
 Orbital Gradient       TolG            ....  1.000e-05
 Orbital Rotation angle TolX            ....  1.000e-05
 DIIS Error             TolErr          ....  5.000e-07

------------------------------
INITIAL GUESS: MODEL POTENTIAL
------------------------------
Loading Hartree-Fock densities                     ... done
Calculating cut-offs                               ... done
Initializing the effective Hamiltonian             ... done
Setting up the integral package (SHARK)            ... done
Starting the Coulomb interaction                   ... done (   0.1 sec)
Making the grid                                    ... done (   0.3 sec)
Mapping shells                                     ... done
Starting the XC term evaluation                    ... done (   0.1 sec)
  promolecular density results
     # of electrons  =    131.993004735
     EX              =   -113.600423138
     EC              =     -4.508090393
     EX+EC           =   -118.108513532
Transforming the Hamiltonian                       ... done (   0.1 sec)
Diagonalizing the Hamiltonian                      ... done (   0.1 sec)
Back transforming the eigenvectors                 ... done (   0.1 sec)
Now organizing SCF variables                       ... done
                      ------------------
                      INITIAL GUESS DONE (   1.1 sec)
                      ------------------
             **** ENERGY FILE WAS UPDATED (orca.en.tmp) ****
Finished Guess after   3.5 sec
Maximum memory used throughout the entire GUESS-calculation: 72.8 MB
[1741393733.059862] [ohm:1275516:0]        ib_iface.c:1059 UCX  ERROR ibv_create_cq(cqe=256) failed: Connection timed out
[1741393733.063429] [ohm:1275522:0]        ib_iface.c:1059 UCX  ERROR ibv_create_cq(cqe=256) failed: Connection timed out
[1741393733.067636] [ohm:1275519:0]        ib_iface.c:1059 UCX  ERROR ibv_create_cq(cqe=256) failed: Connection timed out
[1741393733.072051] [ohm:1275523:0]        ib_iface.c:1059 UCX  ERROR ibv_create_cq(cqe=256) failed: Connection timed out
[1741393733.072467] [ohm:1275517:0]        ib_iface.c:1059 UCX  ERROR ibv_create_cq(cqe=256) failed: Connection timed out
[1741393733.082432] [ohm:1275521:0]        ib_iface.c:1059 UCX  ERROR ibv_create_cq(cqe=256) failed: Connection timed out
[1741393733.118265] [ohm:1275518:0]        ib_iface.c:1059 UCX  ERROR ibv_create_cq(cqe=256) failed: Connection timed out
[1741393733.122363] [ohm:1275564:0]        ib_iface.c:1059 UCX  ERROR ibv_create_cq(cqe=256) failed: Connection timed out
[1741393733.127149] [ohm:1275534:0]        ib_iface.c:1059 UCX  ERROR ibv_create_cq(cqe=256) failed: Connection timed out
[1741393733.131127] [ohm:1275569:0]        ib_iface.c:1059 UCX  ERROR ibv_create_cq(cqe=256) failed: Connection timed out
[1741393733.133666] [ohm:1275533:0]        ib_iface.c:1059 UCX  ERROR ibv_create_cq(cqe=256) failed: Connection timed out
[1741393733.144128] [ohm:1275590:0]        ib_iface.c:1059 UCX  ERROR ibv_create_cq(cqe=256) failed: Connection timed out
[1741393733.218661] [ohm:1275515:0]        ib_iface.c:1059 UCX  ERROR ibv_create_cq(cqe=256) failed: Connection timed out
[1741393733.227298] [ohm:1275574:0]        ib_iface.c:1059 UCX  ERROR ibv_create_cq(cqe=256) failed: Connection timed out
[1741393733.230926] [ohm:1275657:0]        ib_iface.c:1059 UCX  ERROR ibv_create_cq(cqe=256) failed: Connection timed out
[1741393733.233565] [ohm:1275637:0]        ib_iface.c:1059 UCX  ERROR ibv_create_cq(cqe=256) failed: Connection timed out
[1741393733.235651] [ohm:1275563:0]        ib_iface.c:1059 UCX  ERROR ibv_create_cq(cqe=256) failed: Connection timed out
[1741393733.242456] [ohm:1275630:0]        ib_iface.c:1059 UCX  ERROR ibv_create_cq(cqe=256) failed: Connection timed out
[1741393733.242686] [ohm:1275608:0]        ib_iface.c:1059 UCX  ERROR ibv_create_cq(cqe=256) failed: Connection timed out
[1741393733.249784] [ohm:1275664:0]        ib_iface.c:1059 UCX  ERROR ibv_create_cq(cqe=256) failed: Connection timed out
[1741393733.251073] [ohm:1275610:0]        ib_iface.c:1059 UCX  ERROR ibv_create_cq(cqe=256) failed: Connection timed out
[1741393733.251158] [ohm:1275586:0]        ib_iface.c:1059 UCX  ERROR ibv_create_cq(cqe=256) failed: Connection timed out
[1741393733.256802] [ohm:1275582:0]        ib_iface.c:1059 UCX  ERROR ibv_create_cq(cqe=256) failed: Connection timed out
[1741393733.264421] [ohm:1275604:0]        ib_iface.c:1059 UCX  ERROR ibv_create_cq(cqe=256) failed: Connection timed out
[1741393733.267892] [ohm:1275545:0]        ib_iface.c:1059 UCX  ERROR ibv_create_cq(cqe=256) failed: Connection timed out
[1741393733.274933] [ohm:1275532:0]        ib_iface.c:1059 UCX  ERROR ibv_create_cq(cqe=256) failed: Connection timed out
[1741393733.279130] [ohm:1275577:0]        ib_iface.c:1059 UCX  ERROR ibv_create_cq(cqe=256) failed: Connection timed out
[1741393733.287996] [ohm:1275571:0]        ib_iface.c:1059 UCX  ERROR ibv_create_cq(cqe=256) failed: Connection timed out
[1741393733.302860] [ohm:1275596:0]        ib_iface.c:1059 UCX  ERROR ibv_create_cq(cqe=256) failed: Connection timed out
[1741393733.319168] [ohm:1275561:0]        ib_iface.c:1059 UCX  ERROR ibv_create_cq(cqe=256) failed: Connection timed out
[1741393733.323512] [ohm:1275632:0]        ib_iface.c:1059 UCX  ERROR ibv_create_cq(cqe=256) failed: Connection timed out
[1741393733.328276] [ohm:1275640:0]        ib_iface.c:1059 UCX  ERROR ibv_create_cq(cqe=256) failed: Connection timed out
[1741393733.338489] [ohm:1275622:0]        ib_iface.c:1059 UCX  ERROR ibv_create_cq(cqe=256) failed: Connection timed out
[1741393733.348669] [ohm:1275617:0]        ib_iface.c:1059 UCX  ERROR ibv_create_cq(cqe=256) failed: Connection timed out
[1741393733.349206] [ohm:1275536:0]        ib_iface.c:1059 UCX  ERROR ibv_create_cq(cqe=256) failed: Connection timed out
[1741393733.350599] [ohm:1275635:0]        ib_iface.c:1059 UCX  ERROR ibv_create_cq(cqe=256) failed: Connection timed out
[1741393733.357390] [ohm:1275660:0]        ib_iface.c:1059 UCX  ERROR ibv_create_cq(cqe=256) failed: Connection timed out
[1741393733.358764] [ohm:1275614:0]        ib_iface.c:1059 UCX  ERROR ibv_create_cq(cqe=256) failed: Connection timed out
[1741393733.363061] [ohm:1275580:0]        ib_iface.c:1059 UCX  ERROR ibv_create_cq(cqe=256) failed: Connection timed out
[1741393733.368326] [ohm:1275565:0]        ib_iface.c:1059 UCX  ERROR ibv_create_cq(cqe=256) failed: Connection timed out
[1741393733.370915] [ohm:1275557:0]        ib_iface.c:1059 UCX  ERROR ibv_create_cq(cqe=256) failed: Connection timed out
[1741393733.377685] [ohm:1275554:0]        ib_iface.c:1059 UCX  ERROR ibv_create_cq(cqe=256) failed: Connection timed out
[1741393733.380276] [ohm:1275642:0]        ib_iface.c:1059 UCX  ERROR ibv_create_cq(cqe=256) failed: Connection timed out
[1741393733.383500] [ohm:1275539:0]        ib_iface.c:1059 UCX  ERROR ibv_create_cq(cqe=256) failed: Connection timed out
[1741393733.388865] [ohm:1275537:0]        ib_iface.c:1059 UCX  ERROR ibv_create_cq(cqe=256) failed: Connection timed out
[1741393733.389482] [ohm:1275552:0]        ib_iface.c:1059 UCX  ERROR ibv_create_cq(cqe=256) failed: Connection timed out
[1741393733.390003] [ohm:1275566:0]        ib_iface.c:1059 UCX  ERROR ibv_create_cq(cqe=256) failed: Connection timed out
[1741393733.396919] [ohm:1275578:0]        ib_iface.c:1059 UCX  ERROR ibv_create_cq(cqe=256) failed: Connection timed out
[1741393733.399678] [ohm:1275656:0]        ib_iface.c:1059 UCX  ERROR ibv_create_cq(cqe=256) failed: Connection timed out
[1741393733.400927] [ohm:1275540:0]        ib_iface.c:1059 UCX  ERROR ibv_create_cq(cqe=256) failed: Connection timed out
[1741393733.406060] [ohm:1275600:0]        ib_iface.c:1059 UCX  ERROR ibv_create_cq(cqe=256) failed: Connection timed out
[1741393733.406605] [ohm:1275651:0]        ib_iface.c:1059 UCX  ERROR ibv_create_cq(cqe=256) failed: Connection timed out
[1741393733.409236] [ohm:1275558:0]        ib_iface.c:1059 UCX  ERROR ibv_create_cq(cqe=256) failed: Connection timed out
[1741393733.410416] [ohm:1275649:0]        ib_iface.c:1059 UCX  ERROR ibv_create_cq(cqe=256) failed: Connection timed out
[1741393733.411279] [ohm:1275625:0]        ib_iface.c:1059 UCX  ERROR ibv_create_cq(cqe=256) failed: Connection timed out
[1741393733.411684] [ohm:1275543:0]        ib_iface.c:1059 UCX  ERROR ibv_create_cq(cqe=256) failed: Connection timed out
[1741393733.412126] [ohm:1275541:0]        ib_iface.c:1059 UCX  ERROR ibv_create_cq(cqe=256) failed: Connection timed out
[1741393733.415143] [ohm:1275560:0]        ib_iface.c:1059 UCX  ERROR ibv_create_cq(cqe=256) failed: Connection timed out
[1741393733.415817] [ohm:1275520:0]        ib_iface.c:1059 UCX  ERROR ibv_create_cq(cqe=256) failed: Connection timed out
[1741393733.417970] [ohm:1275535:0]        ib_iface.c:1059 UCX  ERROR ibv_create_cq(cqe=256) failed: Connection timed out
[1741393733.418940] [ohm:1275538:0]        ib_iface.c:1059 UCX  ERROR ibv_create_cq(cqe=256) failed: Connection timed out
[1741393733.419572] [ohm:1275562:0]        ib_iface.c:1059 UCX  ERROR ibv_create_cq(cqe=256) failed: Connection timed out
[1741393733.421626] [ohm:1275548:0]        ib_iface.c:1059 UCX  ERROR ibv_create_cq(cqe=256) failed: Connection timed out
[1741393733.427178] [ohm:1275559:0]        ib_iface.c:1059 UCX  ERROR ibv_create_cq(cqe=256) failed: Connection timed out


           ************************************************************
           *        Program running with 64 parallel MPI-processes    *
           *              working on a common directory               *
           ************************************************************

-------------------------------------------------------------------------------------------
                                      ORCA LEAN-SCF
                              memory conserving SCF solver
-------------------------------------------------------------------------------------------

----------------------------------------D-I-I-S--------------------------------------------
Iteration    Energy (Eh)           Delta-E    RMSDP     MaxDP     DIISErr   Damp  Time(sec)
-------------------------------------------------------------------------------------------
               ***  Starting incremental Fock matrix formation  ***
    1    -908.1214568513319136     0.00e+00  1.72e-03  3.04e-01  1.52e-01  0.700   7.9
    2    -908.3884392864142683    -2.67e-01  1.37e-03  2.23e-01  7.16e-02  0.700   6.6
                               ***Turning on AO-DIIS***
    3    -908.5062315792270056    -1.18e-01  9.78e-04  1.46e-01  2.80e-02  0.700   5.8
    4    -908.5786830124352491    -7.25e-02  2.33e-03  3.13e-01  1.99e-02  0.000   5.7
    5    -908.7414694735771263    -1.63e-01  2.76e-04  5.22e-02  6.79e-03  0.000   5.8
                              *** Initializing SOSCF ***
---------------------------------------S-O-S-C-F--------------------------------------
Iteration    Energy (Eh)           Delta-E    RMSDP     MaxDP     MaxGrad    Time(sec)
--------------------------------------------------------------------------------------
    6    -908.7428091713672984    -1.34e-03  1.30e-04  3.61e-02  2.81e-03     6.5
               *** Restarting incremental Fock matrix formation ***
    7    -908.7434869440371585    -6.78e-04  2.56e-04  3.32e-02  5.42e-03     7.4
    8    -908.7439145455864491    -4.28e-04  2.63e-04  6.79e-02  2.92e-03     6.6
    9    -908.7440869527031282    -1.72e-04  1.29e-04  8.88e-03  1.04e-03     6.7
   10    -908.7441611406511583    -7.42e-05  3.72e-05  9.63e-03  6.11e-04     6.4
   11    -908.7441762810299224    -1.51e-05  1.04e-05  1.63e-03  1.46e-04     6.3
   12    -908.7441792563745366    -2.98e-06  8.05e-06  1.20e-03  1.92e-04     6.0
   13    -908.7441810169075325    -1.76e-06  5.76e-06  1.21e-03  5.67e-05     6.0
   14    -908.7441812467563977    -2.30e-07  1.83e-06  3.95e-04  2.87e-05     6.0
   15    -908.7441812827159993    -3.60e-08  1.68e-06  2.31e-04  1.32e-05     5.6
   16    -908.7441813108994211    -2.82e-08  1.05e-06  2.08e-04  4.88e-06     5.6
   17    -908.7441813533855566    -4.25e-08  1.10e-06  1.75e-04  3.96e-06     5.3
   18    -908.7441812820334235     7.14e-08  1.51e-06  4.11e-04  1.21e-06     5.3
                  *** Gradient check signals convergence ***

               *****************************************************
               *                     SUCCESS                       *
               *           SCF CONVERGED AFTER  18 CYCLES          *
               *****************************************************

Recomputing exchange energy using gridx3       ... done (    7.975 sec)
Old exchange energy                            :    -35.050155206 Eh
New exchange energy                            :    -35.050125563 Eh
Exchange energy change after final integration :      0.000029644 Eh
Total energy after final integration           :   -908.744151638 Eh
             **** ENERGY FILE WAS UPDATED (orca.en.tmp) ****

----------------
TOTAL SCF ENERGY
----------------

Total Energy       :       -908.74415163843582 Eh          -24728.18552 eV

Components:
Nuclear Repulsion  :       1453.25350970617319 Eh           39545.03843 eV
Electronic Energy  :      -2361.99769098820661 Eh          -64273.22476 eV
One Electron Energy:      -4123.13623198914138 Eh         -112196.24082 eV
Two Electron Energy:       1761.13854100093477 Eh           47923.01606 eV

Virial components:
Potential Energy   :      -1814.77410990094177 Eh          -49382.51409 eV
Kinetic Energy     :        906.02995826250594 Eh           24654.32857 eV
Virial Ratio       :          2.00299569937084

DFT components:
N(Alpha)           :       67.000095519074 electrons
N(Beta)            :       65.000078523013 electrons
N(Total)           :      132.000174042086 electrons
E(XC)              :      -86.315872260121 Eh       

---------------
SCF CONVERGENCE
---------------

  Last Energy change         ...   -7.1352e-08  Tolerance :   1.0000e-08
  Last MAX-Density change    ...    4.1117e-04  Tolerance :   1.0000e-07
  Last RMS-Density change    ...    1.5082e-06  Tolerance :   5.0000e-09
  Last DIIS Error            ...    2.8147e-03  Tolerance :   5.0000e-07
  Last Orbital Gradient      ...    1.2111e-06  Tolerance :   1.0000e-05
  Last Orbital Rotation      ...    8.0304e-06  Tolerance :   1.0000e-05


----------------------
UHF SPIN CONTAMINATION
----------------------

Warning: in a DFT calculation there is little theoretical justification to 
         calculate <S**2> as in Hartree-Fock theory. We will do it anyways
         but you should keep in mind that the values have only limited relevance

Expectation value of <S**2>     :     2.016065
Ideal value S*(S+1) for S=1.0   :     2.000000
Deviation                       :     0.016065

----------------
ORBITAL ENERGIES
----------------
                 SPIN UP ORBITALS
  NO   OCC          E(Eh)            E(eV) 
   0   1.0000     -19.337120      -526.1898 
   1   1.0000     -19.333154      -526.0819 
   2   1.0000     -19.326456      -525.8996 
   3   1.0000     -19.322437      -525.7902 
   4   1.0000     -14.570540      -396.4845 
   5   1.0000     -14.570391      -396.4805 
   6   1.0000     -14.567770      -396.4092 
   7   1.0000     -14.560849      -396.2208 
   8   1.0000     -10.511313      -286.0274 
   9   1.0000     -10.510126      -285.9951 
  10   1.0000     -10.485581      -285.3272 
  11   1.0000     -10.477421      -285.1051 
  12   1.0000     -10.452825      -284.4358 
  13   1.0000     -10.441252      -284.1209 
  14   1.0000     -10.418397      -283.4990 
  15   1.0000     -10.418351      -283.4978 
  16   1.0000     -10.372946      -282.2622 
  17   1.0000     -10.367437      -282.1123 
  18   1.0000      -1.239722       -33.7345 
  19   1.0000      -1.225608       -33.3505 
  20   1.0000      -1.190414       -32.3928 
  21   1.0000      -1.182985       -32.1907 
  22   1.0000      -1.129683       -30.7402 
  23   1.0000      -1.111827       -30.2544 
  24   1.0000      -1.079442       -29.3731 
  25   1.0000      -1.067867       -29.0581 
  26   1.0000      -0.988063       -26.8866 
  27   1.0000      -0.955633       -26.0041 
  28   1.0000      -0.893397       -24.3106 
  29   1.0000      -0.847925       -23.0732 
  30   1.0000      -0.830120       -22.5887 
  31   1.0000      -0.812199       -22.1011 
  32   1.0000      -0.798478       -21.7277 
  33   1.0000      -0.784711       -21.3531 
  34   1.0000      -0.708407       -19.2767 
  35   1.0000      -0.704139       -19.1606 
  36   1.0000      -0.699415       -19.0321 
  37   1.0000      -0.682943       -18.5838 
  38   1.0000      -0.661476       -17.9997 
  39   1.0000      -0.646761       -17.5993 
  40   1.0000      -0.624901       -17.0044 
  41   1.0000      -0.604950       -16.4615 
  42   1.0000      -0.601500       -16.3677 
  43   1.0000      -0.590107       -16.0576 
  44   1.0000      -0.578596       -15.7444 
  45   1.0000      -0.578087       -15.7306 
  46   1.0000      -0.568568       -15.4715 
  47   1.0000      -0.565414       -15.3857 
  48   1.0000      -0.558505       -15.1977 
  49   1.0000      -0.554361       -15.0849 
  50   1.0000      -0.546688       -14.8761 
  51   1.0000      -0.544018       -14.8035 
  52   1.0000      -0.531609       -14.4658 
  53   1.0000      -0.522648       -14.2220 
  54   1.0000      -0.505254       -13.7487 
  55   1.0000      -0.501586       -13.6489 
  56   1.0000      -0.481343       -13.0980 
  57   1.0000      -0.435343       -11.8463 
  58   1.0000      -0.423269       -11.5177 
  59   1.0000      -0.416483       -11.3331 
  60   1.0000      -0.411951       -11.2097 
  61   1.0000      -0.407886       -11.0991 
  62   1.0000      -0.395284       -10.7562 
  63   1.0000      -0.392712       -10.6862 
  64   1.0000      -0.380727       -10.3601 
  65   1.0000      -0.345674        -9.4063 
  66   1.0000      -0.327142        -8.9020 
  67   0.0000       0.008290         0.2256 
  68   0.0000       0.028354         0.7715 
  69   0.0000       0.034592         0.9413 
  70   0.0000       0.036045         0.9808 
  71   0.0000       0.054790         1.4909 
  72   0.0000       0.055504         1.5104 
  73   0.0000       0.058052         1.5797 
  74   0.0000       0.062494         1.7005 
  75   0.0000       0.064074         1.7435 
  76   0.0000       0.066490         1.8093 
  77   0.0000       0.068473         1.8632 

                 SPIN DOWN ORBITALS
  NO   OCC          E(Eh)            E(eV) 
   0   1.0000     -19.336966      -526.1856 
   1   1.0000     -19.327354      -525.9240 
   2   1.0000     -19.323067      -525.8074 
   3   1.0000     -19.322338      -525.7876 
   4   1.0000     -14.570282      -396.4775 
   5   1.0000     -14.569338      -396.4518 
   6   1.0000     -14.567757      -396.4088 
   7   1.0000     -14.560377      -396.2080 
   8   1.0000     -10.511350      -286.0284 
   9   1.0000     -10.510185      -285.9967 
  10   1.0000     -10.486863      -285.3620 
  11   1.0000     -10.478220      -285.1269 
  12   1.0000     -10.452598      -284.4296 
  13   1.0000     -10.440811      -284.1089 
  14   1.0000     -10.407382      -283.1993 
  15   1.0000     -10.406985      -283.1885 
  16   1.0000     -10.373550      -282.2786 
  17   1.0000     -10.367949      -282.1262 
  18   1.0000      -1.239260       -33.7220 
  19   1.0000      -1.224064       -33.3085 
  20   1.0000      -1.186683       -32.2913 
  21   1.0000      -1.175748       -31.9937 
  22   1.0000      -1.127026       -30.6679 
  23   1.0000      -1.109487       -30.1907 
  24   1.0000      -1.076899       -29.3039 
  25   1.0000      -1.065851       -29.0033 
  26   1.0000      -0.974888       -26.5281 
  27   1.0000      -0.938141       -25.5281 
  28   1.0000      -0.887734       -24.1565 
  29   1.0000      -0.843638       -22.9566 
  30   1.0000      -0.822482       -22.3809 
  31   1.0000      -0.807627       -21.9767 
  32   1.0000      -0.796876       -21.6841 
  33   1.0000      -0.783025       -21.3072 
  34   1.0000      -0.703162       -19.1340 
  35   1.0000      -0.697323       -18.9751 
  36   1.0000      -0.692295       -18.8383 
  37   1.0000      -0.674751       -18.3609 
  38   1.0000      -0.650645       -17.7049 
  39   1.0000      -0.643530       -17.5113 
  40   1.0000      -0.621405       -16.9093 
  41   1.0000      -0.599116       -16.3028 
  42   1.0000      -0.596454       -16.2304 
  43   1.0000      -0.586235       -15.9523 
  44   1.0000      -0.572871       -15.5886 
  45   1.0000      -0.568337       -15.4652 
  46   1.0000      -0.563833       -15.3427 
  47   1.0000      -0.559501       -15.2248 
  48   1.0000      -0.553551       -15.0629 
  49   1.0000      -0.543408       -14.7869 
  50   1.0000      -0.539880       -14.6909 
  51   1.0000      -0.533193       -14.5089 
  52   1.0000      -0.524446       -14.2709 
  53   1.0000      -0.513066       -13.9612 
  54   1.0000      -0.498835       -13.5740 
  55   1.0000      -0.493758       -13.4358 
  56   1.0000      -0.476238       -12.9591 
  57   1.0000      -0.431166       -11.7326 
  58   1.0000      -0.419258       -11.4086 
  59   1.0000      -0.411192       -11.1891 
  60   1.0000      -0.399387       -10.8679 
  61   1.0000      -0.390385       -10.6229 
  62   1.0000      -0.388295       -10.5660 
  63   1.0000      -0.387288       -10.5386 
  64   1.0000      -0.370751       -10.0887 
  65   0.0000      -0.064465        -1.7542 
  66   0.0000      -0.052933        -1.4404 
  67   0.0000       0.007795         0.2121 
  68   0.0000       0.027917         0.7597 
  69   0.0000       0.034378         0.9355 
  70   0.0000       0.036016         0.9800 
  71   0.0000       0.055075         1.4987 
  72   0.0000       0.057800         1.5728 
  73   0.0000       0.059472         1.6183 
  74   0.0000       0.062672         1.7054 
  75   0.0000       0.063927         1.7395 
*Only the first 10 virtual orbitals were printed.

                    ********************************
                    * MULLIKEN POPULATION ANALYSIS *
                    ********************************

--------------------------------------------
MULLIKEN ATOMIC CHARGES AND SPIN POPULATIONS
--------------------------------------------
   0 O :   -0.736335    0.130482
   1 O :   -0.690485    0.212134
   2 O :   -0.682668    0.003561
   3 O :   -0.591302    0.005318
   4 N :   -0.144775    0.027515
   5 N :   -0.341049    0.036828
   6 N :    0.017837    0.051215
   7 N :    0.078949    0.011724
   8 C :   -0.129115    0.487148
   9 C :   -0.394017    0.378095
  10 C :    0.612236    0.077192
  11 C :    0.796270    0.154396
  12 C :   -1.418293    0.032334
  13 C :   -1.127400    0.066126
  14 C :    0.634332    0.133668
  15 C :    0.358439    0.076928
  16 C :    0.418615   -0.014604
  17 C :    0.376061   -0.000819
  18 H :    0.492355    0.019221
  19 H :    0.563647    0.031258
  20 H :    0.363124    0.016529
  21 H :    0.256227    0.023910
  22 H :    0.357278    0.004857
  23 H :    0.331417    0.008629
  24 H :    0.308766    0.007738
  25 H :    0.125224    0.021948
  26 H :    0.008232    0.000891
  27 H :    0.101371   -0.002530
  28 H :    0.051759   -0.001205
  29 H :    0.003300   -0.000486
Sum of atomic charges         :   -0.0000000
Sum of atomic spin populations:    2.0000000

-----------------------------------------------------
MULLIKEN REDUCED ORBITAL CHARGES AND SPIN POPULATIONS
-----------------------------------------------------
CHARGE
  0 O s       :     4.117483  s :     4.117483
      pz      :     1.522641  p :     4.590924
      px      :     1.524132
      py      :     1.544151
      dz2     :     0.003744  d :     0.026133
      dxz     :     0.008299
      dyz     :     0.008311
      dx2y2   :     0.002589
      dxy     :     0.003191
[...]
[1741394048.355441] [ohm:1278027:0]        ib_iface.c:1059 UCX  ERROR ibv_create_cq(cqe=256) failed: Connection timed out
[1741394048.355567] [ohm:1278114:0]        ib_iface.c:1059 UCX  ERROR ibv_create_cq(cqe=256) failed: Connection timed out
[1741394048.356600] [ohm:1278128:0]        ib_iface.c:1059 UCX  ERROR ibv_create_cq(cqe=256) failed: Connection timed out
[1741394048.358518] [ohm:1278024:0]        ib_iface.c:1059 UCX  ERROR ibv_create_cq(cqe=256) failed: Connection timed out
[1741394048.359169] [ohm:1278153:0]        ib_iface.c:1059 UCX  ERROR ibv_create_cq(cqe=256) failed: Connection timed out
[1741394048.360269] [ohm:1278047:0]        ib_iface.c:1059 UCX  ERROR ibv_create_cq(cqe=256) failed: Connection timed out
[1741394048.360249] [ohm:1278132:0]        ib_iface.c:1059 UCX  ERROR ibv_create_cq(cqe=256) failed: Connection timed out
[1741394048.360749] [ohm:1278120:0]        ib_iface.c:1059 UCX  ERROR ibv_create_cq(cqe=256) failed: Connection timed out
[1741394048.361553] [ohm:1278097:0]        ib_iface.c:1059 UCX  ERROR ibv_create_cq(cqe=256) failed: Connection timed out
[1741394048.361669] [ohm:1278118:0]        ib_iface.c:1059 UCX  ERROR ibv_create_cq(cqe=256) failed: Connection timed out


           ************************************************************
           *        Program running with 64 parallel MPI-processes    *
           *              working on a common directory               *
           ************************************************************

------------------------------------------------------------------------------
                              ORCA PROPERTY CALCULATIONS
------------------------------------------------------------------------------

GBWName                                 ... orca.gbw
Number of atoms                         ...     30
Number of basis functions               ...    882
Max core memory                         ...   1024 MB

Electric properties:
Dipole moment                           ... YES
Quadrupole moment                       ...  NO
Static polarizability (Dipole/Dipole)   ...  NO
Static polarizability (Dipole/Quad.)    ...  NO
Static polarizability (Quad./Quad.)     ...  NO
Static polarizability (Velocity)        ...  NO

Atomic electric properties:
Dipole moment                           ...  NO
Quadrupole moment                       ...  NO
Static polarizability                   ...  NO

Choice of electric origin               ... Center of mass
Position of electric origin             ...    -0.013470    -0.085126    -0.046782

General magnetic properties:
Magnetizability                         ...  NO

EPR properties:
g-Tensor (aka g-matrix)                 ...  NO
Zero-Field splitting spin-orbit         ...  NO
Zero-field splitting spin-spin          ...  NO
Hyperfine couplings                     ...  NO (   0 nuclei)
Quadrupole couplings                    ...  NO (   0 nuclei)
Contact density                         ...  NO (   0 nuclei)

NMR properties:
Chemical shifts                         ...  NO (   0 nuclei)
Spin-rotation constants                 ...  NO (   0 nuclei)
Spin-spin couplings                     ...  NO (   0 nuclei,    0 pairs)

Choice of magnetic origin               ... GIAO
Position of magnetic origin             ...     0.000000     0.000000     0.000000

Properties with geometric perturbations:
SCF Hessian                             ...  NO
IR spectrum                             ...  NO
VCD spectrum                            ...  NO
X-ray spectroscopy properties:
SCF XES/XAS/RIXS spectra                ...  NO


-------------
DIPOLE MOMENT
-------------

Method             : SCF
Type of density    : Electron Density
Multiplicity       :   3
Irrep              :   0
Energy             :  -908.7441516384358238 Eh
Relativity type    : 
Basis              : AO
                                X                 Y                 Z
Electronic contribution:    -10.137410313      -5.762288023       0.167016469
Nuclear contribution   :     11.788601725       6.618637156       1.443226990
                        -----------------------------------------
Total Dipole Moment    :      1.651191411       0.856349132       1.610243459
                        -----------------------------------------
Magnitude (a.u.)       :      2.460213591
Magnitude (Debye)      :      6.253365984



--------------------
Rotational spectrum 
--------------------
 
Rotational constants in cm-1:             0.021986             0.012801             0.012172 
Rotational constants in MHz :           659.116919           383.762730           364.897118 

Dipole components along the rotational axes: 
x,y,z [a.u.] :    -0.277412    -2.239915     0.979016 
x,y,z [Debye]:    -0.705124    -5.693412     2.488462 

 

-------------
DIPOLE MOMENT
-------------

Method             : TDA/CIS
Type of density    : Electron Density
Level              : Relaxed density
State              :   2
Multiplicity       :   3
Irrep              :   0
Energy             :     0.0000000000000000 Eh
Relativity type    : 
Basis              : AO
                                X                 Y                 Z
Electronic contribution:    -10.008169334      -5.737672107       0.222824790
Nuclear contribution   :     11.788601725       6.618637156       1.443226990
                        -----------------------------------------
Total Dipole Moment    :      1.780432390       0.880965049       1.666051780
                        -----------------------------------------
Magnitude (a.u.)       :      2.592637161
Magnitude (Debye)      :      6.589959950



--------------------
Rotational spectrum 
--------------------
 
Rotational constants in cm-1:             0.021986             0.012801             0.012172 
Rotational constants in MHz :           659.116919           383.762730           364.897118 

Dipole components along the rotational axes: 
x,y,z [a.u.] :    -0.346836    -2.352161     1.033833 
x,y,z [Debye]:    -0.881588    -5.978718     2.627796 

 

Dipole moment calculation done in   0.2 sec 

Maximum memory used throughout the entire PROP-calculation: 81.9 MB
[1741394050.728288] [ohm:1278377:0]        ib_iface.c:1059 UCX  ERROR ibv_create_cq(cqe=256) failed: Connection timed out
[1741394050.746050] [ohm:1278372:0]        ib_iface.c:1059 UCX  ERROR ibv_create_cq(cqe=256) failed: Connection timed out
[1741394050.774870] [ohm:1278392:0]        ib_iface.c:1059 UCX  ERROR ibv_create_cq(cqe=256) failed: Connection timed out
[1741394050.780688] [ohm:1278374:0]        ib_iface.c:1059 UCX  ERROR ibv_create_cq(cqe=256) failed: Connection timed out
[1741394050.783217] [ohm:1278376:0]        ib_iface.c:1059 UCX  ERROR ibv_create_cq(cqe=256) failed: Connection timed out
[1741394050.813218] [ohm:1278373:0]        ib_iface.c:1059 UCX  ERROR ibv_create_cq(cqe=256) failed: Connection timed out
[1741394050.814619] [ohm:1278387:0]        ib_iface.c:1059 UCX  ERROR ibv_create_cq(cqe=256) failed: Connection timed out
[1741394050.825745] [ohm:1278375:0]        ib_iface.c:1059 UCX  ERROR ibv_create_cq(cqe=256) failed: Connection timed out
[1741394050.834096] [ohm:1278489:0]        ib_iface.c:1059 UCX  ERROR ibv_create_cq(cqe=256) failed: Connection timed out
[1741394050.835557] [ohm:1278483:0]        ib_iface.c:1059 UCX  ERROR ibv_create_cq(cqe=256) failed: Connection timed out
[1741394050.839732] [ohm:1278378:0]        ib_iface.c:1059 UCX  ERROR ibv_create_cq(cqe=256) failed: Connection timed out
[1741394050.841441] [ohm:1278389:0]        ib_iface.c:1059 UCX  ERROR ibv_create_cq(cqe=256) failed: Connection timed out
[1741394050.842764] [ohm:1278459:0]        ib_iface.c:1059 UCX  ERROR ibv_create_cq(cqe=256) failed: Connection timed out
[1741394050.867925] [ohm:1278500:0]        ib_iface.c:1059 UCX  ERROR ibv_create_cq(cqe=256) failed: Connection timed out
[1741394050.926660] [ohm:1278424:0]        ib_iface.c:1059 UCX  ERROR ibv_create_cq(cqe=256) failed: Connection timed out
[1741394050.926665] [ohm:1278380:0]        ib_iface.c:1059 UCX  ERROR ibv_create_cq(cqe=256) failed: Connection timed out
[1741394050.928997] [ohm:1278379:0]        ib_iface.c:1059 UCX  ERROR ibv_create_cq(cqe=256) failed: Connection timed out
[1741394050.933038] [ohm:1278482:0]        ib_iface.c:1059 UCX  ERROR ibv_create_cq(cqe=256) failed: Connection timed out
[1741394050.940571] [ohm:1278426:0]        ib_iface.c:1059 UCX  ERROR ibv_create_cq(cqe=256) failed: Connection timed out
[1741394050.940803] [ohm:1278413:0]        ib_iface.c:1059 UCX  ERROR ibv_create_cq(cqe=256) failed: Connection timed out
[1741394050.941256] [ohm:1278467:0]        ib_iface.c:1059 UCX  ERROR ibv_create_cq(cqe=256) failed: Connection timed out
[1741394050.948325] [ohm:1278385:0]        ib_iface.c:1059 UCX  ERROR ibv_create_cq(cqe=256) failed: Connection timed out
[1741394050.953028] [ohm:1278438:0]        ib_iface.c:1059 UCX  ERROR ibv_create_cq(cqe=256) failed: Connection timed out
[1741394050.969449] [ohm:1278487:0]        ib_iface.c:1059 UCX  ERROR ibv_create_cq(cqe=256) failed: Connection timed out
[1741394050.973931] [ohm:1278505:0]        ib_iface.c:1059 UCX  ERROR ibv_create_cq(cqe=256) failed: Connection timed out
[1741394050.977175] [ohm:1278383:0]        ib_iface.c:1059 UCX  ERROR ibv_create_cq(cqe=256) failed: Connection timed out
[1741394050.983720] [ohm:1278393:0]        ib_iface.c:1059 UCX  ERROR ibv_create_cq(cqe=256) failed: Connection timed out
[1741394050.990465] [ohm:1278511:0]        ib_iface.c:1059 UCX  ERROR ibv_create_cq(cqe=256) failed: Connection timed out
[1741394050.992503] [ohm:1278514:0]        ib_iface.c:1059 UCX  ERROR ibv_create_cq(cqe=256) failed: Connection timed out
[1741394051.006238] [ohm:1278457:0]        ib_iface.c:1059 UCX  ERROR ibv_create_cq(cqe=256) failed: Connection timed out
[1741394051.019320] [ohm:1278388:0]        ib_iface.c:1059 UCX  ERROR ibv_create_cq(cqe=256) failed: Connection timed out
[1741394051.019383] [ohm:1278492:0]        ib_iface.c:1059 UCX  ERROR ibv_create_cq(cqe=256) failed: Connection timed out
[1741394051.020009] [ohm:1278410:0]        ib_iface.c:1059 UCX  ERROR ibv_create_cq(cqe=256) failed: Connection timed out
[1741394051.023382] [ohm:1278465:0]        ib_iface.c:1059 UCX  ERROR ibv_create_cq(cqe=256) failed: Connection timed out
[1741394051.025577] [ohm:1278496:0]        ib_iface.c:1059 UCX  ERROR ibv_create_cq(cqe=256) failed: Connection timed out
[1741394051.032492] [ohm:1278404:0]        ib_iface.c:1059 UCX  ERROR ibv_create_cq(cqe=256) failed: Connection timed out
[1741394051.035955] [ohm:1278469:0]        ib_iface.c:1059 UCX  ERROR ibv_create_cq(cqe=256) failed: Connection timed out
[1741394051.047739] [ohm:1278474:0]        ib_iface.c:1059 UCX  ERROR ibv_create_cq(cqe=256) failed: Connection timed out
[1741394051.047925] [ohm:1278462:0]        ib_iface.c:1059 UCX  ERROR ibv_create_cq(cqe=256) failed: Connection timed out
[1741394051.050269] [ohm:1278433:0]        ib_iface.c:1059 UCX  ERROR ibv_create_cq(cqe=256) failed: Connection timed out
[1741394051.050527] [ohm:1278507:0]        ib_iface.c:1059 UCX  ERROR ibv_create_cq(cqe=256) failed: Connection timed out
[1741394051.050958] [ohm:1278440:0]        ib_iface.c:1059 UCX  ERROR ibv_create_cq(cqe=256) failed: Connection timed out
[1741394051.057296] [ohm:1278395:0]        ib_iface.c:1059 UCX  ERROR ibv_create_cq(cqe=256) failed: Connection timed out
[1741394051.058827] [ohm:1278421:0]        ib_iface.c:1059 UCX  ERROR ibv_create_cq(cqe=256) failed: Connection timed out
[1741394051.061032] [ohm:1278394:0]        ib_iface.c:1059 UCX  ERROR ibv_create_cq(cqe=256) failed: Connection timed out
[1741394051.064468] [ohm:1278452:0]        ib_iface.c:1059 UCX  ERROR ibv_create_cq(cqe=256) failed: Connection timed out
[1741394051.067031] [ohm:1278391:0]        ib_iface.c:1059 UCX  ERROR ibv_create_cq(cqe=256) failed: Connection timed out
[1741394051.067415] [ohm:1278398:0]        ib_iface.c:1059 UCX  ERROR ibv_create_cq(cqe=256) failed: Connection timed out
[1741394051.075481] [ohm:1278396:0]        ib_iface.c:1059 UCX  ERROR ibv_create_cq(cqe=256) failed: Connection timed out
[1741394051.075696] [ohm:1278401:0]        ib_iface.c:1059 UCX  ERROR ibv_create_cq(cqe=256) failed: Connection timed out
[1741394051.076041] [ohm:1278400:0]        ib_iface.c:1059 UCX  ERROR ibv_create_cq(cqe=256) failed: Connection timed out
[1741394051.080619] [ohm:1278476:0]        ib_iface.c:1059 UCX  ERROR ibv_create_cq(cqe=256) failed: Connection timed out
[1741394051.081836] [ohm:1278397:0]        ib_iface.c:1059 UCX  ERROR ibv_create_cq(cqe=256) failed: Connection timed out
[1741394051.082674] [ohm:1278390:0]        ib_iface.c:1059 UCX  ERROR ibv_create_cq(cqe=256) failed: Connection timed out
[1741394051.087594] [ohm:1278443:0]        ib_iface.c:1059 UCX  ERROR ibv_create_cq(cqe=256) failed: Connection timed out
[1741394051.088118] [ohm:1278495:0]        ib_iface.c:1059 UCX  ERROR ibv_create_cq(cqe=256) failed: Connection timed out
[1741394051.088386] [ohm:1278429:0]        ib_iface.c:1059 UCX  ERROR ibv_create_cq(cqe=256) failed: Connection timed out
[1741394051.088791] [ohm:1278384:0]        ib_iface.c:1059 UCX  ERROR ibv_create_cq(cqe=256) failed: Connection timed out
[1741394051.092017] [ohm:1278382:0]        ib_iface.c:1059 UCX  ERROR ibv_create_cq(cqe=256) failed: Connection timed out
[1741394051.092166] [ohm:1278418:0]        ib_iface.c:1059 UCX  ERROR ibv_create_cq(cqe=256) failed: Connection timed out
[1741394051.092202] [ohm:1278386:0]        ib_iface.c:1059 UCX  ERROR ibv_create_cq(cqe=256) failed: Connection timed out
[1741394051.094743] [ohm:1278450:0]        ib_iface.c:1059 UCX  ERROR ibv_create_cq(cqe=256) failed: Connection timed out
[1741394051.095088] [ohm:1278399:0]        ib_iface.c:1059 UCX  ERROR ibv_create_cq(cqe=256) failed: Connection timed out
[1741394051.095671] [ohm:1278381:0]        ib_iface.c:1059 UCX  ERROR ibv_create_cq(cqe=256) failed: Connection timed out

--------------------------------
SUGGESTED CITATIONS FOR THIS RUN
--------------------------------

Below you find a list of papers that are relevant to this ORCA run
We neither can nor want to force you to cite these papers, but we appreciate if you do
You receive ORCA, which is the product of decades of hard work by many enthusiastic individuals, for free
The only thing we kindly ask in return is that you cite our papers,
We deeply appreciate it, if you show your appreciation for ORCA by not just citing the generic ORCA reference.

Please note that relegating all ORCA citations to the supporting information does *not* help us.
SI sections are not indexed - citations you put there will not count into any citation statistics
But we need these citations in order to attract the funding resources that allow us to do what we are doing

Therefore, if you are a happy ORCA user, please consider citing a few of the papers listed below in the main body of your paper

In addition to the list printed below, the program has created the file orca.bibtex that contains the list in bibtex format
You can import this file easily into all common literature databanks and citation aid programs


List of essential papers. We consider these as the minimum necessary citations

  1. Neese,F.
     Software update: the ORCA program system, version 5.0
     WIRES Comput. Molec. Sci., 2022 12(1)e1606
     doi.org/10.1002/wcms.1606

List of papers to cite with high priority. The work reported in these papers was absolutely
necessary for this run to complete.
Our perspective: the developers of density functionals and basis sets usually get cited in chemistry papers
Good! But without the algorithms to do something with them, the functionals or basis sets would not do anything.
Hence, in our opinion, the algorithm design and method developments papers are equally worthy of getting cited

  1. Neese,F.; Olbrich,G.
     Efficient use of the resolution of the identity approximation in time-dependent density functional calculations with hybrid density functionals
     Chem. Phys. Lett., 2002 362 170-178
     doi.org/10.1016/s0009-2614(02)01053-9
  2. Neese,F.
     An improvement of the resolution of the identity approximation for the formation of the Coulomb matrix
     J. Comp. Chem., 2003 24(14)1740-1747
     doi.org/10.1002/jcc.10318
  3. Neese,F.; Wennmohs,F.; Hansen,A.; Becker,U.
     Efficient, approximate and parallel Hartree-Fock and hybrid DFT calculations. A 'chain-of-spheres' algorithm for the Hartree-Fock exchange
     Chem. Phys., 2009 356(1-3)98-109
     doi.org/10.1016/j.chemphys.2008.10.036
  4. Petrenko,T.; Kossmann,S.; Neese,F.
     Efficient time-dependent density functional theory approximations for hybrid density functionals: Analytical gradients and parallelization
     J. Chem. Phys., 2011 134 054116
     doi.org/10.1063/1.3533441
  5. Helmich-Paris,B.; de Souza,B.; Neese,F.; Izsák,R.
     An improved chain of spheres for exchange algorithm
     J. Chem. Phys., 2021 155 104109
     doi.org/doi: 10.1063/5.0058766.
  6. Neese,F.
     The SHARK Integral Generation and Digestion System
     J. Comp. Chem., 2022  1-16
     doi.org/10.1002/jcc.26942
  7. Lehtola,S.; Steigemann,C.; Oliveira,M.; Marques,M.
     Recent developments in Libxc - A comprehensive library of functionals for density functional theory
     Software X, 2018 7 
     doi.org/10.1016/j.softx.2017.11.002
  8. Grimme,S.; Antony,J.; Ehrlich,S.; Krieg,H.
     A consistent and accurate ab initio parametrization of density functional dispersion correction (DFT-D) for the 94 elements H-Pu
     J. Chem. Phys., 2010 132 154104-XXXX
     doi.org/10.1063/1.3382344
  9. Grimme,S.; Ehrlich,S.; Goerigk,L.
     Effect of the damping function in dispersion corrected density functional theory
     J. Comput. Chem., 2011 32(7)1456-1465
     doi.org/10.1002/jcc.21759

List of suggested additional citations. These are papers that are important in the 'surrounding' of 
of this run, or papers that preceded the highly important papers. If you like your results we are grateful for a citation.

  1. Izsak,R.; Neese,F.
     An overlap fitted chain of spheres exchange method
     J. Chem. Phys., 2011 135 144105
     doi.org/10.1063/1.3646921
  2. Izsak,R.; Hansen,A.; Neese,F.
     The resolution of identity and chain of spheres approximations for the LPNO-CCSD singles Fock term
     Molec. Phys., 2012 110 2413-2417
     doi.org/10.1080/00268976.2012.687466
  3. Neese,F.
     The ORCA program system
     WIRES Comput. Molec. Sci., 2012 2(1)73-78
     doi.org/10.1002/wcms.81
  4. Izsak,R.; Neese,F.; Klopper,W.
     Robust fitting techniques in the chain of spheres approximation to the Fock exchange: The role of the complementary space
     J. Chem. Phys., 2013 139 
     doi.org/10.1063/1.4819264
  5. Neese,F.
     Software update: the ORCA program system, version 4.0
     WIRES Comput. Molec. Sci., 2018 8(1)1-6
     doi.org/10.1002/wcms.1327
  6. Neese,F.; Wennmohs,F.; Becker,U.; Riplinger,C.
     The ORCA quantum chemistry program package
     J. Chem. Phys., 2020 152 Art. No. L224108
     doi.org/10.1063/5.0004608

List of optional additional citations

  1. Neese,F.
     Approximate second-order SCF convergence for spin unrestricted wavefunctions
     Chem. Phys. Lett., 2000 325(1-3)93-98
     doi.org/10.1016/s0009-2614(00)00662-x

Timings for individual modules:

Sum of individual times          ...      328.130 sec (=   5.469 min)
Startup calculation              ...        6.290 sec (=   0.105 min)   1.9 %
SCF iterations                   ...      129.324 sec (=   2.155 min)  39.4 %
Property integrals               ...        4.256 sec (=   0.071 min)   1.3 %
Property calculations            ...        2.875 sec (=   0.048 min)   0.9 %
CIS module                       ...      185.385 sec (=   3.090 min)  56.5 %
                             ****ORCA TERMINATED NORMALLY****
TOTAL RUN TIME: 0 days 0 hours 5 minutes 30 seconds 168 msec
