
                                 *****************
                                 * O   R   C   A *
                                 *****************

                                            #,                                       
                                            ###                                      
                                            ####                                     
                                            #####                                    
                                            ######                                   
                                           ########,                                 
                                     ,,################,,,,,                         
                               ,,#################################,,                 
                          ,,##########################################,,             
                       ,#########################################, ''#####,          
                    ,#############################################,,   '####,        
                  ,##################################################,,,,####,       
                ,###########''''           ''''###############################       
              ,#####''   ,,,,##########,,,,          '''####'''          '####       
            ,##' ,,,,###########################,,,                        '##       
           ' ,,###''''                  '''############,,,                           
         ,,##''                                '''############,,,,        ,,,,,,###''
      ,#''                                            '''#######################'''  
     '                                                          ''''####''''         
             ,#######,   #######,   ,#######,      ##                                
            ,#'     '#,  ##    ##  ,#'     '#,    #''#        ,####,   ,####,        
            ##       ##  ##   ,#'  ##            #'  '#       #'       #'  '#        
            ##       ##  #######   ##           ,######,      #####,   #    #        
            '#,     ,#'  ##    ##  '#,     ,#' ,#      #,     #,   #   #,  ,#        
             '#######'   ##     ##  '#######'  #'      '#     '####' # '####'        



                #########################################################
                #                        -***-                          #
                #          Department of theory and spectroscopy        #
                #                                                       #
                #                      Frank Neese                      #
                #                                                       #
                #     Directorship, Architecture, Infrastructure        #
                #                    SHARK, DRIVERS                     #
                #        Core code/Algorithms in most modules           #
                #                                                       #
                #        Max Planck Institute fuer Kohlenforschung      #
                #                Kaiser Wilhelm Platz 1                 #
                #                 D-45470 Muelheim/Ruhr                 #
                #                      Germany                          #
                #                                                       #
                #                  All rights reserved                  #
                #                        -***-                          #
                #########################################################


                         Program Version 6.0.0  -   RELEASE  -


 With contributions from (in alphabetic order):
   Daniel Aravena         : Magnetic Suceptibility
   Michael Atanasov       : Ab Initio Ligand Field Theory (pilot matlab implementation)
   Alexander A. Auer      : GIAO ZORA, VPT2 properties, NMR spectrum
   Ute Becker             : All parallelization in ORCA, NUMFREQ, NUMCALC
   Giovanni Bistoni       : ED, misc. LED, open-shell LED, HFLD
   Martin Brehm           : Molecular dynamics
   Dmytro Bykov           : pre 5.0 version of the SCF Hessian
   Marcos Casanova-Páez   : Triplet and SCS-CIS(D). UHF-(DLPNO)-IP/EA/STEOM-CCSD. UHF-CVS-IP/STEOM-CCSD
   Vijay G. Chilkuri      : MRCI spin determinant printing, contributions to CSF-ICE
   Pauline Colinet        : FMM embedding
   Dipayan Datta          : RHF DLPNO-CCSD density
   Achintya Kumar Dutta   : EOM-CC, STEOM-CC
   Nicolas Foglia         : Exact transition moments, OPA infrastructure, MCD improvements
   Dmitry Ganyushin       : Spin-Orbit,Spin-Spin,Magnetic field MRCI
   Miquel Garcia          : C-PCM and meta-GGA Hessian, CCSD/C-PCM, Gaussian charge scheme
   Tiago L. C. Gouveia    : GS-ROHF, GS-ROCIS
   Yang Guo               : DLPNO-NEVPT2, F12-NEVPT2, CIM, IAO-localization
   Andreas Hansen         : Spin unrestricted coupled pair/coupled cluster methods
   Ingolf Harden          : AUTO-CI MPn and infrastructure 
   Benjamin Helmich-Paris : MC-RPA, TRAH-(SCF,CASSCF), AVAS, COSX integrals, SCF dyn. polar.
   Lee Huntington         : MR-EOM, pCC
   Robert Izsak           : Overlap fitted RIJCOSX, COSX-SCS-MP3, EOM
   Riya Kayal             : Wick's Theorem for AUTO-CI, AUTO-CI UHF-CCSDT
   Emily Kempfer          : AUTO-CI, RHF CISDT and CCSDT
   Christian Kollmar      : KDIIS, OOCD, Brueckner-CCSD(T), CCSD density, CASPT2, CASPT2-K, improved NEVPT2
   Axel Koslowski         : Symmetry handling
   Simone Kossmann        : Meta GGA functionals, TD-DFT gradient, OOMP2, (MP2 Hessian; deprecated post 5.0)
   Lucas Lang             : DCDCAS
   Marvin Lechner         : AUTO-CI (C++ implementation), FIC-MRCC
   Spencer Leger          : CASSCF response
   Dagmar Lenk            : GEPOL surface, SMD, ORCA-2-JSON
   Dimitrios Liakos       : Extrapolation schemes; Compound Job, initial MDCI parallelization
   Dimitrios Manganas     : Further ROCIS development; embedding schemes. LFT, Crystal Embedding
   Dimitrios Pantazis     : SARC Basis sets
   Anastasios Papadopoulos: AUTO-CI, single reference methods and gradients
   Taras Petrenko         : pre 6.0 DFT Hessian and TD-DFT gradient, (ASA, deprecated), ECA, 1-Electron XAS/XES, NRVS
   Peter Pinski           : DLPNO-MP2, DLPNO-MP2 Gradient
   Christoph Reimann      : Effective Core Potentials
   Marius Retegan         : Local ZFS, SOC
   Christoph Riplinger    : Optimizer, TS searches, QM/MM, DLPNO-CCSD(T), (RO)-DLPNO pert. Triples
   Michael Roemelt        : Original ROCIS implementation
   Masaaki Saitow         : Open-shell DLPNO-CCSD energy and density
   Barbara Sandhoefer     : DKH picture change effects
   Kantharuban Sivalingam : CASSCF convergence/infrastructure, NEVPT2 and variants, FIC-MRCI
   Bernardo de Souza      : ESD, SOC TD-DFT
   Georgi Stoychev        : AutoAux, RI-MP2 NMR, DLPNO-MP2 response, X2C
   Van Anh Tran           : RI-MP2 g-tensors
   Willem Van den Heuvel  : Paramagnetic NMR
   Zikuan Wang            : NOTCH, Electric field optimization 
   Frank Wennmohs         : Technical directorship and infrastructure
   Hang Xu                : AUTO-CI-Response properties 


 We gratefully acknowledge several colleagues who have allowed us to
 interface, adapt or use parts of their codes:
   Stefan Grimme, W. Hujo, H. Kruse, P. Pracht,  : VdW corrections, initial TS optimization,
                  C. Bannwarth, S. Ehlert,         DFT functionals, gCP, sTDA/sTD-DF
                  L. Wittmann, M. Mueller
   Ed Valeev, F. Pavosevic, A. Kumar             : LibInt (2-el integral package), F12 methods
   Garnet Chan, S. Sharma, J. Yang, R. Olivares  : DMRG
   Ulf Ekstrom                                   : XCFun DFT Library
   Mihaly Kallay                                 : mrcc  (arbitrary order and MRCC methods)
   Frank Weinhold                                : gennbo (NPA and NBO analysis)
   Simon Mueller                                 : openCOSMO-RS
   Christopher J. Cramer and Donald G. Truhlar   : smd solvation model
   Lars Goerigk                                  : TD-DFT with DH, B97 family of functionals
   V. Asgeirsson, H. Jonsson                     : NEB implementation
   FAccTs GmbH                                   : IRC, NEB, NEB-TS, DLPNO-Multilevel, CI-OPT
                                                   MM, QMMM, 2- and 3-layer-ONIOM, Crystal-QMMM,
                                                   LR-CPCM, SF, NACMEs, symmetry and pop. for TD-DFT,
                                                   nearIR, NL-DFT gradient (VV10), updates on ESD,
                                                   ML-optimized integration grids, MBIS, APM,
                                                   GOAT, DOCKER, SOLVATOR, interface openCOSMO-RS
   S Lehtola, MJT Oliveira, MAL Marques          : LibXC Library
   Liviu Ungur et al                             : ANISO software


 Your calculation uses the libint2 library for the computation of 2-el integrals
 For citations please refer to: http://libint.valeyev.net

 Your ORCA version has been built with support for libXC version: 6.2.2
 For citations please refer to: https://libxc.gitlab.io

 This ORCA versions uses:
   CBLAS   interface :  Fast vector & matrix operations
   LAPACKE interface :  Fast linear algebra routines
   SCALAPACK package :  Parallel linear algebra routines
   Shared memory     :  Shared parallel matrices
   BLAS/LAPACK       :  OpenBLAS 0.3.27  USE64BITINT DYNAMIC_ARCH NO_AFFINITY Zen SINGLE_THREADED
        Core in use  :  Zen
   Copyright (c) 2011-2014, The OpenBLAS Project


Your calculation utilizes the atom-pairwise dispersion correction
with the Becke-Johnson damping scheme (D3BJ)


Warning: RI is on but no J-basis has been assigned. Assigning Def2/J (nothing to worry about!)
================================================================================

----- Orbital basis set information -----
Your calculation utilizes the basis: def2-TZVPPD
   F. Weigend and R. Ahlrichs, Phys. Chem. Chem. Phys. 7, 3297 (2005).
   D. Rappoport and F. Furche, J. Chem. Phys. 133, 134105 (2010)
   D. Rappoport, J. Chem. Phys. 155, 124102 (2021).

----- AuxJ basis set information -----
Your calculation utilizes the auxiliary basis: def2/J
   F. Weigend, Phys. Chem. Chem. Phys. 8, 1057 (2006).

================================================================================
                                        WARNINGS
                       Please study these warnings very carefully!
================================================================================

Using LibXC functional ID 531 : wB97M-V exchange-correlation functional
[ 1]  N. Mardirossian and M. Head-Gordon.,  J. Chem. Phys. 144, 214110 (2016)
Using LibXC functional ID 531 : wB97M-V exchange-correlation functional
[ 1]  N. Mardirossian and M. Head-Gordon.,  J. Chem. Phys. 144, 214110 (2016)

WARNING: B97M-V or wB97M-V functional requested.
  ===> : libXC variant has now been activated.
         Any manually given DFX/HFX/RangeSep scaling parameters are IGNORED!

Your calculation utilizes LibXC
 by S Lehtola, C Steigemann, MJT Oliveira & MAL Marques
Please cite in your paper:
 S Lehtola, C Steigemann, MJT Oliveira & MAL Marques, SoftwareX, 7, (2018), 1.
   


WARNING: your system is open-shell and RHF/RKS was chosen
  ===> : WILL SWITCH to UHF/UKS

INFO   : Checking CIS options ...

WARNING: CIS/ROCIS methods need fully converged wavefunctions
  ===> : Setting SCFConvForced true
         You can overwrite this default with %scf ConvForced false 


================================================================================
                                       INPUT FILE
================================================================================
NAME = orca.inp
|  1> ! Engrad def2-TZVPPD wB97M-D3BJ 
|  2> %pal nprocs 8 end%pal nprocs 64 end 
|  3> %tddft 
|  4>  Iroot 1 Nroots 3 
|  5> sf true 
|  6> end 
|  7> *xyz 0 3 
|  8> O   3.5899738 0.28183901 0.54106094
|  9> O   -0.7346114 0.94979794 -2.85627489
| 10> O   0.58580048 -2.79471237 -0.98614875
| 11> O   -3.90945016 -0.72178543 -0.00310817
| 12> N   -0.00910889 -1.4603499 0.71781869
| 13> N   -2.18927034 0.49414013 0.7782815
| 14> N   2.11830256 -1.28207263 -0.22158236
| 15> N   -2.07891851 -0.21391978 -1.3693552
| 16> C   1.50825252 0.27287503 1.58625099
| 17> C   -0.37714701 1.34032389 -0.60162816
| 18> C   0.08304369 -0.25716163 1.47459808
| 19> C   -0.77189515 0.81280474 0.77640489
| 20> C   1.83392874 1.40464914 2.491875
| 21> C   0.77650185 2.22154066 -0.88149037
| 22> C   2.48242727 -0.24169552 0.55948283
| 23> C   -1.03023126 0.69328546 -1.68562519
| 24> C   0.832884 -1.87446254 -0.24150359
| 25> C   -2.81522581 -0.20905261 -0.14811654
| 26> H   -0.34278305 -0.32203971 2.50686204
| 27> H   -0.72245058 1.71414048 1.45285317
| 28> H   2.60829371 2.00179467 2.07606523
| 29> H   0.92205899 1.89537937 2.78483304
| 30> H   2.27063417 1.02693196 3.42034107
| 31> H   1.69512371 1.68263421 -1.22100247
| 32> H   0.59957448 3.01859253 -1.62439176
| 33> H   1.1195951 2.72001159 -0.04285704
| 34> H   -0.90533786 -1.84743068 0.50398199
| 35> H   -2.67065846 0.43150139 1.65150623
| 36> H   2.78696701 -1.62768869 -0.79642799
| 37> H   -2.31916403 -0.8700351 -2.14895883
| 38> *
| 39> 
| 40>                          ****END OF INPUT****
================================================================================

                     *******************************
                     * Energy+Gradient Calculation *
                     *******************************

---------------------------------
CARTESIAN COORDINATES (ANGSTROEM)
---------------------------------
  O      3.589974    0.281839    0.541061
  O     -0.734611    0.949798   -2.856275
  O      0.585800   -2.794712   -0.986149
  O     -3.909450   -0.721785   -0.003108
  N     -0.009109   -1.460350    0.717819
  N     -2.189270    0.494140    0.778281
  N      2.118303   -1.282073   -0.221582
  N     -2.078919   -0.213920   -1.369355
  C      1.508253    0.272875    1.586251
  C     -0.377147    1.340324   -0.601628
  C      0.083044   -0.257162    1.474598
  C     -0.771895    0.812805    0.776405
  C      1.833929    1.404649    2.491875
  C      0.776502    2.221541   -0.881490
  C      2.482427   -0.241696    0.559483
  C     -1.030231    0.693285   -1.685625
  C      0.832884   -1.874463   -0.241504
  C     -2.815226   -0.209053   -0.148117
  H     -0.342783   -0.322040    2.506862
  H     -0.722451    1.714140    1.452853
  H      2.608294    2.001795    2.076065
  H      0.922059    1.895379    2.784833
  H      2.270634    1.026932    3.420341
  H      1.695124    1.682634   -1.221002
  H      0.599574    3.018593   -1.624392
  H      1.119595    2.720012   -0.042857
  H     -0.905338   -1.847431    0.503982
  H     -2.670658    0.431501    1.651506
  H      2.786967   -1.627689   -0.796428
  H     -2.319164   -0.870035   -2.148959

----------------------------
CARTESIAN COORDINATES (A.U.)
----------------------------
  NO LB      ZA    FRAG     MASS         X           Y           Z
   0 O     8.0000    0    15.999    6.784067    0.532599    1.022457
   1 O     8.0000    0    15.999   -1.388214    1.794858   -5.397577
   2 O     8.0000    0    15.999    1.107002   -5.281241   -1.863551
   3 O     8.0000    0    15.999   -7.387790   -1.363977   -0.005874
   4 N     7.0000    0    14.007   -0.017213   -2.759661    1.356481
   5 N     7.0000    0    14.007   -4.137121    0.933790    1.470739
   6 N     7.0000    0    14.007    4.003012   -2.422766   -0.418730
   7 N     7.0000    0    14.007   -3.928587   -0.404250   -2.587706
   8 C     6.0000    0    12.011    2.850184    0.515659    2.997580
   9 C     6.0000    0    12.011   -0.712705    2.532845   -1.136912
  10 C     6.0000    0    12.011    0.156930   -0.485965    2.786587
  11 C     6.0000    0    12.011   -1.458670    1.535978    1.467193
  12 C     6.0000    0    12.011    3.465623    2.654402    4.708961
  13 C     6.0000    0    12.011    1.467376    4.198103   -1.665775
  14 C     6.0000    0    12.011    4.691108   -0.456738    1.057269
  15 C     6.0000    0    12.011   -1.946855    1.310120   -3.185370
  16 C     6.0000    0    12.011    1.573923   -3.542221   -0.456376
  17 C     6.0000    0    12.011   -5.320006   -0.395052   -0.279900
  18 H     1.0000    0     1.008   -0.647766   -0.608567    4.737283
  19 H     1.0000    0     1.008   -1.365234    3.239256    2.745495
  20 H     1.0000    0     1.008    4.928961    3.782844    3.923195
  21 H     1.0000    0     1.008    1.742439    3.581748    5.262572
  22 H     1.0000    0     1.008    4.290877    1.940620    6.463508
  23 H     1.0000    0     1.008    3.203320    3.179718   -2.307360
  24 H     1.0000    0     1.008    1.133032    5.704313   -3.069656
  25 H     1.0000    0     1.008    2.115728    5.140077   -0.080988
  26 H     1.0000    0     1.008   -1.710841   -3.491138    0.952388
  27 H     1.0000    0     1.008   -5.046813    0.815419    3.120894
  28 H     1.0000    0     1.008    5.266604   -3.075886   -1.505031
  29 H     1.0000    0     1.008   -4.382585   -1.644128   -4.060944

--------------------------------
INTERNAL COORDINATES (ANGSTROEM)
--------------------------------
 O      0   0   0     0.000000000000     0.00000000     0.00000000
 O      1   0   0     5.539864350869     0.00000000     0.00000000
 O      2   1   0     4.388874203489    53.19900330     0.00000000
 O      2   1   3     4.584141407829    96.60285549    56.68817289
 N      3   2   1     2.244536788836    74.72402983    63.48798815
 N      4   2   1     2.246789575590    59.26123212    36.43466460
 N      1   2   3     2.278872672925    51.19974755     0.70683143
 N      6   4   2     2.264038373730    62.49449879   348.17364777
 C      1   2   3     2.329391783527    65.03894865   284.22674626
 C      2   1   3     2.315971326429    45.79951820   100.05649157
 C      5   3   2     1.424383781217   152.66923733   302.93113094
 C      6   4   2     1.452757063159   149.90902932   316.82204889
 C      9   1   2     1.485642111623    94.28277138   237.58534510
 C     10   2   1     1.478435505693    92.10112869    56.48035969
 C      1   2   3     1.225188592115    49.83945851   322.47912397
 C      2   1   3     1.234346172730    65.18396560    69.21170901
 C      3   2   1     1.209299975102    71.01015147    32.25641498
 C      4   2   1     1.217065856972    31.74008918    23.23674039
 H     11   5   3     1.118528703645   114.62650547   198.03954174
 H     12   6   4     1.128021789337   102.54825336   173.82801017
 H     13   9   1     1.062601362501   110.44597715    23.77462953
 H     13   9   1     1.076172389909   109.12173347   154.89259130
 H     13   9   1     1.093357738254   110.00070555   270.00823180
 H     14  10   2     1.117834848968   114.29248396   286.92836777
 H     14  10   2     1.103855721093   115.63965112    50.41978832
 H     14  10   2     1.034162515487   113.12067252   170.91970560
 H      5   3   2     0.999391830655    81.08293977    85.70584930
 H      6   4   2     0.999089366828    84.32662485   173.63366411
 H      7   1   2     0.947106174594    89.86357600   106.50632941
 H      8   6   4     1.046893997942   153.02620003   334.21765155

---------------------------
INTERNAL COORDINATES (A.U.)
---------------------------
 O      0   0   0     0.000000000000     0.00000000     0.00000000
 O      1   0   0    10.468826442216     0.00000000     0.00000000
 O      2   1   0     8.293770280826    53.19900330     0.00000000
 O      2   1   3     8.662771819965    96.60285549    56.68817289
 N      3   2   1     4.241559828411    74.72402983    63.48798815
 N      4   2   1     4.245816978414    59.26123212    36.43466460
 N      1   2   3     4.306445245906    51.19974755     0.70683143
 N      6   4   2     4.278412483038    62.49449879   348.17364777
 C      1   2   3     4.401912529472    65.03894865   284.22674626
 C      2   1   3     4.376551540965    45.79951820   100.05649157
 C      5   3   2     2.691695256100   152.66923733   302.93113094
 C      6   4   2     2.745312988491   149.90902932   316.82204889
 C      9   1   2     2.807456723988    94.28277138   237.58534510
 C     10   2   1     2.793838212426    92.10112869    56.48035969
 C      1   2   3     2.315270901502    49.83945851   322.47912397
 C      2   1   3     2.332576220913    65.18396560    69.21170901
 C      3   2   1     2.285245766701    71.01015147    32.25641498
 C      4   2   1     2.299921156624    31.74008918    23.23674039
 H     11   5   3     2.113712922820   114.62650547   198.03954174
 H     12   6   4     2.131652254943   102.54825336   173.82801017
 H     13   9   1     2.008025564659   110.44597715    23.77462953
 H     13   9   1     2.033671089815   109.12173347   154.89259130
 H     13   9   1     2.066146691704   110.00070555   270.00823180
 H     14  10   2     2.112401727503   114.29248396   286.92836777
 H     14  10   2     2.085985004228   115.63965112    50.41978832
 H     14  10   2     1.954283932237   113.12067252   170.91970560
 H      5   3   2     1.888576860416    81.08293977    85.70584930
 H      6   4   2     1.888005286618    84.32662485   173.63366411
 H      7   1   2     1.789771289728    89.86357600   106.50632941
 H      8   6   4     1.978342947357   153.02620003   334.21765155

---------------------
BASIS SET INFORMATION
---------------------
There are 4 groups of distinct atoms

 Group   1 Type O   : 12s7p3d1f contracted to 6s4p3d1f pattern {621111/4111/111/1}
 Group   2 Type N   : 12s6p3d1f contracted to 6s3p3d1f pattern {621111/411/111/1}
 Group   3 Type C   : 12s6p3d1f contracted to 6s3p3d1f pattern {621111/411/111/1}
 Group   4 Type H   : 5s3p1d contracted to 3s3p1d pattern {311/111/1}

Atom   0O    basis set group =>   1
Atom   1O    basis set group =>   1
Atom   2O    basis set group =>   1
Atom   3O    basis set group =>   1
Atom   4N    basis set group =>   2
Atom   5N    basis set group =>   2
Atom   6N    basis set group =>   2
Atom   7N    basis set group =>   2
Atom   8C    basis set group =>   3
Atom   9C    basis set group =>   3
Atom  10C    basis set group =>   3
Atom  11C    basis set group =>   3
Atom  12C    basis set group =>   3
Atom  13C    basis set group =>   3
Atom  14C    basis set group =>   3
Atom  15C    basis set group =>   3
Atom  16C    basis set group =>   3
Atom  17C    basis set group =>   3
Atom  18H    basis set group =>   4
Atom  19H    basis set group =>   4
Atom  20H    basis set group =>   4
Atom  21H    basis set group =>   4
Atom  22H    basis set group =>   4
Atom  23H    basis set group =>   4
Atom  24H    basis set group =>   4
Atom  25H    basis set group =>   4
Atom  26H    basis set group =>   4
Atom  27H    basis set group =>   4
Atom  28H    basis set group =>   4
Atom  29H    basis set group =>   4
---------------------------------
AUXILIARY/J BASIS SET INFORMATION
---------------------------------
There are 4 groups of distinct atoms

 Group   1 Type O   : 12s5p4d2f1g contracted to 6s4p3d1f1g pattern {711111/2111/211/2/1}
 Group   2 Type N   : 12s5p4d2f1g contracted to 6s4p3d1f1g pattern {711111/2111/211/2/1}
 Group   3 Type C   : 12s5p4d2f1g contracted to 6s4p3d1f1g pattern {711111/2111/211/2/1}
 Group   4 Type H   : 5s2p1d contracted to 3s1p1d pattern {311/2/1}

Atom   0O    basis set group =>   1
Atom   1O    basis set group =>   1
Atom   2O    basis set group =>   1
Atom   3O    basis set group =>   1
Atom   4N    basis set group =>   2
Atom   5N    basis set group =>   2
Atom   6N    basis set group =>   2
Atom   7N    basis set group =>   2
Atom   8C    basis set group =>   3
Atom   9C    basis set group =>   3
Atom  10C    basis set group =>   3
Atom  11C    basis set group =>   3
Atom  12C    basis set group =>   3
Atom  13C    basis set group =>   3
Atom  14C    basis set group =>   3
Atom  15C    basis set group =>   3
Atom  16C    basis set group =>   3
Atom  17C    basis set group =>   3
Atom  18H    basis set group =>   4
Atom  19H    basis set group =>   4
Atom  20H    basis set group =>   4
Atom  21H    basis set group =>   4
Atom  22H    basis set group =>   4
Atom  23H    basis set group =>   4
Atom  24H    basis set group =>   4
Atom  25H    basis set group =>   4
Atom  26H    basis set group =>   4
Atom  27H    basis set group =>   4
Atom  28H    basis set group =>   4
Atom  29H    basis set group =>   4
[1741104266.935746] [ohm:836478:0]        ib_iface.c:1059 UCX  ERROR ibv_create_cq(cqe=256) failed: Connection timed out
[1741104266.945443] [ohm:836480:0]        ib_iface.c:1059 UCX  ERROR ibv_create_cq(cqe=256) failed: Connection timed out
[1741104266.954017] [ohm:836481:0]        ib_iface.c:1059 UCX  ERROR ibv_create_cq(cqe=256) failed: Connection timed out
[1741104266.985259] [ohm:836484:0]        ib_iface.c:1059 UCX  ERROR ibv_create_cq(cqe=256) failed: Connection timed out
[1741104266.988129] [ohm:836479:0]        ib_iface.c:1059 UCX  ERROR ibv_create_cq(cqe=256) failed: Connection timed out
[1741104266.989660] [ohm:836490:0]        ib_iface.c:1059 UCX  ERROR ibv_create_cq(cqe=256) failed: Connection timed out
[1741104267.003034] [ohm:836483:0]        ib_iface.c:1059 UCX  ERROR ibv_create_cq(cqe=256) failed: Connection timed out
[1741104267.034781] [ohm:836498:0]        ib_iface.c:1059 UCX  ERROR ibv_create_cq(cqe=256) failed: Connection timed out
[1741104267.040407] [ohm:836482:0]        ib_iface.c:1059 UCX  ERROR ibv_create_cq(cqe=256) failed: Connection timed out
[1741104267.042036] [ohm:836503:0]        ib_iface.c:1059 UCX  ERROR ibv_create_cq(cqe=256) failed: Connection timed out
[1741104267.053291] [ohm:836491:0]        ib_iface.c:1059 UCX  ERROR ibv_create_cq(cqe=256) failed: Connection timed out
[1741104267.067241] [ohm:836493:0]        ib_iface.c:1059 UCX  ERROR ibv_create_cq(cqe=256) failed: Connection timed out
[1741104267.080675] [ohm:836501:0]        ib_iface.c:1059 UCX  ERROR ibv_create_cq(cqe=256) failed: Connection timed out
[1741104267.096056] [ohm:836492:0]        ib_iface.c:1059 UCX  ERROR ibv_create_cq(cqe=256) failed: Connection timed out
[1741104267.119581] [ohm:836509:0]        ib_iface.c:1059 UCX  ERROR ibv_create_cq(cqe=256) failed: Connection timed out
[1741104267.130022] [ohm:836511:0]        ib_iface.c:1059 UCX  ERROR ibv_create_cq(cqe=256) failed: Connection timed out
[1741104267.130963] [ohm:836500:0]        ib_iface.c:1059 UCX  ERROR ibv_create_cq(cqe=256) failed: Connection timed out
[1741104267.130972] [ohm:836499:0]        ib_iface.c:1059 UCX  ERROR ibv_create_cq(cqe=256) failed: Connection timed out
[1741104267.133017] [ohm:836495:0]        ib_iface.c:1059 UCX  ERROR ibv_create_cq(cqe=256) failed: Connection timed out
[1741104267.134234] [ohm:836560:0]        ib_iface.c:1059 UCX  ERROR ibv_create_cq(cqe=256) failed: Connection timed out
[1741104267.148792] [ohm:836489:0]        ib_iface.c:1059 UCX  ERROR ibv_create_cq(cqe=256) failed: Connection timed out
[1741104267.156684] [ohm:836532:0]        ib_iface.c:1059 UCX  ERROR ibv_create_cq(cqe=256) failed: Connection timed out
[1741104267.163279] [ohm:836494:0]        ib_iface.c:1059 UCX  ERROR ibv_create_cq(cqe=256) failed: Connection timed out
[1741104267.173050] [ohm:836524:0]        ib_iface.c:1059 UCX  ERROR ibv_create_cq(cqe=256) failed: Connection timed out
[1741104267.174036] [ohm:836583:0]        ib_iface.c:1059 UCX  ERROR ibv_create_cq(cqe=256) failed: Connection timed out
[1741104267.180833] [ohm:836546:0]        ib_iface.c:1059 UCX  ERROR ibv_create_cq(cqe=256) failed: Connection timed out
[1741104267.182297] [ohm:836502:0]        ib_iface.c:1059 UCX  ERROR ibv_create_cq(cqe=256) failed: Connection timed out
[1741104267.182760] [ohm:836601:0]        ib_iface.c:1059 UCX  ERROR ibv_create_cq(cqe=256) failed: Connection timed out
[1741104267.227833] [ohm:836496:0]        ib_iface.c:1059 UCX  ERROR ibv_create_cq(cqe=256) failed: Connection timed out
[1741104267.228733] [ohm:836594:0]        ib_iface.c:1059 UCX  ERROR ibv_create_cq(cqe=256) failed: Connection timed out
[1741104267.237563] [ohm:836627:0]        ib_iface.c:1059 UCX  ERROR ibv_create_cq(cqe=256) failed: Connection timed out
[1741104267.243750] [ohm:836542:0]        ib_iface.c:1059 UCX  ERROR ibv_create_cq(cqe=256) failed: Connection timed out
[1741104267.248649] [ohm:836615:0]        ib_iface.c:1059 UCX  ERROR ibv_create_cq(cqe=256) failed: Connection timed out
[1741104267.248970] [ohm:836540:0]        ib_iface.c:1059 UCX  ERROR ibv_create_cq(cqe=256) failed: Connection timed out
[1741104267.251912] [ohm:836523:0]        ib_iface.c:1059 UCX  ERROR ibv_create_cq(cqe=256) failed: Connection timed out
[1741104267.261953] [ohm:836506:0]        ib_iface.c:1059 UCX  ERROR ibv_create_cq(cqe=256) failed: Connection timed out
[1741104267.270927] [ohm:836568:0]        ib_iface.c:1059 UCX  ERROR ibv_create_cq(cqe=256) failed: Connection timed out
[1741104267.271987] [ohm:836600:0]        ib_iface.c:1059 UCX  ERROR ibv_create_cq(cqe=256) failed: Connection timed out
[1741104267.276486] [ohm:836599:0]        ib_iface.c:1059 UCX  ERROR ibv_create_cq(cqe=256) failed: Connection timed out
[1741104267.280192] [ohm:836572:0]        ib_iface.c:1059 UCX  ERROR ibv_create_cq(cqe=256) failed: Connection timed out
[1741104267.283548] [ohm:836561:0]        ib_iface.c:1059 UCX  ERROR ibv_create_cq(cqe=256) failed: Connection timed out
[1741104267.286926] [ohm:836488:0]        ib_iface.c:1059 UCX  ERROR ibv_create_cq(cqe=256) failed: Connection timed out
[1741104267.291467] [ohm:836611:0]        ib_iface.c:1059 UCX  ERROR ibv_create_cq(cqe=256) failed: Connection timed out
[1741104267.295987] [ohm:836486:0]        ib_iface.c:1059 UCX  ERROR ibv_create_cq(cqe=256) failed: Connection timed out
[1741104267.297646] [ohm:836567:0]        ib_iface.c:1059 UCX  ERROR ibv_create_cq(cqe=256) failed: Connection timed out
[1741104267.299525] [ohm:836592:0]        ib_iface.c:1059 UCX  ERROR ibv_create_cq(cqe=256) failed: Connection timed out
[1741104267.306608] [ohm:836487:0]        ib_iface.c:1059 UCX  ERROR ibv_create_cq(cqe=256) failed: Connection timed out
[1741104267.307969] [ohm:836574:0]        ib_iface.c:1059 UCX  ERROR ibv_create_cq(cqe=256) failed: Connection timed out
[1741104267.309119] [ohm:836587:0]        ib_iface.c:1059 UCX  ERROR ibv_create_cq(cqe=256) failed: Connection timed out
[1741104267.310252] [ohm:836538:0]        ib_iface.c:1059 UCX  ERROR ibv_create_cq(cqe=256) failed: Connection timed out
[1741104267.311433] [ohm:836581:0]        ib_iface.c:1059 UCX  ERROR ibv_create_cq(cqe=256) failed: Connection timed out
[1741104267.312605] [ohm:836607:0]        ib_iface.c:1059 UCX  ERROR ibv_create_cq(cqe=256) failed: Connection timed out
[1741104267.313223] [ohm:836535:0]        ib_iface.c:1059 UCX  ERROR ibv_create_cq(cqe=256) failed: Connection timed out
[1741104267.321261] [ohm:836556:0]        ib_iface.c:1059 UCX  ERROR ibv_create_cq(cqe=256) failed: Connection timed out
[1741104267.321670] [ohm:836549:0]        ib_iface.c:1059 UCX  ERROR ibv_create_cq(cqe=256) failed: Connection timed out
[1741104267.321948] [ohm:836553:0]        ib_iface.c:1059 UCX  ERROR ibv_create_cq(cqe=256) failed: Connection timed out
[1741104267.322224] [ohm:836497:0]        ib_iface.c:1059 UCX  ERROR ibv_create_cq(cqe=256) failed: Connection timed out
[1741104267.324834] [ohm:836516:0]        ib_iface.c:1059 UCX  ERROR ibv_create_cq(cqe=256) failed: Connection timed out
[1741104267.327596] [ohm:836529:0]        ib_iface.c:1059 UCX  ERROR ibv_create_cq(cqe=256) failed: Connection timed out
[1741104267.329138] [ohm:836519:0]        ib_iface.c:1059 UCX  ERROR ibv_create_cq(cqe=256) failed: Connection timed out
[1741104267.329260] [ohm:836578:0]        ib_iface.c:1059 UCX  ERROR ibv_create_cq(cqe=256) failed: Connection timed out
[1741104267.329270] [ohm:836485:0]        ib_iface.c:1059 UCX  ERROR ibv_create_cq(cqe=256) failed: Connection timed out
[1741104267.330101] [ohm:836624:0]        ib_iface.c:1059 UCX  ERROR ibv_create_cq(cqe=256) failed: Connection timed out
[1741104267.330738] [ohm:836619:0]        ib_iface.c:1059 UCX  ERROR ibv_create_cq(cqe=256) failed: Connection timed out


           ************************************************************
           *        Program running with 64 parallel MPI-processes    *
           *              working on a common directory               *
           ************************************************************
------------------------------------------------------------------------------
                             ORCA STARTUP CALCULATIONS
                           -- RI-GTO INTEGRALS CHOSEN --
------------------------------------------------------------------------------
------------------------------------------------------------------------------
                   ___                                                        
                  /   \      - P O W E R E D   B Y -                         
                 /     \                                                     
                 |  |  |   _    _      __       _____    __    __             
                 |  |  |  | |  | |    /  \     |  _  \  |  |  /  |          
                  \  \/   | |  | |   /    \    | | | |  |  | /  /          
                 / \  \   | |__| |  /  /\  \   | |_| |  |  |/  /          
                |  |  |   |  __  | /  /__\  \  |    /   |      \           
                |  |  |   | |  | | |   __   |  |    \   |  |\   \          
                \     /   | |  | | |  |  |  |  | |\  \  |  | \   \       
                 \___/    |_|  |_| |__|  |__|  |_| \__\ |__|  \__/        
                                                                              
                      - O R C A' S   B I G   F R I E N D -                    
                                      &                                       
                       - I N T E G R A L  F E E D E R -                       
                                                                              
 v1 FN, 2020, v2 2021, v3 2022-2024                                           
------------------------------------------------------------------------------


----------------------
SHARK INTEGRAL PACKAGE
----------------------

Number of atoms                             ...     30
Number of basis functions                   ...    882
Number of shells                            ...    322
Maximum angular momentum                    ...      3
Integral batch strategy                     ... SHARK/LIBINT Hybrid
RI-J (if used) integral strategy            ... SPLIT-RIJ (Revised 2003 algorithm where possible)
Printlevel                                  ...      1
Contraction scheme used                     ... SEGMENTED contraction
Prescreening option                         ... SCHWARTZ
   Thresh                                   ... 2.500e-11
   Tcut                                     ... 2.500e-12
   Tpresel                                  ... 2.500e-12 
Coulomb Range Separation                    ... NOT USED
Exchange Range Separation                   ... Long Range
   Mu parameter                             ... 3.000e-01
   Scaling (regular/separated)              ... 1.500e-01 8.500e-01
Multipole approximations                    ... NOT USED
Finite Nucleus Model                        ... NOT USED
CABS basis                                  ... NOT available
Auxiliary Coulomb fitting basis             ... AVAILABLE
   # of basis functions in Aux-J            ...   1014
   # of shells in Aux-J                     ...    330
   Maximum angular momentum in Aux-J        ...      4
Auxiliary J/K fitting basis                 ... NOT available
Auxiliary Correlation fitting basis         ... NOT available
Auxiliary 'external' fitting basis          ... NOT available

Checking pre-screening integrals            ... done (  0.0 sec) Dimension = 322
Check shell pair data                       ... done (  0.0 sec)
Shell pair information
Shell pair cut-off parameter TPreSel        ...   2.5e-12
Total number of shell pairs                 ...     52003
Shell pairs after pre-screening             ...     45017
Total number of primitive shell pairs       ...    129718
Primitive shell pairs kept                  ...     84056
          la=0 lb=0:   8717 shell pairs
          la=1 lb=0:  11923 shell pairs
          la=1 lb=1:   4119 shell pairs
          la=2 lb=0:   8091 shell pairs
          la=2 lb=1:   5606 shell pairs
          la=2 lb=2:   1925 shell pairs
          la=3 lb=0:   2051 shell pairs
          la=3 lb=1:   1455 shell pairs
          la=3 lb=2:    992 shell pairs
          la=3 lb=3:    138 shell pairs

Calculating one electron integrals          ... done (  0.2 sec)
Calculating RI/J V-Matrix + Cholesky decomp.... done (  0.1 sec)
Calculating Nuclear repulsion               ... done (  0.0 sec) ENN=   1435.694503180099 Eh

Diagonalization of the overlap matrix:
Smallest eigenvalue                        ... 7.097e-07
Time for diagonalization                   ...    0.126 sec
Threshold for overlap eigenvalues          ... 1.000e-07
Number of eigenvalues below threshold      ... 0

IMPORTANT:
Smallest eigenvalue of S below the DiffSThresh (1.000e-06) while
Thresh>1e-12 and/or TCut>1e-13! In order to avoid SCF convergence issues,
Thresh will be set to at least 1e-12 and TCut to at least 1e-13.
This can be turned off by adding %SCF DiffSThresh -1 END to the input.

Time for construction of square roots      ...    0.134 sec
Total time needed                          ...    0.275 sec

-------------------
DFT GRID GENERATION
-------------------

General Integration Accuracy     IntAcc      ... 4.388
Radial Grid Type                 RadialGrid  ... OptM3 with GC (2021)
Angular Grid (max. ang.)         AngularGrid ... 4 (Lebedev-302)
Angular grid pruning method      GridPruning ... 4 (adaptive)
Weight generation scheme         WeightScheme... mBecke (2022)
Basis function cutoff            BFCut       ... 1.0000e-11
Integration weight cutoff        WCut        ... 1.0000e-14
Partially contracted basis set               ... off
Rotationally invariant grid construction     ... off
Angular grids for H and He will be reduced by one unit
Diffuse basis detected: some atoms will have their outermost
                        angular grid increased by 1.

Total number of grid points                  ...   151868
Total number of batches                      ...     2389
Average number of points per batch           ...       63
Average number of grid points per atom       ...     5062

--------------------
COSX GRID GENERATION
--------------------

GRIDX 1
-------
General Integration Accuracy     IntAcc      ... 3.816
Radial Grid Type                 RadialGrid  ... OptM3 with GC (2021)
Angular Grid (max. ang.)         AngularGrid ... 1 (Lebedev-50)
Angular grid pruning method      GridPruning ... 4 (adaptive)
Weight generation scheme         WeightScheme... mBecke (2022)
Basis function cutoff            BFCut       ... 1.0000e-11
Integration weight cutoff        WCut        ... 1.0000e-14
Partially contracted basis set               ... on
Rotationally invariant grid construction     ... off
Angular grids for H and He will be reduced by one unit
Diffuse basis detected: some atoms will have their outermost
                        angular grid increased by 1.

Total number of grid points                  ...    19049
Total number of batches                      ...      166
Average number of points per batch           ...      114
Average number of grid points per atom       ...      635
UseSFitting                                  ... on

GRIDX 2
-------
General Integration Accuracy     IntAcc      ... 4.020
Radial Grid Type                 RadialGrid  ... OptM3 with GC (2021)
Angular Grid (max. ang.)         AngularGrid ... 2 (Lebedev-110)
Angular grid pruning method      GridPruning ... 4 (adaptive)
Weight generation scheme         WeightScheme... mBecke (2022)
Basis function cutoff            BFCut       ... 1.0000e-11
Integration weight cutoff        WCut        ... 1.0000e-14
Partially contracted basis set               ... on
Rotationally invariant grid construction     ... off
Angular grids for H and He will be reduced by one unit
Diffuse basis detected: some atoms will have their outermost
                        angular grid increased by 1.

Total number of grid points                  ...    45861
Total number of batches                      ...      371
Average number of points per batch           ...      123
Average number of grid points per atom       ...     1529
UseSFitting                                  ... on

GRIDX 3
-------
General Integration Accuracy     IntAcc      ... 4.338
Radial Grid Type                 RadialGrid  ... OptM3 with GC (2021)
Angular Grid (max. ang.)         AngularGrid ... 3 (Lebedev-194)
Angular grid pruning method      GridPruning ... 4 (adaptive)
Weight generation scheme         WeightScheme... mBecke (2022)
Basis function cutoff            BFCut       ... 1.0000e-11
Integration weight cutoff        WCut        ... 1.0000e-14
Partially contracted basis set               ... on
Rotationally invariant grid construction     ... off
Angular grids for H and He will be reduced by one unit
Diffuse basis detected: some atoms will have their outermost
                        angular grid increased by 1.

Total number of grid points                  ...   100944
Total number of batches                      ...      807
Average number of points per batch           ...      125
Average number of grid points per atom       ...     3365
UseSFitting                                  ... on
Initializing property integral containers    ... done (  0.0 sec)

SHARK setup successfully completed in   4.2 seconds

Maximum memory used throughout the entire STARTUP-calculation: 80.1 MB
[1741104273.375790] [ohm:836831:0]        ib_iface.c:1059 UCX  ERROR ibv_create_cq(cqe=256) failed: Connection timed out
[1741104273.377516] [ohm:836829:0]        ib_iface.c:1059 UCX  ERROR ibv_create_cq(cqe=256) failed: Connection timed out
[1741104273.390905] [ohm:836861:0]        ib_iface.c:1059 UCX  ERROR ibv_create_cq(cqe=256) failed: Connection timed out
[1741104273.393676] [ohm:836832:0]        ib_iface.c:1059 UCX  ERROR ibv_create_cq(cqe=256) failed: Connection timed out
[1741104273.397975] [ohm:836856:0]        ib_iface.c:1059 UCX  ERROR ibv_create_cq(cqe=256) failed: Connection timed out
[1741104273.403484] [ohm:836953:0]        ib_iface.c:1059 UCX  ERROR ibv_create_cq(cqe=256) failed: Connection timed out
[1741104273.404980] [ohm:836897:0]        ib_iface.c:1059 UCX  ERROR ibv_create_cq(cqe=256) failed: Connection timed out
[1741104273.417247] [ohm:836841:0]        ib_iface.c:1059 UCX  ERROR ibv_create_cq(cqe=256) failed: Connection timed out
[1741104273.428378] [ohm:836949:0]        ib_iface.c:1059 UCX  ERROR ibv_create_cq(cqe=256) failed: Connection timed out
[1741104273.448507] [ohm:836955:0]        ib_iface.c:1059 UCX  ERROR ibv_create_cq(cqe=256) failed: Connection timed out
[1741104273.449861] [ohm:836860:0]        ib_iface.c:1059 UCX  ERROR ibv_create_cq(cqe=256) failed: Connection timed out
[1741104273.452854] [ohm:836883:0]        ib_iface.c:1059 UCX  ERROR ibv_create_cq(cqe=256) failed: Connection timed out
[1741104273.455738] [ohm:836979:0]        ib_iface.c:1059 UCX  ERROR ibv_create_cq(cqe=256) failed: Connection timed out
[1741104273.506440] [ohm:836837:0]        ib_iface.c:1059 UCX  ERROR ibv_create_cq(cqe=256) failed: Connection timed out
[1741104273.527473] [ohm:836868:0]        ib_iface.c:1059 UCX  ERROR ibv_create_cq(cqe=256) failed: Connection timed out
[1741104273.529207] [ohm:836982:0]        ib_iface.c:1059 UCX  ERROR ibv_create_cq(cqe=256) failed: Connection timed out
[1741104273.549410] [ohm:836857:0]        ib_iface.c:1059 UCX  ERROR ibv_create_cq(cqe=256) failed: Connection timed out
[1741104273.560771] [ohm:836842:0]        ib_iface.c:1059 UCX  ERROR ibv_create_cq(cqe=256) failed: Connection timed out
[1741104273.561857] [ohm:836864:0]        ib_iface.c:1059 UCX  ERROR ibv_create_cq(cqe=256) failed: Connection timed out
[1741104273.571114] [ohm:836866:0]        ib_iface.c:1059 UCX  ERROR ibv_create_cq(cqe=256) failed: Connection timed out
[1741104273.574814] [ohm:836865:0]        ib_iface.c:1059 UCX  ERROR ibv_create_cq(cqe=256) failed: Connection timed out
[1741104273.591715] [ohm:836891:0]        ib_iface.c:1059 UCX  ERROR ibv_create_cq(cqe=256) failed: Connection timed out
[1741104273.596957] [ohm:836920:0]        ib_iface.c:1059 UCX  ERROR ibv_create_cq(cqe=256) failed: Connection timed out
[1741104273.614473] [ohm:836835:0]        ib_iface.c:1059 UCX  ERROR ibv_create_cq(cqe=256) failed: Connection timed out
[1741104273.618369] [ohm:836939:0]        ib_iface.c:1059 UCX  ERROR ibv_create_cq(cqe=256) failed: Connection timed out
[1741104273.634584] [ohm:836863:0]        ib_iface.c:1059 UCX  ERROR ibv_create_cq(cqe=256) failed: Connection timed out
[1741104273.637820] [ohm:836886:0]        ib_iface.c:1059 UCX  ERROR ibv_create_cq(cqe=256) failed: Connection timed out
[1741104273.643550] [ohm:836895:0]        ib_iface.c:1059 UCX  ERROR ibv_create_cq(cqe=256) failed: Connection timed out
[1741104273.643949] [ohm:836859:0]        ib_iface.c:1059 UCX  ERROR ibv_create_cq(cqe=256) failed: Connection timed out
[1741104273.646521] [ohm:836834:0]        ib_iface.c:1059 UCX  ERROR ibv_create_cq(cqe=256) failed: Connection timed out
[1741104273.648670] [ohm:836935:0]        ib_iface.c:1059 UCX  ERROR ibv_create_cq(cqe=256) failed: Connection timed out
[1741104273.653981] [ohm:836862:0]        ib_iface.c:1059 UCX  ERROR ibv_create_cq(cqe=256) failed: Connection timed out
[1741104273.656004] [ohm:836840:0]        ib_iface.c:1059 UCX  ERROR ibv_create_cq(cqe=256) failed: Connection timed out
[1741104273.674955] [ohm:836874:0]        ib_iface.c:1059 UCX  ERROR ibv_create_cq(cqe=256) failed: Connection timed out
[1741104273.683084] [ohm:836928:0]        ib_iface.c:1059 UCX  ERROR ibv_create_cq(cqe=256) failed: Connection timed out
[1741104273.689397] [ohm:836925:0]        ib_iface.c:1059 UCX  ERROR ibv_create_cq(cqe=256) failed: Connection timed out
[1741104273.690268] [ohm:836976:0]        ib_iface.c:1059 UCX  ERROR ibv_create_cq(cqe=256) failed: Connection timed out
[1741104273.699461] [ohm:836914:0]        ib_iface.c:1059 UCX  ERROR ibv_create_cq(cqe=256) failed: Connection timed out
[1741104273.702776] [ohm:836905:0]        ib_iface.c:1059 UCX  ERROR ibv_create_cq(cqe=256) failed: Connection timed out
[1741104273.703904] [ohm:836970:0]        ib_iface.c:1059 UCX  ERROR ibv_create_cq(cqe=256) failed: Connection timed out
[1741104273.706679] [ohm:836838:0]        ib_iface.c:1059 UCX  ERROR ibv_create_cq(cqe=256) failed: Connection timed out
[1741104273.717340] [ohm:836902:0]        ib_iface.c:1059 UCX  ERROR ibv_create_cq(cqe=256) failed: Connection timed out
[1741104273.723675] [ohm:836975:0]        ib_iface.c:1059 UCX  ERROR ibv_create_cq(cqe=256) failed: Connection timed out
[1741104273.725395] [ohm:836870:0]        ib_iface.c:1059 UCX  ERROR ibv_create_cq(cqe=256) failed: Connection timed out
[1741104273.726539] [ohm:836941:0]        ib_iface.c:1059 UCX  ERROR ibv_create_cq(cqe=256) failed: Connection timed out
[1741104273.729619] [ohm:836947:0]        ib_iface.c:1059 UCX  ERROR ibv_create_cq(cqe=256) failed: Connection timed out
[1741104273.732655] [ohm:836858:0]        ib_iface.c:1059 UCX  ERROR ibv_create_cq(cqe=256) failed: Connection timed out
[1741104273.734023] [ohm:836836:0]        ib_iface.c:1059 UCX  ERROR ibv_create_cq(cqe=256) failed: Connection timed out
[1741104273.742857] [ohm:836878:0]        ib_iface.c:1059 UCX  ERROR ibv_create_cq(cqe=256) failed: Connection timed out
[1741104273.742969] [ohm:836833:0]        ib_iface.c:1059 UCX  ERROR ibv_create_cq(cqe=256) failed: Connection timed out
[1741104273.750787] [ohm:836830:0]        ib_iface.c:1059 UCX  ERROR ibv_create_cq(cqe=256) failed: Connection timed out
[1741104273.751687] [ohm:836889:0]        ib_iface.c:1059 UCX  ERROR ibv_create_cq(cqe=256) failed: Connection timed out
[1741104273.753136] [ohm:836839:0]        ib_iface.c:1059 UCX  ERROR ibv_create_cq(cqe=256) failed: Connection timed out
[1741104273.756008] [ohm:836848:0]        ib_iface.c:1059 UCX  ERROR ibv_create_cq(cqe=256) failed: Connection timed out
[1741104273.757271] [ohm:836843:0]        ib_iface.c:1059 UCX  ERROR ibv_create_cq(cqe=256) failed: Connection timed out
[1741104273.758546] [ohm:836924:0]        ib_iface.c:1059 UCX  ERROR ibv_create_cq(cqe=256) failed: Connection timed out
[1741104273.759521] [ohm:836844:0]        ib_iface.c:1059 UCX  ERROR ibv_create_cq(cqe=256) failed: Connection timed out
[1741104273.762964] [ohm:836967:0]        ib_iface.c:1059 UCX  ERROR ibv_create_cq(cqe=256) failed: Connection timed out
[1741104273.763732] [ohm:836932:0]        ib_iface.c:1059 UCX  ERROR ibv_create_cq(cqe=256) failed: Connection timed out
[1741104273.764876] [ohm:836958:0]        ib_iface.c:1059 UCX  ERROR ibv_create_cq(cqe=256) failed: Connection timed out
[1741104273.765024] [ohm:836950:0]        ib_iface.c:1059 UCX  ERROR ibv_create_cq(cqe=256) failed: Connection timed out
[1741104273.765763] [ohm:836962:0]        ib_iface.c:1059 UCX  ERROR ibv_create_cq(cqe=256) failed: Connection timed out
[1741104273.765895] [ohm:836918:0]        ib_iface.c:1059 UCX  ERROR ibv_create_cq(cqe=256) failed: Connection timed out
[1741104273.767241] [ohm:836913:0]        ib_iface.c:1059 UCX  ERROR ibv_create_cq(cqe=256) failed: Connection timed out


           ************************************************************
           *        Program running with 64 parallel MPI-processes    *
           *              working on a common directory               *
           ************************************************************
-------------------------------------------------------------------------------
                                 ORCA GUESS
                   Start orbitals & Density for SCF / CASSCF
-------------------------------------------------------------------------------

------------
SCF SETTINGS
------------
Hamiltonian:
 Density Functional     Method          .... DFT(GTOs)
  Functional kind                       .... Exchange-Correlation
  Functional name                       .... wB97M-V exchange-correlation functional
  Functional family                     .... Hybrid MGGA
  Functional refs                              
    [ 0] N. Mardirossian and M. Head-Gordon.,  J. Chem. Phys. 144, 214110 (2016), doi: 10.1063/1.4952647
  Fraction of HF Exchange (short range) .... 0.1500
  Fraction of HF Exchange (long range)  .... 1.0000
  Range separation parameter mu         .... 0.3000
  Functional external parameters        .... 17
    Parameter  0 _cx00      =  8.500000e-01 : u^00 coefficient for exchange
    Parameter  1 _cx01      =  1.007000e+00 : u^01 coefficient for exchange
    Parameter  2 _cx10      =  2.590000e-01 : u^10 coefficient for exchange
    Parameter  3 _css00     =  4.430000e-01 : u^00 coefficient for same-spin correlation
    Parameter  4 _css04     = -1.437000e+00 : u^04 coefficient for same-spin correlation
    Parameter  5 _css10     = -4.535000e+00 : u^10 coefficient for same-spin correlation
    Parameter  6 _css20     = -3.390000e+00 : u^20 coefficient for same-spin correlation
    Parameter  7 _css43     =  4.278000e+00 : u^43 coefficient for same-spin correlation
    Parameter  8 _cos00     =  1.000000e+00 : u^00 coefficient for opposite-spin correlation
    Parameter  9 _cos10     =  1.358000e+00 : u^10 coefficient for opposite-spin correlation
    Parameter 10 _cos20     =  2.924000e+00 : u^20 coefficient for opposite-spin correlation
    Parameter 11 _cos21     = -8.812000e+00 : u^21 coefficient for opposite-spin correlation
    Parameter 12 _cos60     = -1.390000e+00 : u^60 coefficient for opposite-spin correlation
    Parameter 13 _cos61     =  9.142000e+00 : u^61 coefficient for opposite-spin correlation
    Parameter 14 _alpha     =  1.000000e+00 : fraction of HF exchange
    Parameter 15 _beta      = -8.500000e-01 : fraction of short-range exchange
    Parameter 16 _omega     =  3.000000e-01 : range-separation constant
 Long-range corrected/Screened/Range-Separated Hybrid DFT is turned on
   Amount of maximum screened exact exchange              ....  0.850000
   Range separation parameter mu (erf(mu*r12)/r12)        ....  0.300000
 RI-approximation to the Coulomb term is turned on
   Number of AuxJ basis functions       .... 1014
   RIJ-COSX (HFX calculated with COS-X)).... on


General Settings:
 Integral files         IntName         .... orca
 Hartree-Fock type      HFTyp           .... UHF
 Total Charge           Charge          ....    0
 Multiplicity           Mult            ....    3
 Number of Electrons    NEL             ....  132
 Basis Dimension        Dim             ....  882
 Nuclear Repulsion      ENuc            ....   1435.6945031801 Eh

Convergence Acceleration:
 AO-DIIS                CNVDIIS         .... on
   Start iteration      DIISMaxIt       ....    12
   Startup error        DIISStart       ....  0.200000
   # of expansion vecs  DIISMaxEq       ....     5
   Bias factor          DIISBfac        ....   1.050
   Max. coefficient     DIISMaxC        ....  10.000
 MO-DIIS                CNVKDIIS        .... off
 Trust-Rad. Augm. Hess. CNVTRAH         .... auto
   Auto Start mean grad. ratio tolernc. ....  1.125000
   Auto Start start iteration           ....    50
   Auto Start num. interpolation iter.  ....    10
   Max. Number of Micro iterations      ....    24
   Max. Number of Macro iterations      .... Maxiter - #DIIS iter
   Number of Davidson start vectors     ....     2
   Converg. threshold    (grad. norm)   ....   1.000e-05
   Grad. Scal. Fac. for Micro threshold ....   0.100
   Minimum threshold for Micro iter.    ....   1.000e-02
   NR start threshold (gradient norm)   ....   1.000e-04
   Initial trust radius                 ....   0.400
   Minimum AH scaling param. (alpha)    ....   1.000
   Maximum AH scaling param. (alpha)    .... 1000.000
   Quad. conv. algorithm                .... NR
   White noise on init. David. guess    .... on
   Maximum white noise                  ....   0.010
   Pseudo random numbers                .... off
   Inactive MOs                         .... canonical
   Orbital update algorithm             .... Taylor
   Preconditioner                       .... Diag
   Full preconditioner red. dimension   ....   250
 SOSCF                  CNVSOSCF        .... on
   Start iteration      SOSCFMaxIt      ....   150
   Startup grad/error   SOSCFStart      ....  0.003300
   Hessian update       SOSCFHessUp     .... L-BFGS
 Level Shifting         CNVShift        .... on
   Level shift para.    LevelShift      ....    0.2500
   Turn off err/grad.   ShiftErr        ....    0.0010
 Zerner damping         CNVZerner       .... off
 Static damping         CNVDamp         .... on
   Fraction old density DampFac         ....    0.7000
   Max. Damping (<1)    DampMax         ....    0.9800
   Min. Damping (>=0)   DampMin         ....    0.0000
   Turn off err/grad.   DampErr         ....    0.1000

SCF Procedure:
 Maximum # iterations   MaxIter         ....   125
 SCF integral mode      SCFMode         .... Direct
   Integral package                     .... SHARK and LIBINT hybrid scheme
 Reset frequency        DirectResetFreq ....    20
 Integral Threshold     Thresh          ....  1.000e-12 Eh
 Primitive CutOff       TCut            ....  1.000e-13 Eh

Convergence Tolerance:
 Convergence Check Mode ConvCheckMode   .... Total+1el-Energy
 Convergence forced     ConvForced      .... 1
 Energy Change          TolE            ....  1.000e-08 Eh
 1-El. energy change                    ....  1.000e-05 Eh
 Orbital Gradient       TolG            ....  1.000e-05
 Orbital Rotation angle TolX            ....  1.000e-05
 DIIS Error             TolErr          ....  5.000e-07

------------------------------
INITIAL GUESS: MODEL POTENTIAL
------------------------------
Loading Hartree-Fock densities                     ... done
Calculating cut-offs                               ... done
Initializing the effective Hamiltonian             ... done
Setting up the integral package (SHARK)            ... done
Starting the Coulomb interaction                   ... done (   0.1 sec)
Making the grid                                    ... done (   0.2 sec)
Mapping shells                                     ... done
Starting the XC term evaluation                    ... done (   0.1 sec)
  promolecular density results
     # of electrons  =    131.998227155
     EX              =   -113.573650373
     EC              =     -4.498337460
     EX+EC           =   -118.071987834
Transforming the Hamiltonian                       ... done (   0.1 sec)
Diagonalizing the Hamiltonian                      ... done (   0.1 sec)
Back transforming the eigenvectors                 ... done (   0.1 sec)
Now organizing SCF variables                       ... done
                      ------------------
                      INITIAL GUESS DONE (   1.1 sec)
                      ------------------
             **** ENERGY FILE WAS UPDATED (orca.en.tmp) ****
Finished Guess after   3.6 sec
Maximum memory used throughout the entire GUESS-calculation: 72.6 MB
[1741104277.557322] [ohm:837188:0]        ib_iface.c:1059 UCX  ERROR ibv_create_cq(cqe=256) failed: Connection timed out
[1741104277.559110] [ohm:837185:0]        ib_iface.c:1059 UCX  ERROR ibv_create_cq(cqe=256) failed: Connection timed out
[1741104277.596485] [ohm:837186:0]        ib_iface.c:1059 UCX  ERROR ibv_create_cq(cqe=256) failed: Connection timed out
[1741104277.596973] [ohm:837192:0]        ib_iface.c:1059 UCX  ERROR ibv_create_cq(cqe=256) failed: Connection timed out
[1741104277.622299] [ohm:837202:0]        ib_iface.c:1059 UCX  ERROR ibv_create_cq(cqe=256) failed: Connection timed out
[1741104277.623412] [ohm:837197:0]        ib_iface.c:1059 UCX  ERROR ibv_create_cq(cqe=256) failed: Connection timed out
[1741104277.632748] [ohm:837189:0]        ib_iface.c:1059 UCX  ERROR ibv_create_cq(cqe=256) failed: Connection timed out
[1741104277.635803] [ohm:837190:0]        ib_iface.c:1059 UCX  ERROR ibv_create_cq(cqe=256) failed: Connection timed out
[1741104277.672023] [ohm:837204:0]        ib_iface.c:1059 UCX  ERROR ibv_create_cq(cqe=256) failed: Connection timed out
[1741104277.677412] [ohm:837284:0]        ib_iface.c:1059 UCX  ERROR ibv_create_cq(cqe=256) failed: Connection timed out
[1741104277.681981] [ohm:837187:0]        ib_iface.c:1059 UCX  ERROR ibv_create_cq(cqe=256) failed: Connection timed out
[1741104277.785034] [ohm:837195:0]        ib_iface.c:1059 UCX  ERROR ibv_create_cq(cqe=256) failed: Connection timed out
[1741104277.789182] [ohm:837271:0]        ib_iface.c:1059 UCX  ERROR ibv_create_cq(cqe=256) failed: Connection timed out
[1741104277.802055] [ohm:837191:0]        ib_iface.c:1059 UCX  ERROR ibv_create_cq(cqe=256) failed: Connection timed out
[1741104277.806332] [ohm:837315:0]        ib_iface.c:1059 UCX  ERROR ibv_create_cq(cqe=256) failed: Connection timed out
[1741104277.806751] [ohm:837290:0]        ib_iface.c:1059 UCX  ERROR ibv_create_cq(cqe=256) failed: Connection timed out
[1741104277.810518] [ohm:837331:0]        ib_iface.c:1059 UCX  ERROR ibv_create_cq(cqe=256) failed: Connection timed out
[1741104277.812614] [ohm:837251:0]        ib_iface.c:1059 UCX  ERROR ibv_create_cq(cqe=256) failed: Connection timed out
[1741104277.813999] [ohm:837226:0]        ib_iface.c:1059 UCX  ERROR ibv_create_cq(cqe=256) failed: Connection timed out
[1741104277.815488] [ohm:837184:0]        ib_iface.c:1059 UCX  ERROR ibv_create_cq(cqe=256) failed: Connection timed out
[1741104277.815599] [ohm:837217:0]        ib_iface.c:1059 UCX  ERROR ibv_create_cq(cqe=256) failed: Connection timed out
[1741104277.818093] [ohm:837209:0]        ib_iface.c:1059 UCX  ERROR ibv_create_cq(cqe=256) failed: Connection timed out
[1741104277.820206] [ohm:837296:0]        ib_iface.c:1059 UCX  ERROR ibv_create_cq(cqe=256) failed: Connection timed out
[1741104277.831757] [ohm:837194:0]        ib_iface.c:1059 UCX  ERROR ibv_create_cq(cqe=256) failed: Connection timed out
[1741104277.836138] [ohm:837228:0]        ib_iface.c:1059 UCX  ERROR ibv_create_cq(cqe=256) failed: Connection timed out
[1741104277.843464] [ohm:837205:0]        ib_iface.c:1059 UCX  ERROR ibv_create_cq(cqe=256) failed: Connection timed out
[1741104277.843561] [ohm:837273:0]        ib_iface.c:1059 UCX  ERROR ibv_create_cq(cqe=256) failed: Connection timed out
[1741104277.845710] [ohm:837237:0]        ib_iface.c:1059 UCX  ERROR ibv_create_cq(cqe=256) failed: Connection timed out
[1741104277.846015] [ohm:837327:0]        ib_iface.c:1059 UCX  ERROR ibv_create_cq(cqe=256) failed: Connection timed out
[1741104277.848728] [ohm:837287:0]        ib_iface.c:1059 UCX  ERROR ibv_create_cq(cqe=256) failed: Connection timed out
[1741104277.848800] [ohm:837208:0]        ib_iface.c:1059 UCX  ERROR ibv_create_cq(cqe=256) failed: Connection timed out
[1741104277.854804] [ohm:837268:0]        ib_iface.c:1059 UCX  ERROR ibv_create_cq(cqe=256) failed: Connection timed out
[1741104277.856564] [ohm:837201:0]        ib_iface.c:1059 UCX  ERROR ibv_create_cq(cqe=256) failed: Connection timed out
[1741104277.874185] [ohm:837221:0]        ib_iface.c:1059 UCX  ERROR ibv_create_cq(cqe=256) failed: Connection timed out
[1741104277.882108] [ohm:837207:0]        ib_iface.c:1059 UCX  ERROR ibv_create_cq(cqe=256) failed: Connection timed out
[1741104277.884341] [ohm:837318:0]        ib_iface.c:1059 UCX  ERROR ibv_create_cq(cqe=256) failed: Connection timed out
[1741104277.890806] [ohm:837241:0]        ib_iface.c:1059 UCX  ERROR ibv_create_cq(cqe=256) failed: Connection timed out
[1741104277.893553] [ohm:837246:0]        ib_iface.c:1059 UCX  ERROR ibv_create_cq(cqe=256) failed: Connection timed out
[1741104277.903091] [ohm:837335:0]        ib_iface.c:1059 UCX  ERROR ibv_create_cq(cqe=256) failed: Connection timed out
[1741104277.914310] [ohm:837243:0]        ib_iface.c:1059 UCX  ERROR ibv_create_cq(cqe=256) failed: Connection timed out
[1741104277.915334] [ohm:837193:0]        ib_iface.c:1059 UCX  ERROR ibv_create_cq(cqe=256) failed: Connection timed out
[1741104277.915426] [ohm:837198:0]        ib_iface.c:1059 UCX  ERROR ibv_create_cq(cqe=256) failed: Connection timed out
[1741104277.915483] [ohm:837306:0]        ib_iface.c:1059 UCX  ERROR ibv_create_cq(cqe=256) failed: Connection timed out
[1741104277.917051] [ohm:837280:0]        ib_iface.c:1059 UCX  ERROR ibv_create_cq(cqe=256) failed: Connection timed out
[1741104277.924439] [ohm:837196:0]        ib_iface.c:1059 UCX  ERROR ibv_create_cq(cqe=256) failed: Connection timed out
[1741104277.927629] [ohm:837310:0]        ib_iface.c:1059 UCX  ERROR ibv_create_cq(cqe=256) failed: Connection timed out
[1741104277.935369] [ohm:837233:0]        ib_iface.c:1059 UCX  ERROR ibv_create_cq(cqe=256) failed: Connection timed out
[1741104277.938410] [ohm:837292:0]        ib_iface.c:1059 UCX  ERROR ibv_create_cq(cqe=256) failed: Connection timed out
[1741104277.949605] [ohm:837200:0]        ib_iface.c:1059 UCX  ERROR ibv_create_cq(cqe=256) failed: Connection timed out
[1741104277.950106] [ohm:837216:0]        ib_iface.c:1059 UCX  ERROR ibv_create_cq(cqe=256) failed: Connection timed out
[1741104277.951000] [ohm:837203:0]        ib_iface.c:1059 UCX  ERROR ibv_create_cq(cqe=256) failed: Connection timed out
[1741104277.952656] [ohm:837230:0]        ib_iface.c:1059 UCX  ERROR ibv_create_cq(cqe=256) failed: Connection timed out
[1741104277.957222] [ohm:837254:0]        ib_iface.c:1059 UCX  ERROR ibv_create_cq(cqe=256) failed: Connection timed out
[1741104277.957383] [ohm:837301:0]        ib_iface.c:1059 UCX  ERROR ibv_create_cq(cqe=256) failed: Connection timed out
[1741104277.958220] [ohm:837324:0]        ib_iface.c:1059 UCX  ERROR ibv_create_cq(cqe=256) failed: Connection timed out
[1741104277.958311] [ohm:837235:0]        ib_iface.c:1059 UCX  ERROR ibv_create_cq(cqe=256) failed: Connection timed out
[1741104277.960125] [ohm:837199:0]        ib_iface.c:1059 UCX  ERROR ibv_create_cq(cqe=256) failed: Connection timed out
[1741104277.960526] [ohm:837210:0]        ib_iface.c:1059 UCX  ERROR ibv_create_cq(cqe=256) failed: Connection timed out
[1741104277.961142] [ohm:837248:0]        ib_iface.c:1059 UCX  ERROR ibv_create_cq(cqe=256) failed: Connection timed out
[1741104277.961344] [ohm:837261:0]        ib_iface.c:1059 UCX  ERROR ibv_create_cq(cqe=256) failed: Connection timed out
[1741104277.962017] [ohm:837206:0]        ib_iface.c:1059 UCX  ERROR ibv_create_cq(cqe=256) failed: Connection timed out
[1741104277.964407] [ohm:837282:0]        ib_iface.c:1059 UCX  ERROR ibv_create_cq(cqe=256) failed: Connection timed out
[1741104277.964633] [ohm:837264:0]        ib_iface.c:1059 UCX  ERROR ibv_create_cq(cqe=256) failed: Connection timed out
[1741104277.965691] [ohm:837258:0]        ib_iface.c:1059 UCX  ERROR ibv_create_cq(cqe=256) failed: Connection timed out


           ************************************************************
           *        Program running with 64 parallel MPI-processes    *
           *              working on a common directory               *
           ************************************************************

-------------------------------------------------------------------------------------------
                                      ORCA LEAN-SCF
                              memory conserving SCF solver
-------------------------------------------------------------------------------------------

----------------------------------------D-I-I-S--------------------------------------------
Iteration    Energy (Eh)           Delta-E    RMSDP     MaxDP     DIISErr   Damp  Time(sec)
-------------------------------------------------------------------------------------------
               ***  Starting incremental Fock matrix formation  ***
    1    -908.1103224121516178     0.00e+00  1.67e-03  3.32e-01  1.48e-01  0.700   7.8
    2    -908.3824520445432427    -2.72e-01  1.29e-03  2.07e-01  6.91e-02  0.700   6.5
                               ***Turning on AO-DIIS***
    3    -908.5019199017560823    -1.19e-01  8.96e-04  1.23e-01  2.67e-02  0.700   5.7
    4    -908.5754985644211956    -7.36e-02  2.13e-03  2.24e-01  1.75e-02  0.000   5.6
    5    -908.7409651322268473    -1.65e-01  2.88e-04  8.68e-02  3.88e-03  0.000   5.7
                              *** Initializing SOSCF ***
---------------------------------------S-O-S-C-F--------------------------------------
Iteration    Energy (Eh)           Delta-E    RMSDP     MaxDP     MaxGrad    Time(sec)
--------------------------------------------------------------------------------------
    6    -908.7423231818042950    -1.36e-03  1.36e-04  4.69e-02  2.29e-03     6.4
               *** Restarting incremental Fock matrix formation ***
    7    -908.7429601191511210    -6.37e-04  2.86e-04  3.68e-02  3.81e-03     7.3
    8    -908.7433808601290366    -4.21e-04  2.49e-04  6.49e-02  2.18e-03     6.6
    9    -908.7435555625738743    -1.75e-04  1.48e-04  1.37e-02  1.07e-03     6.6
   10    -908.7436241596356012    -6.86e-05  3.38e-05  1.22e-02  5.29e-04     6.4
   11    -908.7436400973174386    -1.59e-05  1.11e-05  1.59e-03  2.18e-04     6.2
   12    -908.7436434985138476    -3.40e-06  7.45e-06  1.00e-03  1.62e-04     6.0
   13    -908.7436454840853912    -1.99e-06  6.06e-06  1.20e-03  5.85e-05     6.0
   14    -908.7436456643999918    -1.80e-07  1.43e-06  2.29e-04  2.30e-05     5.9
   15    -908.7436457595795218    -9.52e-08  1.30e-06  1.85e-04  1.24e-05     5.6
   16    -908.7436457622716262    -2.69e-09  8.13e-07  1.53e-04  5.53e-06     5.5
                 **** Energy Check signals convergence ****

               *****************************************************
               *                     SUCCESS                       *
               *           SCF CONVERGED AFTER  16 CYCLES          *
               *****************************************************

Recomputing exchange energy using gridx3       ... done (    7.848 sec)
Old exchange energy                            :    -35.047996099 Eh
New exchange energy                            :    -35.048004205 Eh
Exchange energy change after final integration :     -0.000008105 Eh
Total energy after final integration           :   -908.743653868 Eh
             **** ENERGY FILE WAS UPDATED (orca.en.tmp) ****

----------------
TOTAL SCF ENERGY
----------------

Total Energy       :       -908.74365386764975 Eh          -24728.17198 eV

Components:
Nuclear Repulsion  :       1435.69450318009876 Eh           39067.23357 eV
Electronic Energy  :      -2344.43814894237039 Eh          -63795.40533 eV
One Electron Energy:      -4087.91698404024191 Eh         -111237.87636 eV
Two Electron Energy:       1743.47883509787152 Eh           47442.47103 eV

Virial components:
Potential Energy   :      -1814.64223735840778 Eh          -49378.92565 eV
Kinetic Energy     :        905.89858349075803 Eh           24650.75368 eV
Virial Ratio       :          2.00314060583463

DFT components:
N(Alpha)           :       66.999875691699 electrons
N(Beta)            :       64.999904764725 electrons
N(Total)           :      131.999780456424 electrons
E(XC)              :      -86.292130220792 Eh       

---------------
SCF CONVERGENCE
---------------

  Last Energy change         ...    2.6921e-09  Tolerance :   1.0000e-08
  Last MAX-Density change    ...    1.5300e-04  Tolerance :   1.0000e-07
  Last RMS-Density change    ...    8.1255e-07  Tolerance :   5.0000e-09
  Last DIIS Error            ...    2.2908e-03  Tolerance :   5.0000e-07
  Last Orbital Gradient      ...    5.5295e-06  Tolerance :   1.0000e-05
  Last Orbital Rotation      ...    1.6010e-05  Tolerance :   1.0000e-05


----------------------
UHF SPIN CONTAMINATION
----------------------

Warning: in a DFT calculation there is little theoretical justification to 
         calculate <S**2> as in Hartree-Fock theory. We will do it anyways
         but you should keep in mind that the values have only limited relevance

Expectation value of <S**2>     :     2.015231
Ideal value S*(S+1) for S=1.0   :     2.000000
Deviation                       :     0.015231

----------------
ORBITAL ENERGIES
----------------
                 SPIN UP ORBITALS
  NO   OCC          E(Eh)            E(eV) 
   0   1.0000     -19.335716      -526.1516 
   1   1.0000     -19.333465      -526.0903 
   2   1.0000     -19.326267      -525.8945 
   3   1.0000     -19.322605      -525.7948 
   4   1.0000     -14.569621      -396.4596 
   5   1.0000     -14.567682      -396.4068 
   6   1.0000     -14.566273      -396.3684 
   7   1.0000     -14.560873      -396.2215 
   8   1.0000     -10.513760      -286.0939 
   9   1.0000     -10.506648      -285.9004 
  10   1.0000     -10.487650      -285.3835 
  11   1.0000     -10.477988      -285.1206 
  12   1.0000     -10.454283      -284.4755 
  13   1.0000     -10.451502      -284.3998 
  14   1.0000     -10.426433      -283.7177 
  15   1.0000     -10.425210      -283.6844 
  16   1.0000     -10.379439      -282.4389 
  17   1.0000     -10.370837      -282.2048 
  18   1.0000      -1.229655       -33.4606 
  19   1.0000      -1.217445       -33.1284 
  20   1.0000      -1.199303       -32.6347 
  21   1.0000      -1.190439       -32.3935 
  22   1.0000      -1.130731       -30.7688 
  23   1.0000      -1.108561       -30.1655 
  24   1.0000      -1.082247       -29.4494 
  25   1.0000      -1.049269       -28.5520 
  26   1.0000      -0.988447       -26.8970 
  27   1.0000      -0.956577       -26.0298 
  28   1.0000      -0.901723       -24.5371 
  29   1.0000      -0.851942       -23.1825 
  30   1.0000      -0.830627       -22.6025 
  31   1.0000      -0.808230       -21.9930 
  32   1.0000      -0.795073       -21.6350 
  33   1.0000      -0.780657       -21.2427 
  34   1.0000      -0.709454       -19.3052 
  35   1.0000      -0.705115       -19.1872 
  36   1.0000      -0.693641       -18.8749 
  37   1.0000      -0.683493       -18.5988 
  38   1.0000      -0.665755       -18.1161 
  39   1.0000      -0.642269       -17.4770 
  40   1.0000      -0.623721       -16.9723 
  41   1.0000      -0.609580       -16.5875 
  42   1.0000      -0.592650       -16.1268 
  43   1.0000      -0.589439       -16.0395 
  44   1.0000      -0.575702       -15.6656 
  45   1.0000      -0.573734       -15.6121 
  46   1.0000      -0.569223       -15.4893 
  47   1.0000      -0.566150       -15.4057 
  48   1.0000      -0.563894       -15.3443 
  49   1.0000      -0.559938       -15.2367 
  50   1.0000      -0.553048       -15.0492 
  51   1.0000      -0.540236       -14.7006 
  52   1.0000      -0.537876       -14.6363 
  53   1.0000      -0.531934       -14.4747 
  54   1.0000      -0.515783       -14.0352 
  55   1.0000      -0.509579       -13.8663 
  56   1.0000      -0.494392       -13.4531 
  57   1.0000      -0.425916       -11.5898 
  58   1.0000      -0.420079       -11.4309 
  59   1.0000      -0.415747       -11.3131 
  60   1.0000      -0.410882       -11.1807 
  61   1.0000      -0.400777       -10.9057 
  62   1.0000      -0.397316       -10.8115 
  63   1.0000      -0.392012       -10.6672 
  64   1.0000      -0.386952       -10.5295 
  65   1.0000      -0.350836        -9.5467 
  66   1.0000      -0.332314        -9.0427 
  67   0.0000       0.006646         0.1808 
  68   0.0000       0.030012         0.8167 
  69   0.0000       0.031451         0.8558 
  70   0.0000       0.035527         0.9667 
  71   0.0000       0.054591         1.4855 
  72   0.0000       0.055540         1.5113 
  73   0.0000       0.059902         1.6300 
  74   0.0000       0.062893         1.7114 
  75   0.0000       0.063622         1.7312 
  76   0.0000       0.067158         1.8275 
  77   0.0000       0.070820         1.9271 

                 SPIN DOWN ORBITALS
  NO   OCC          E(Eh)            E(eV) 
   0   1.0000     -19.330306      -526.0044 
   1   1.0000     -19.329954      -525.9948 
   2   1.0000     -19.326236      -525.8936 
   3   1.0000     -19.322409      -525.7895 
   4   1.0000     -14.569033      -396.4436 
   5   1.0000     -14.567660      -396.4062 
   6   1.0000     -14.565980      -396.3605 
   7   1.0000     -14.560427      -396.2094 
   8   1.0000     -10.513801      -286.0951 
   9   1.0000     -10.506688      -285.9015 
  10   1.0000     -10.488662      -285.4110 
  11   1.0000     -10.479186      -285.1531 
  12   1.0000     -10.454160      -284.4722 
  13   1.0000     -10.451038      -284.3872 
  14   1.0000     -10.414560      -283.3946 
  15   1.0000     -10.414099      -283.3821 
  16   1.0000     -10.379997      -282.4541 
  17   1.0000     -10.371405      -282.2203 
  18   1.0000      -1.228737       -33.4356 
  19   1.0000      -1.216340       -33.0983 
  20   1.0000      -1.195072       -32.5196 
  21   1.0000      -1.183070       -32.1930 
  22   1.0000      -1.128781       -30.7157 
  23   1.0000      -1.106933       -30.1212 
  24   1.0000      -1.080621       -29.4052 
  25   1.0000      -1.047396       -28.5011 
  26   1.0000      -0.976343       -26.5677 
  27   1.0000      -0.939341       -25.5608 
  28   1.0000      -0.895828       -24.3767 
  29   1.0000      -0.847090       -23.0505 
  30   1.0000      -0.821607       -22.3571 
  31   1.0000      -0.803698       -21.8697 
  32   1.0000      -0.793572       -21.5942 
  33   1.0000      -0.779068       -21.1995 
  34   1.0000      -0.704223       -19.1629 
  35   1.0000      -0.698135       -18.9972 
  36   1.0000      -0.688559       -18.7366 
  37   1.0000      -0.676653       -18.4127 
  38   1.0000      -0.658602       -17.9215 
  39   1.0000      -0.636655       -17.3243 
  40   1.0000      -0.619134       -16.8475 
  41   1.0000      -0.603948       -16.4343 
  42   1.0000      -0.587631       -15.9903 
  43   1.0000      -0.584236       -15.8979 
  44   1.0000      -0.572630       -15.5820 
  45   1.0000      -0.565966       -15.4007 
  46   1.0000      -0.563429       -15.3317 
  47   1.0000      -0.559647       -15.2288 
  48   1.0000      -0.555196       -15.1076 
  49   1.0000      -0.546379       -14.8677 
  50   1.0000      -0.543075       -14.7778 
  51   1.0000      -0.534807       -14.5528 
  52   1.0000      -0.530757       -14.4426 
  53   1.0000      -0.524316       -14.2674 
  54   1.0000      -0.508635       -13.8407 
  55   1.0000      -0.498957       -13.5773 
  56   1.0000      -0.489160       -13.3107 
  57   1.0000      -0.422025       -11.4839 
  58   1.0000      -0.416372       -11.3301 
  59   1.0000      -0.410664       -11.1747 
  60   1.0000      -0.401603       -10.9282 
  61   1.0000      -0.392067       -10.6687 
  62   1.0000      -0.387594       -10.5470 
  63   1.0000      -0.386080       -10.5058 
  64   1.0000      -0.377857       -10.2820 
  65   0.0000      -0.066946        -1.8217 
  66   0.0000      -0.051819        -1.4101 
  67   0.0000       0.006191         0.1685 
  68   0.0000       0.029674         0.8075 
  69   0.0000       0.031224         0.8496 
  70   0.0000       0.035330         0.9614 
  71   0.0000       0.054844         1.4924 
  72   0.0000       0.056652         1.5416 
  73   0.0000       0.059760         1.6261 
  74   0.0000       0.062450         1.6994 
  75   0.0000       0.064739         1.7617 
*Only the first 10 virtual orbitals were printed.

                    ********************************
                    * MULLIKEN POPULATION ANALYSIS *
                    ********************************

--------------------------------------------
MULLIKEN ATOMIC CHARGES AND SPIN POPULATIONS
--------------------------------------------
   0 O :   -0.669480    0.129353
   1 O :   -0.653316    0.202149
   2 O :   -0.653385    0.001359
   3 O :   -0.653144    0.006625
   4 N :   -0.172574    0.029682
   5 N :   -0.241423    0.027087
   6 N :    0.093048    0.028157
   7 N :   -0.004493    0.018244
   8 C :    0.029129    0.534788
   9 C :   -0.314509    0.362779
  10 C :    0.462527    0.094935
  11 C :    0.701244    0.162691
  12 C :   -1.384132    0.028648
  13 C :   -1.445303    0.045314
  14 C :    0.539503    0.106664
  15 C :    0.351637    0.094227
  16 C :    0.403677   -0.012682
  17 C :    0.417140   -0.003152
  18 H :    0.468739    0.015369
  19 H :    0.610503    0.044810
  20 H :    0.326344    0.006888
  21 H :    0.339521    0.006516
  22 H :    0.361218    0.022931
  23 H :    0.229712    0.026730
  24 H :    0.360706    0.022492
  25 H :    0.373946    0.001076
  26 H :    0.063405   -0.001118
  27 H :    0.044229   -0.001028
  28 H :   -0.077323   -0.000319
  29 H :    0.092852   -0.001215
Sum of atomic charges         :   -0.0000000
Sum of atomic spin populations:    2.0000000

-----------------------------------------------------
MULLIKEN REDUCED ORBITAL CHARGES AND SPIN POPULATIONS
-----------------------------------------------------
CHARGE
  0 O s       :     4.090330  s :     4.090330
      pz      :     1.655384  p :     4.549610
      px      :     1.335798
      py      :     1.558429
      dz2     :     0.002042  d :     0.027674
      dxz     :     0.006996
      dyz     :     0.001175
      dx2y2   :     0.007799
      dxy     :     0.009662
      f0      :     0.000225  f :     0.001866
      f+1     :     0.000228
      f-1     :     0.000083
      f+2     :     0.000136
      f-2     :     0.000218
      f+3     :     0.000535
      f-3     :     0.000440

  1 O s       :     4.097593  s :     4.097593
      pz      :     1.346330  p :     4.524807
      px      :     1.614879
      py      :     1.563598
[...]
[1741104548.794305] [ohm:839280:0]        ib_iface.c:1059 UCX  ERROR ibv_create_cq(cqe=256) failed: Connection timed out
[1741104548.797067] [ohm:839295:0]        ib_iface.c:1059 UCX  ERROR ibv_create_cq(cqe=256) failed: Connection timed out
[1741104548.797293] [ohm:839339:0]        ib_iface.c:1059 UCX  ERROR ibv_create_cq(cqe=256) failed: Connection timed out
[1741104548.797739] [ohm:839355:0]        ib_iface.c:1059 UCX  ERROR ibv_create_cq(cqe=256) failed: Connection timed out
[1741104548.797985] [ohm:839274:0]        ib_iface.c:1059 UCX  ERROR ibv_create_cq(cqe=256) failed: Connection timed out
[1741104548.799023] [ohm:839303:0]        ib_iface.c:1059 UCX  ERROR ibv_create_cq(cqe=256) failed: Connection timed out
[1741104548.801080] [ohm:839286:0]        ib_iface.c:1059 UCX  ERROR ibv_create_cq(cqe=256) failed: Connection timed out
[1741104548.801986] [ohm:839390:0]        ib_iface.c:1059 UCX  ERROR ibv_create_cq(cqe=256) failed: Connection timed out
[1741104548.803073] [ohm:839293:0]        ib_iface.c:1059 UCX  ERROR ibv_create_cq(cqe=256) failed: Connection timed out
[1741104548.803554] [ohm:839351:0]        ib_iface.c:1059 UCX  ERROR ibv_create_cq(cqe=256) failed: Connection timed out
[1741104548.804288] [ohm:839305:0]        ib_iface.c:1059 UCX  ERROR ibv_create_cq(cqe=256) failed: Connection timed out


           ************************************************************
           *        Program running with 64 parallel MPI-processes    *
           *              working on a common directory               *
           ************************************************************

------------------------------------------------------------------------------
                              ORCA PROPERTY CALCULATIONS
------------------------------------------------------------------------------

GBWName                                 ... orca.gbw
Number of atoms                         ...     30
Number of basis functions               ...    882
Max core memory                         ...   1024 MB

Electric properties:
Dipole moment                           ... YES
Quadrupole moment                       ...  NO
Static polarizability (Dipole/Dipole)   ...  NO
Static polarizability (Dipole/Quad.)    ...  NO
Static polarizability (Quad./Quad.)     ...  NO
Static polarizability (Velocity)        ...  NO

Atomic electric properties:
Dipole moment                           ...  NO
Quadrupole moment                       ...  NO
Static polarizability                   ...  NO

Choice of electric origin               ... Center of mass
Position of electric origin             ...    -0.017627    -0.083447    -0.041699

General magnetic properties:
Magnetizability                         ...  NO

EPR properties:
g-Tensor (aka g-matrix)                 ...  NO
Zero-Field splitting spin-orbit         ...  NO
Zero-field splitting spin-spin          ...  NO
Hyperfine couplings                     ...  NO (   0 nuclei)
Quadrupole couplings                    ...  NO (   0 nuclei)
Contact density                         ...  NO (   0 nuclei)

NMR properties:
Chemical shifts                         ...  NO (   0 nuclei)
Spin-rotation constants                 ...  NO (   0 nuclei)
Spin-spin couplings                     ...  NO (   0 nuclei,    0 pairs)

Choice of magnetic origin               ... GIAO
Position of magnetic origin             ...     0.000000     0.000000     0.000000

Properties with geometric perturbations:
SCF Hessian                             ...  NO
IR spectrum                             ...  NO
VCD spectrum                            ...  NO
X-ray spectroscopy properties:
SCF XES/XAS/RIXS spectra                ...  NO


-------------
DIPOLE MOMENT
-------------

Method             : SCF
Type of density    : Electron Density
Multiplicity       :   3
Irrep              :   0
Energy             :  -908.7436538676497548 Eh
Relativity type    : 
Basis              : AO
                                X                 Y                 Z
Electronic contribution:     -4.473761310      -8.463557251      -5.983374366
Nuclear contribution   :      4.817104938       9.669826536       8.234241118
                        -----------------------------------------
Total Dipole Moment    :      0.343343628       1.206269285       2.250866752
                        -----------------------------------------
Magnitude (a.u.)       :      2.576697803
Magnitude (Debye)      :      6.549445323



--------------------
Rotational spectrum 
--------------------
 
Rotational constants in cm-1:             0.021671             0.012115             0.011702 
Rotational constants in MHz :           649.680047           363.210543           350.814669 

Dipole components along the rotational axes: 
x,y,z [a.u.] :    -1.020756    -1.852813     1.471229 
x,y,z [Debye]:    -2.594555    -4.709475     3.739567 

 

-------------
DIPOLE MOMENT
-------------

Method             : TDA/CIS
Type of density    : Electron Density
Level              : Relaxed density
State              :   1
Multiplicity       :   3
Irrep              :   0
Energy             :     0.0000000000000000 Eh
Relativity type    : 
Basis              : AO
                                X                 Y                 Z
Electronic contribution:     -4.396588909      -8.450594053      -5.857205224
Nuclear contribution   :      4.817104938       9.669826536       8.234241118
                        -----------------------------------------
Total Dipole Moment    :      0.420516029       1.219232483       2.377035894
                        -----------------------------------------
Magnitude (a.u.)       :      2.704378158
Magnitude (Debye)      :      6.873982992



--------------------
Rotational spectrum 
--------------------
 
Rotational constants in cm-1:             0.021671             0.012115             0.011702 
Rotational constants in MHz :           649.680047           363.210543           350.814669 

Dipole components along the rotational axes: 
x,y,z [a.u.] :    -1.132216    -1.898519     1.558003 
x,y,z [Debye]:    -2.877865    -4.825651     3.960130 

 

Dipole moment calculation done in   0.2 sec 

Maximum memory used throughout the entire PROP-calculation: 81.6 MB
[1741104551.314974] [ohm:839615:0]        ib_iface.c:1059 UCX  ERROR ibv_create_cq(cqe=256) failed: Connection timed out
[1741104551.324821] [ohm:839617:0]        ib_iface.c:1059 UCX  ERROR ibv_create_cq(cqe=256) failed: Connection timed out
[1741104551.375259] [ohm:839629:0]        ib_iface.c:1059 UCX  ERROR ibv_create_cq(cqe=256) failed: Connection timed out
[1741104551.390131] [ohm:839619:0]        ib_iface.c:1059 UCX  ERROR ibv_create_cq(cqe=256) failed: Connection timed out
[1741104551.394167] [ohm:839622:0]        ib_iface.c:1059 UCX  ERROR ibv_create_cq(cqe=256) failed: Connection timed out
[1741104551.394286] [ohm:839618:0]        ib_iface.c:1059 UCX  ERROR ibv_create_cq(cqe=256) failed: Connection timed out
[1741104551.395144] [ohm:839638:0]        ib_iface.c:1059 UCX  ERROR ibv_create_cq(cqe=256) failed: Connection timed out
[1741104551.395590] [ohm:839616:0]        ib_iface.c:1059 UCX  ERROR ibv_create_cq(cqe=256) failed: Connection timed out
[1741104551.428902] [ohm:839621:0]        ib_iface.c:1059 UCX  ERROR ibv_create_cq(cqe=256) failed: Connection timed out
[1741104551.445968] [ohm:839641:0]        ib_iface.c:1059 UCX  ERROR ibv_create_cq(cqe=256) failed: Connection timed out
[1741104551.455998] [ohm:839635:0]        ib_iface.c:1059 UCX  ERROR ibv_create_cq(cqe=256) failed: Connection timed out
[1741104551.487225] [ohm:839628:0]        ib_iface.c:1059 UCX  ERROR ibv_create_cq(cqe=256) failed: Connection timed out
[1741104551.499718] [ohm:839644:0]        ib_iface.c:1059 UCX  ERROR ibv_create_cq(cqe=256) failed: Connection timed out
[1741104551.507887] [ohm:839632:0]        ib_iface.c:1059 UCX  ERROR ibv_create_cq(cqe=256) failed: Connection timed out
[1741104551.510088] [ohm:839623:0]        ib_iface.c:1059 UCX  ERROR ibv_create_cq(cqe=256) failed: Connection timed out
[1741104551.517163] [ohm:839627:0]        ib_iface.c:1059 UCX  ERROR ibv_create_cq(cqe=256) failed: Connection timed out
[1741104551.518239] [ohm:839624:0]        ib_iface.c:1059 UCX  ERROR ibv_create_cq(cqe=256) failed: Connection timed out
[1741104551.521924] [ohm:839625:0]        ib_iface.c:1059 UCX  ERROR ibv_create_cq(cqe=256) failed: Connection timed out
[1741104551.541968] [ohm:839707:0]        ib_iface.c:1059 UCX  ERROR ibv_create_cq(cqe=256) failed: Connection timed out
[1741104551.544192] [ohm:839669:0]        ib_iface.c:1059 UCX  ERROR ibv_create_cq(cqe=256) failed: Connection timed out
[1741104551.547878] [ohm:839704:0]        ib_iface.c:1059 UCX  ERROR ibv_create_cq(cqe=256) failed: Connection timed out
[1741104551.550956] [ohm:839636:0]        ib_iface.c:1059 UCX  ERROR ibv_create_cq(cqe=256) failed: Connection timed out
[1741104551.551606] [ohm:839712:0]        ib_iface.c:1059 UCX  ERROR ibv_create_cq(cqe=256) failed: Connection timed out
[1741104551.553397] [ohm:839631:0]        ib_iface.c:1059 UCX  ERROR ibv_create_cq(cqe=256) failed: Connection timed out
[1741104551.561670] [ohm:839661:0]        ib_iface.c:1059 UCX  ERROR ibv_create_cq(cqe=256) failed: Connection timed out
[1741104551.577153] [ohm:839634:0]        ib_iface.c:1059 UCX  ERROR ibv_create_cq(cqe=256) failed: Connection timed out
[1741104551.603575] [ohm:839717:0]        ib_iface.c:1059 UCX  ERROR ibv_create_cq(cqe=256) failed: Connection timed out
[1741104551.604707] [ohm:839674:0]        ib_iface.c:1059 UCX  ERROR ibv_create_cq(cqe=256) failed: Connection timed out
[1741104551.614597] [ohm:839744:0]        ib_iface.c:1059 UCX  ERROR ibv_create_cq(cqe=256) failed: Connection timed out
[1741104551.616681] [ohm:839643:0]        ib_iface.c:1059 UCX  ERROR ibv_create_cq(cqe=256) failed: Connection timed out
[1741104551.624561] [ohm:839737:0]        ib_iface.c:1059 UCX  ERROR ibv_create_cq(cqe=256) failed: Connection timed out
[1741104551.639686] [ohm:839633:0]        ib_iface.c:1059 UCX  ERROR ibv_create_cq(cqe=256) failed: Connection timed out
[1741104551.640143] [ohm:839684:0]        ib_iface.c:1059 UCX  ERROR ibv_create_cq(cqe=256) failed: Connection timed out
[1741104551.642476] [ohm:839667:0]        ib_iface.c:1059 UCX  ERROR ibv_create_cq(cqe=256) failed: Connection timed out
[1741104551.653315] [ohm:839748:0]        ib_iface.c:1059 UCX  ERROR ibv_create_cq(cqe=256) failed: Connection timed out
[1741104551.663001] [ohm:839626:0]        ib_iface.c:1059 UCX  ERROR ibv_create_cq(cqe=256) failed: Connection timed out
[1741104551.663740] [ohm:839694:0]        ib_iface.c:1059 UCX  ERROR ibv_create_cq(cqe=256) failed: Connection timed out
[1741104551.666486] [ohm:839630:0]        ib_iface.c:1059 UCX  ERROR ibv_create_cq(cqe=256) failed: Connection timed out
[1741104551.669915] [ohm:839620:0]        ib_iface.c:1059 UCX  ERROR ibv_create_cq(cqe=256) failed: Connection timed out
[1741104551.681688] [ohm:839741:0]        ib_iface.c:1059 UCX  ERROR ibv_create_cq(cqe=256) failed: Connection timed out
[1741104551.684317] [ohm:839681:0]        ib_iface.c:1059 UCX  ERROR ibv_create_cq(cqe=256) failed: Connection timed out
[1741104551.685299] [ohm:839753:0]        ib_iface.c:1059 UCX  ERROR ibv_create_cq(cqe=256) failed: Connection timed out
[1741104551.685283] [ohm:839698:0]        ib_iface.c:1059 UCX  ERROR ibv_create_cq(cqe=256) failed: Connection timed out
[1741104551.690153] [ohm:839647:0]        ib_iface.c:1059 UCX  ERROR ibv_create_cq(cqe=256) failed: Connection timed out
[1741104551.691595] [ohm:839640:0]        ib_iface.c:1059 UCX  ERROR ibv_create_cq(cqe=256) failed: Connection timed out
[1741104551.694590] [ohm:839723:0]        ib_iface.c:1059 UCX  ERROR ibv_create_cq(cqe=256) failed: Connection timed out
[1741104551.694858] [ohm:839729:0]        ib_iface.c:1059 UCX  ERROR ibv_create_cq(cqe=256) failed: Connection timed out
[1741104551.699284] [ohm:839678:0]        ib_iface.c:1059 UCX  ERROR ibv_create_cq(cqe=256) failed: Connection timed out
[1741104551.703916] [ohm:839652:0]        ib_iface.c:1059 UCX  ERROR ibv_create_cq(cqe=256) failed: Connection timed out
[1741104551.707205] [ohm:839751:0]        ib_iface.c:1059 UCX  ERROR ibv_create_cq(cqe=256) failed: Connection timed out
[1741104551.708376] [ohm:839665:0]        ib_iface.c:1059 UCX  ERROR ibv_create_cq(cqe=256) failed: Connection timed out
[1741104551.710419] [ohm:839727:0]        ib_iface.c:1059 UCX  ERROR ibv_create_cq(cqe=256) failed: Connection timed out
[1741104551.711143] [ohm:839761:0]        ib_iface.c:1059 UCX  ERROR ibv_create_cq(cqe=256) failed: Connection timed out
[1741104551.711676] [ohm:839734:0]        ib_iface.c:1059 UCX  ERROR ibv_create_cq(cqe=256) failed: Connection timed out
[1741104551.716033] [ohm:839639:0]        ib_iface.c:1059 UCX  ERROR ibv_create_cq(cqe=256) failed: Connection timed out
[1741104551.717310] [ohm:839725:0]        ib_iface.c:1059 UCX  ERROR ibv_create_cq(cqe=256) failed: Connection timed out
[1741104551.718656] [ohm:839688:0]        ib_iface.c:1059 UCX  ERROR ibv_create_cq(cqe=256) failed: Connection timed out
[1741104551.719992] [ohm:839656:0]        ib_iface.c:1059 UCX  ERROR ibv_create_cq(cqe=256) failed: Connection timed out
[1741104551.720978] [ohm:839637:0]        ib_iface.c:1059 UCX  ERROR ibv_create_cq(cqe=256) failed: Connection timed out
[1741104551.721164] [ohm:839642:0]        ib_iface.c:1059 UCX  ERROR ibv_create_cq(cqe=256) failed: Connection timed out
[1741104551.721323] [ohm:839693:0]        ib_iface.c:1059 UCX  ERROR ibv_create_cq(cqe=256) failed: Connection timed out
[1741104551.721582] [ohm:839720:0]        ib_iface.c:1059 UCX  ERROR ibv_create_cq(cqe=256) failed: Connection timed out
[1741104551.724171] [ohm:839732:0]        ib_iface.c:1059 UCX  ERROR ibv_create_cq(cqe=256) failed: Connection timed out
[1741104551.724457] [ohm:839687:0]        ib_iface.c:1059 UCX  ERROR ibv_create_cq(cqe=256) failed: Connection timed out

--------------------------------
SUGGESTED CITATIONS FOR THIS RUN
--------------------------------

Below you find a list of papers that are relevant to this ORCA run
We neither can nor want to force you to cite these papers, but we appreciate if you do
You receive ORCA, which is the product of decades of hard work by many enthusiastic individuals, for free
The only thing we kindly ask in return is that you cite our papers,
We deeply appreciate it, if you show your appreciation for ORCA by not just citing the generic ORCA reference.

Please note that relegating all ORCA citations to the supporting information does *not* help us.
SI sections are not indexed - citations you put there will not count into any citation statistics
But we need these citations in order to attract the funding resources that allow us to do what we are doing

Therefore, if you are a happy ORCA user, please consider citing a few of the papers listed below in the main body of your paper

In addition to the list printed below, the program has created the file orca.bibtex that contains the list in bibtex format
You can import this file easily into all common literature databanks and citation aid programs


List of essential papers. We consider these as the minimum necessary citations

  1. Neese,F.
     Software update: the ORCA program system, version 5.0
     WIRES Comput. Molec. Sci., 2022 12(1)e1606
     doi.org/10.1002/wcms.1606

List of papers to cite with high priority. The work reported in these papers was absolutely
necessary for this run to complete.
Our perspective: the developers of density functionals and basis sets usually get cited in chemistry papers
Good! But without the algorithms to do something with them, the functionals or basis sets would not do anything.
Hence, in our opinion, the algorithm design and method developments papers are equally worthy of getting cited

  1. Neese,F.; Olbrich,G.
     Efficient use of the resolution of the identity approximation in time-dependent density functional calculations with hybrid density functionals
     Chem. Phys. Lett., 2002 362 170-178
     doi.org/10.1016/s0009-2614(02)01053-9
  2. Neese,F.
     An improvement of the resolution of the identity approximation for the formation of the Coulomb matrix
     J. Comp. Chem., 2003 24(14)1740-1747
     doi.org/10.1002/jcc.10318
  3. Neese,F.; Wennmohs,F.; Hansen,A.; Becker,U.
     Efficient, approximate and parallel Hartree-Fock and hybrid DFT calculations. A 'chain-of-spheres' algorithm for the Hartree-Fock exchange
     Chem. Phys., 2009 356(1-3)98-109
     doi.org/10.1016/j.chemphys.2008.10.036
  4. Petrenko,T.; Kossmann,S.; Neese,F.
     Efficient time-dependent density functional theory approximations for hybrid density functionals: Analytical gradients and parallelization
     J. Chem. Phys., 2011 134 054116
     doi.org/10.1063/1.3533441
  5. Helmich-Paris,B.; de Souza,B.; Neese,F.; Izsák,R.
     An improved chain of spheres for exchange algorithm
     J. Chem. Phys., 2021 155 104109
     doi.org/doi: 10.1063/5.0058766.
  6. Neese,F.
     The SHARK Integral Generation and Digestion System
     J. Comp. Chem., 2022  1-16
     doi.org/10.1002/jcc.26942
  7. Lehtola,S.; Steigemann,C.; Oliveira,M.; Marques,M.
     Recent developments in Libxc - A comprehensive library of functionals for density functional theory
     Software X, 2018 7 
     doi.org/10.1016/j.softx.2017.11.002
  8. Grimme,S.; Antony,J.; Ehrlich,S.; Krieg,H.
     A consistent and accurate ab initio parametrization of density functional dispersion correction (DFT-D) for the 94 elements H-Pu
     J. Chem. Phys., 2010 132 154104-XXXX
     doi.org/10.1063/1.3382344
  9. Grimme,S.; Ehrlich,S.; Goerigk,L.
     Effect of the damping function in dispersion corrected density functional theory
     J. Comput. Chem., 2011 32(7)1456-1465
     doi.org/10.1002/jcc.21759

List of suggested additional citations. These are papers that are important in the 'surrounding' of 
of this run, or papers that preceded the highly important papers. If you like your results we are grateful for a citation.

  1. Izsak,R.; Neese,F.
     An overlap fitted chain of spheres exchange method
     J. Chem. Phys., 2011 135 144105
     doi.org/10.1063/1.3646921
  2. Izsak,R.; Hansen,A.; Neese,F.
     The resolution of identity and chain of spheres approximations for the LPNO-CCSD singles Fock term
     Molec. Phys., 2012 110 2413-2417
     doi.org/10.1080/00268976.2012.687466
  3. Neese,F.
     The ORCA program system
     WIRES Comput. Molec. Sci., 2012 2(1)73-78
     doi.org/10.1002/wcms.81
  4. Izsak,R.; Neese,F.; Klopper,W.
     Robust fitting techniques in the chain of spheres approximation to the Fock exchange: The role of the complementary space
     J. Chem. Phys., 2013 139 
     doi.org/10.1063/1.4819264
  5. Neese,F.
     Software update: the ORCA program system, version 4.0
     WIRES Comput. Molec. Sci., 2018 8(1)1-6
     doi.org/10.1002/wcms.1327
  6. Neese,F.; Wennmohs,F.; Becker,U.; Riplinger,C.
     The ORCA quantum chemistry program package
     J. Chem. Phys., 2020 152 Art. No. L224108
     doi.org/10.1063/5.0004608

List of optional additional citations

  1. Neese,F.
     Approximate second-order SCF convergence for spin unrestricted wavefunctions
     Chem. Phys. Lett., 2000 325(1-3)93-98
     doi.org/10.1016/s0009-2614(00)00662-x

Timings for individual modules:

Sum of individual times          ...      284.308 sec (=   4.738 min)
Startup calculation              ...        6.500 sec (=   0.108 min)   2.3 %
SCF iterations                   ...      117.592 sec (=   1.960 min)  41.4 %
Property integrals               ...        4.293 sec (=   0.072 min)   1.5 %
Property calculations            ...        2.888 sec (=   0.048 min)   1.0 %
CIS module                       ...      153.036 sec (=   2.551 min)  53.8 %
                             ****ORCA TERMINATED NORMALLY****
TOTAL RUN TIME: 0 days 0 hours 4 minutes 46 seconds 549 msec
