
                                 *****************
                                 * O   R   C   A *
                                 *****************

                                            #,                                       
                                            ###                                      
                                            ####                                     
                                            #####                                    
                                            ######                                   
                                           ########,                                 
                                     ,,################,,,,,                         
                               ,,#################################,,                 
                          ,,##########################################,,             
                       ,#########################################, ''#####,          
                    ,#############################################,,   '####,        
                  ,##################################################,,,,####,       
                ,###########''''           ''''###############################       
              ,#####''   ,,,,##########,,,,          '''####'''          '####       
            ,##' ,,,,###########################,,,                        '##       
           ' ,,###''''                  '''############,,,                           
         ,,##''                                '''############,,,,        ,,,,,,###''
      ,#''                                            '''#######################'''  
     '                                                          ''''####''''         
             ,#######,   #######,   ,#######,      ##                                
            ,#'     '#,  ##    ##  ,#'     '#,    #''#        ,####,   ,####,        
            ##       ##  ##   ,#'  ##            #'  '#       #'       #'  '#        
            ##       ##  #######   ##           ,######,      #####,   #    #        
            '#,     ,#'  ##    ##  '#,     ,#' ,#      #,     #,   #   #,  ,#        
             '#######'   ##     ##  '#######'  #'      '#     '####' # '####'        



                #########################################################
                #                        -***-                          #
                #          Department of theory and spectroscopy        #
                #                                                       #
                #                      Frank Neese                      #
                #                                                       #
                #     Directorship, Architecture, Infrastructure        #
                #                    SHARK, DRIVERS                     #
                #        Core code/Algorithms in most modules           #
                #                                                       #
                #        Max Planck Institute fuer Kohlenforschung      #
                #                Kaiser Wilhelm Platz 1                 #
                #                 D-45470 Muelheim/Ruhr                 #
                #                      Germany                          #
                #                                                       #
                #                  All rights reserved                  #
                #                        -***-                          #
                #########################################################


                         Program Version 6.0.0  -   RELEASE  -


 With contributions from (in alphabetic order):
   Daniel Aravena         : Magnetic Suceptibility
   Michael Atanasov       : Ab Initio Ligand Field Theory (pilot matlab implementation)
   Alexander A. Auer      : GIAO ZORA, VPT2 properties, NMR spectrum
   Ute Becker             : All parallelization in ORCA, NUMFREQ, NUMCALC
   Giovanni Bistoni       : ED, misc. LED, open-shell LED, HFLD
   Martin Brehm           : Molecular dynamics
   Dmytro Bykov           : pre 5.0 version of the SCF Hessian
   Marcos Casanova-Páez   : Triplet and SCS-CIS(D). UHF-(DLPNO)-IP/EA/STEOM-CCSD. UHF-CVS-IP/STEOM-CCSD
   Vijay G. Chilkuri      : MRCI spin determinant printing, contributions to CSF-ICE
   Pauline Colinet        : FMM embedding
   Dipayan Datta          : RHF DLPNO-CCSD density
   Achintya Kumar Dutta   : EOM-CC, STEOM-CC
   Nicolas Foglia         : Exact transition moments, OPA infrastructure, MCD improvements
   Dmitry Ganyushin       : Spin-Orbit,Spin-Spin,Magnetic field MRCI
   Miquel Garcia          : C-PCM and meta-GGA Hessian, CCSD/C-PCM, Gaussian charge scheme
   Tiago L. C. Gouveia    : GS-ROHF, GS-ROCIS
   Yang Guo               : DLPNO-NEVPT2, F12-NEVPT2, CIM, IAO-localization
   Andreas Hansen         : Spin unrestricted coupled pair/coupled cluster methods
   Ingolf Harden          : AUTO-CI MPn and infrastructure 
   Benjamin Helmich-Paris : MC-RPA, TRAH-(SCF,CASSCF), AVAS, COSX integrals, SCF dyn. polar.
   Lee Huntington         : MR-EOM, pCC
   Robert Izsak           : Overlap fitted RIJCOSX, COSX-SCS-MP3, EOM
   Riya Kayal             : Wick's Theorem for AUTO-CI, AUTO-CI UHF-CCSDT
   Emily Kempfer          : AUTO-CI, RHF CISDT and CCSDT
   Christian Kollmar      : KDIIS, OOCD, Brueckner-CCSD(T), CCSD density, CASPT2, CASPT2-K, improved NEVPT2
   Axel Koslowski         : Symmetry handling
   Simone Kossmann        : Meta GGA functionals, TD-DFT gradient, OOMP2, (MP2 Hessian; deprecated post 5.0)
   Lucas Lang             : DCDCAS
   Marvin Lechner         : AUTO-CI (C++ implementation), FIC-MRCC
   Spencer Leger          : CASSCF response
   Dagmar Lenk            : GEPOL surface, SMD, ORCA-2-JSON
   Dimitrios Liakos       : Extrapolation schemes; Compound Job, initial MDCI parallelization
   Dimitrios Manganas     : Further ROCIS development; embedding schemes. LFT, Crystal Embedding
   Dimitrios Pantazis     : SARC Basis sets
   Anastasios Papadopoulos: AUTO-CI, single reference methods and gradients
   Taras Petrenko         : pre 6.0 DFT Hessian and TD-DFT gradient, (ASA, deprecated), ECA, 1-Electron XAS/XES, NRVS
   Peter Pinski           : DLPNO-MP2, DLPNO-MP2 Gradient
   Christoph Reimann      : Effective Core Potentials
   Marius Retegan         : Local ZFS, SOC
   Christoph Riplinger    : Optimizer, TS searches, QM/MM, DLPNO-CCSD(T), (RO)-DLPNO pert. Triples
   Michael Roemelt        : Original ROCIS implementation
   Masaaki Saitow         : Open-shell DLPNO-CCSD energy and density
   Barbara Sandhoefer     : DKH picture change effects
   Kantharuban Sivalingam : CASSCF convergence/infrastructure, NEVPT2 and variants, FIC-MRCI
   Bernardo de Souza      : ESD, SOC TD-DFT
   Georgi Stoychev        : AutoAux, RI-MP2 NMR, DLPNO-MP2 response, X2C
   Van Anh Tran           : RI-MP2 g-tensors
   Willem Van den Heuvel  : Paramagnetic NMR
   Zikuan Wang            : NOTCH, Electric field optimization 
   Frank Wennmohs         : Technical directorship and infrastructure
   Hang Xu                : AUTO-CI-Response properties 


 We gratefully acknowledge several colleagues who have allowed us to
 interface, adapt or use parts of their codes:
   Stefan Grimme, W. Hujo, H. Kruse, P. Pracht,  : VdW corrections, initial TS optimization,
                  C. Bannwarth, S. Ehlert,         DFT functionals, gCP, sTDA/sTD-DF
                  L. Wittmann, M. Mueller
   Ed Valeev, F. Pavosevic, A. Kumar             : LibInt (2-el integral package), F12 methods
   Garnet Chan, S. Sharma, J. Yang, R. Olivares  : DMRG
   Ulf Ekstrom                                   : XCFun DFT Library
   Mihaly Kallay                                 : mrcc  (arbitrary order and MRCC methods)
   Frank Weinhold                                : gennbo (NPA and NBO analysis)
   Simon Mueller                                 : openCOSMO-RS
   Christopher J. Cramer and Donald G. Truhlar   : smd solvation model
   Lars Goerigk                                  : TD-DFT with DH, B97 family of functionals
   V. Asgeirsson, H. Jonsson                     : NEB implementation
   FAccTs GmbH                                   : IRC, NEB, NEB-TS, DLPNO-Multilevel, CI-OPT
                                                   MM, QMMM, 2- and 3-layer-ONIOM, Crystal-QMMM,
                                                   LR-CPCM, SF, NACMEs, symmetry and pop. for TD-DFT,
                                                   nearIR, NL-DFT gradient (VV10), updates on ESD,
                                                   ML-optimized integration grids, MBIS, APM,
                                                   GOAT, DOCKER, SOLVATOR, interface openCOSMO-RS
   S Lehtola, MJT Oliveira, MAL Marques          : LibXC Library
   Liviu Ungur et al                             : ANISO software


 Your calculation uses the libint2 library for the computation of 2-el integrals
 For citations please refer to: http://libint.valeyev.net

 Your ORCA version has been built with support for libXC version: 6.2.2
 For citations please refer to: https://libxc.gitlab.io

 This ORCA versions uses:
   CBLAS   interface :  Fast vector & matrix operations
   LAPACKE interface :  Fast linear algebra routines
   SCALAPACK package :  Parallel linear algebra routines
   Shared memory     :  Shared parallel matrices
   BLAS/LAPACK       :  OpenBLAS 0.3.27  USE64BITINT DYNAMIC_ARCH NO_AFFINITY Zen SINGLE_THREADED
        Core in use  :  Zen
   Copyright (c) 2011-2014, The OpenBLAS Project


Your calculation utilizes the atom-pairwise dispersion correction
with the Becke-Johnson damping scheme (D3BJ)


Warning: RI is on but no J-basis has been assigned. Assigning Def2/J (nothing to worry about!)
================================================================================

----- Orbital basis set information -----
Your calculation utilizes the basis: def2-TZVPPD
   F. Weigend and R. Ahlrichs, Phys. Chem. Chem. Phys. 7, 3297 (2005).
   D. Rappoport and F. Furche, J. Chem. Phys. 133, 134105 (2010)
   D. Rappoport, J. Chem. Phys. 155, 124102 (2021).

----- AuxJ basis set information -----
Your calculation utilizes the auxiliary basis: def2/J
   F. Weigend, Phys. Chem. Chem. Phys. 8, 1057 (2006).

================================================================================
                                        WARNINGS
                       Please study these warnings very carefully!
================================================================================

Using LibXC functional ID 531 : wB97M-V exchange-correlation functional
[ 1]  N. Mardirossian and M. Head-Gordon.,  J. Chem. Phys. 144, 214110 (2016)
Using LibXC functional ID 531 : wB97M-V exchange-correlation functional
[ 1]  N. Mardirossian and M. Head-Gordon.,  J. Chem. Phys. 144, 214110 (2016)

WARNING: B97M-V or wB97M-V functional requested.
  ===> : libXC variant has now been activated.
         Any manually given DFX/HFX/RangeSep scaling parameters are IGNORED!

Your calculation utilizes LibXC
 by S Lehtola, C Steigemann, MJT Oliveira & MAL Marques
Please cite in your paper:
 S Lehtola, C Steigemann, MJT Oliveira & MAL Marques, SoftwareX, 7, (2018), 1.
   


WARNING: your system is open-shell and RHF/RKS was chosen
  ===> : WILL SWITCH to UHF/UKS

INFO   : Checking CIS options ...

WARNING: CIS/ROCIS methods need fully converged wavefunctions
  ===> : Setting SCFConvForced true
         You can overwrite this default with %scf ConvForced false 


================================================================================
                                       INPUT FILE
================================================================================
NAME = orca.inp
|  1> ! Engrad def2-TZVPPD wB97M-D3BJ 
|  2> %pal nprocs 8 end%pal nprocs 64 end 
|  3> %tddft 
|  4>  Iroot 2 Nroots 3 
|  5> sf true 
|  6> end 
|  7> *xyz 0 3 
|  8> O   3.12554258 0.66424679 -0.70885357
|  9> O   -0.47332895 1.38582226 -2.40734597
| 10> O   0.4806997 -3.15171169 -0.51228786
| 11> O   -2.96360491 -1.79782959 -0.22308699
| 12> N   0.11859493 -1.45806181 1.07624305
| 13> N   -2.18417103 -0.09353287 0.97119836
| 14> N   1.73961665 -1.16044287 -0.64927781
| 15> N   -1.62894993 -0.29199346 -1.33625418
| 16> C   1.49093489 0.49145118 1.01621291
| 17> C   -0.74191385 1.59459312 -0.03072222
| 18> C   0.27129078 -0.11448267 1.57439191
| 19> C   -1.10033856 0.79971183 1.15470845
| 20> C   2.16692475 1.5415024 1.97122097
| 21> C   -0.14007645 2.95483819 -0.12396049
| 22> C   2.20739895 0.06324894 -0.14614436
| 23> C   -0.95612973 0.99595395 -1.36430029
| 24> C   0.78727192 -2.04761168 -0.03658588
| 25> C   -2.32418967 -0.7898227 -0.20044328
| 26> H   0.33084805 -0.10678239 2.66875034
| 27> H   -1.31667453 1.41029386 2.02344654
| 28> H   2.60239796 0.9005488 2.78679897
| 29> H   2.93197981 2.06727131 1.41059397
| 30> H   1.43187645 2.15344742 2.48218366
| 31> H   -0.72403448 3.60735234 -0.7258179
| 32> H   -0.02308403 3.42762237 0.82561877
| 33> H   0.83149867 2.86166257 -0.63437482
| 34> H   -0.68472333 -1.91399151 1.45916003
| 35> H   -2.83137633 -0.30192098 1.65355355
| 36> H   1.91378063 -1.33386563 -1.62973317
| 37> H   -1.78834781 -0.76737 -2.19676385
| 38> *
| 39> 
| 40>                          ****END OF INPUT****
================================================================================

                     *******************************
                     * Energy+Gradient Calculation *
                     *******************************

---------------------------------
CARTESIAN COORDINATES (ANGSTROEM)
---------------------------------
  O      3.125543    0.664247   -0.708854
  O     -0.473329    1.385822   -2.407346
  O      0.480700   -3.151712   -0.512288
  O     -2.963605   -1.797830   -0.223087
  N      0.118595   -1.458062    1.076243
  N     -2.184171   -0.093533    0.971198
  N      1.739617   -1.160443   -0.649278
  N     -1.628950   -0.291993   -1.336254
  C      1.490935    0.491451    1.016213
  C     -0.741914    1.594593   -0.030722
  C      0.271291   -0.114483    1.574392
  C     -1.100339    0.799712    1.154708
  C      2.166925    1.541502    1.971221
  C     -0.140076    2.954838   -0.123960
  C      2.207399    0.063249   -0.146144
  C     -0.956130    0.995954   -1.364300
  C      0.787272   -2.047612   -0.036586
  C     -2.324190   -0.789823   -0.200443
  H      0.330848   -0.106782    2.668750
  H     -1.316675    1.410294    2.023447
  H      2.602398    0.900549    2.786799
  H      2.931980    2.067271    1.410594
  H      1.431876    2.153447    2.482184
  H     -0.724034    3.607352   -0.725818
  H     -0.023084    3.427622    0.825619
  H      0.831499    2.861663   -0.634375
  H     -0.684723   -1.913992    1.459160
  H     -2.831376   -0.301921    1.653554
  H      1.913781   -1.333866   -1.629733
  H     -1.788348   -0.767370   -2.196764

----------------------------
CARTESIAN COORDINATES (A.U.)
----------------------------
  NO LB      ZA    FRAG     MASS         X           Y           Z
   0 O     8.0000    0    15.999    5.906419    1.255245   -1.339539
   1 O     8.0000    0    15.999   -0.894462    2.618825   -4.549225
   2 O     8.0000    0    15.999    0.908391   -5.955872   -0.968084
   3 O     8.0000    0    15.999   -5.600402   -3.397406   -0.421573
   4 N     7.0000    0    14.007    0.224112   -2.755338    2.033805
   5 N     7.0000    0    14.007   -4.127485   -0.176752    1.835299
   6 N     7.0000    0    14.007    3.287399   -2.192919   -1.226957
   7 N     7.0000    0    14.007   -3.078269   -0.551788   -2.525154
   8 C     6.0000    0    12.011    2.817459    0.928708    1.920364
   9 C     6.0000    0    12.011   -1.402014    3.013344   -0.058057
  10 C     6.0000    0    12.011    0.512665   -0.216341    2.975170
  11 C     6.0000    0    12.011   -2.079339    1.511236    2.182083
  12 C     6.0000    0    12.011    4.094894    2.913017    3.725068
  13 C     6.0000    0    12.011   -0.264706    5.583835   -0.234251
  14 C     6.0000    0    12.011    4.171379    0.119523   -0.276173
  15 C     6.0000    0    12.011   -1.806823    1.882080   -2.578154
  16 C     6.0000    0    12.011    1.487728   -3.869425   -0.069137
  17 C     6.0000    0    12.011   -4.392082   -1.492549   -0.378783
  18 H     1.0000    0     1.008    0.625212   -0.201789    5.043207
  19 H     1.0000    0     1.008   -2.488154    2.665069    3.823760
  20 H     1.0000    0     1.008    4.917819    1.701791    5.266287
  21 H     1.0000    0     1.008    5.540639    3.906577    2.665636
  22 H     1.0000    0     1.008    2.705854    4.069426    4.690647
  23 H     1.0000    0     1.008   -1.368227    6.816908   -1.371597
  24 H     1.0000    0     1.008   -0.043622    6.477268    1.560193
  25 H     1.0000    0     1.008    1.571305    5.407759   -1.198795
  26 H     1.0000    0     1.008   -1.293940   -3.616920    2.757413
  27 H     1.0000    0     1.008   -5.350526   -0.570548    3.124763
  28 H     1.0000    0     1.008    3.616521   -2.520641   -3.079749
  29 H     1.0000    0     1.008   -3.379488   -1.450119   -4.151282

--------------------------------
INTERNAL COORDINATES (ANGSTROEM)
--------------------------------
 O      0   0   0     0.000000000000     0.00000000     0.00000000
 O      1   0   0     4.044431218504     0.00000000     0.00000000
 O      1   2   0     4.647081994039    69.99065350     0.00000000
 O      3   1   2     3.712124476681   103.40804282   328.41703910
 N      3   1   2     2.350106430038    61.60847219   280.06872427
 N      4   3   1     2.222265056270    89.77911467   325.92793018
 N      1   2   3     2.292123973509    67.35057366   359.64689878
 N      4   3   1     2.299562471199    70.28125486    27.76364422
 C      7   1   2     2.358909898362    61.61617183   277.45181006
 C      2   1   3     2.400846427733    72.50272184    81.20547833
 C      5   3   1     1.441066693380   152.77908346    15.13103571
 C      6   4   3     1.416423266625   145.25068517    35.03232810
 C      9   7   1     1.572135569889   148.35204459   323.53035518
 C     10   2   1     1.490358440608    88.41040965    79.20478656
 C      1   2   3     1.233218470521    67.42337663   325.12973537
 C      2   1   3     1.213687844084    86.31616087    54.19985174
 C      3   1   2     1.240691634506    31.22217078   278.32117215
 C      4   3   1     1.193918957482    79.19209880   356.60334130
 H     11   5   3     1.096004897815   110.94488540   214.10254924
 H     12   6   4     1.083659326676   107.84436570   184.14409014
 H     13   9   7     1.125000403584   103.07862689   283.64481506
 H     13   9   7     1.084456004033   108.24765594    42.66537540
 H     13   9   7     1.084368747893   111.82039600   172.48495473
 H     14  10   2     1.062550722894   111.96205436    61.98462601
 H     14  10   2     1.067198612358   113.13760759   182.97736515
 H     14  10   2     1.101436651939   107.93822183   305.79388619
 H      5   3   1     0.999908761720    93.09746493   173.95912181
 H      6   4   3     0.963280286343    88.80397776   233.14847463
 H      7   1   2     1.010792391428    90.41182997    76.16664006
 H      8   4   3     0.995925414423    90.73331396    84.60008335

---------------------------
INTERNAL COORDINATES (A.U.)
---------------------------
 O      0   0   0     0.000000000000     0.00000000     0.00000000
 O      1   0   0     7.642867370454     0.00000000     0.00000000
 O      1   2   0     8.781712290610    69.99065350     0.00000000
 O      3   1   2     7.014898635953   103.40804282   328.41703910
 N      3   1   2     4.441057538339    61.60847219   280.06872427
 N      4   3   1     4.199472353334    89.77911467   325.92793018
 N      1   2   3     4.331486574928    67.35057366   359.64689878
 N      4   3   1     4.345543298408    70.28125486    27.76364422
 C      7   1   2     4.457693682499    61.61617183   277.45181006
 C      2   1   3     4.536942238018    72.50272184    81.20547833
 C      5   3   1     2.723221391204   152.77908346    15.13103571
 C      6   4   3     2.676652063635   145.25068517    35.03232810
 C      9   7   1     2.970905672487   148.35204459   323.53035518
 C     10   2   1     2.816369294127    88.41040965    79.20478656
 C      1   2   3     2.330445172577    67.42337663   325.12973537
 C      2   1   3     2.293537637388    86.31616087    54.19985174
 C      3   1   2     2.344567405864    31.22217078   278.32117215
 C      4   3   1     2.256179855737    79.19209880   356.60334130
 H     11   5   3     2.071149098306   110.94488540   214.10254924
 H     12   6   4     2.047819349887   107.84436570   184.14409014
 H     13   9   7     2.125942663325   103.07862689   283.64481506
 H     13   9   7     2.049324851909   108.24765594    42.66537540
 H     13   9   7     2.049159961701   111.82039600   172.48495473
 H     14  10   2     2.007929869671   111.96205436    61.98462601
 H     14  10   2     2.016713107857   113.13760759   182.97736515
 H     14  10   2     2.081413626028   107.93822183   305.79388619
 H      5   3   1     1.889553718559    93.09746493   173.95912181
 H      6   4   3     1.820335931394    88.80397776   233.14847463
 H      7   1   2     1.910120798050    90.41182997    76.16664006
 H      8   4   3     1.882026283072    90.73331396    84.60008335

---------------------
BASIS SET INFORMATION
---------------------
There are 4 groups of distinct atoms

 Group   1 Type O   : 12s7p3d1f contracted to 6s4p3d1f pattern {621111/4111/111/1}
 Group   2 Type N   : 12s6p3d1f contracted to 6s3p3d1f pattern {621111/411/111/1}
 Group   3 Type C   : 12s6p3d1f contracted to 6s3p3d1f pattern {621111/411/111/1}
 Group   4 Type H   : 5s3p1d contracted to 3s3p1d pattern {311/111/1}

Atom   0O    basis set group =>   1
Atom   1O    basis set group =>   1
Atom   2O    basis set group =>   1
Atom   3O    basis set group =>   1
Atom   4N    basis set group =>   2
Atom   5N    basis set group =>   2
Atom   6N    basis set group =>   2
Atom   7N    basis set group =>   2
Atom   8C    basis set group =>   3
Atom   9C    basis set group =>   3
Atom  10C    basis set group =>   3
Atom  11C    basis set group =>   3
Atom  12C    basis set group =>   3
Atom  13C    basis set group =>   3
Atom  14C    basis set group =>   3
Atom  15C    basis set group =>   3
Atom  16C    basis set group =>   3
Atom  17C    basis set group =>   3
Atom  18H    basis set group =>   4
Atom  19H    basis set group =>   4
Atom  20H    basis set group =>   4
Atom  21H    basis set group =>   4
Atom  22H    basis set group =>   4
Atom  23H    basis set group =>   4
Atom  24H    basis set group =>   4
Atom  25H    basis set group =>   4
Atom  26H    basis set group =>   4
Atom  27H    basis set group =>   4
Atom  28H    basis set group =>   4
Atom  29H    basis set group =>   4
---------------------------------
AUXILIARY/J BASIS SET INFORMATION
---------------------------------
There are 4 groups of distinct atoms

 Group   1 Type O   : 12s5p4d2f1g contracted to 6s4p3d1f1g pattern {711111/2111/211/2/1}
 Group   2 Type N   : 12s5p4d2f1g contracted to 6s4p3d1f1g pattern {711111/2111/211/2/1}
 Group   3 Type C   : 12s5p4d2f1g contracted to 6s4p3d1f1g pattern {711111/2111/211/2/1}
 Group   4 Type H   : 5s2p1d contracted to 3s1p1d pattern {311/2/1}

Atom   0O    basis set group =>   1
Atom   1O    basis set group =>   1
Atom   2O    basis set group =>   1
Atom   3O    basis set group =>   1
Atom   4N    basis set group =>   2
Atom   5N    basis set group =>   2
Atom   6N    basis set group =>   2
Atom   7N    basis set group =>   2
Atom   8C    basis set group =>   3
Atom   9C    basis set group =>   3
Atom  10C    basis set group =>   3
Atom  11C    basis set group =>   3
Atom  12C    basis set group =>   3
Atom  13C    basis set group =>   3
Atom  14C    basis set group =>   3
Atom  15C    basis set group =>   3
Atom  16C    basis set group =>   3
Atom  17C    basis set group =>   3
Atom  18H    basis set group =>   4
Atom  19H    basis set group =>   4
Atom  20H    basis set group =>   4
Atom  21H    basis set group =>   4
Atom  22H    basis set group =>   4
Atom  23H    basis set group =>   4
Atom  24H    basis set group =>   4
Atom  25H    basis set group =>   4
Atom  26H    basis set group =>   4
Atom  27H    basis set group =>   4
Atom  28H    basis set group =>   4
Atom  29H    basis set group =>   4
[1741421999.137440] [ohm:1692438:0]        ib_iface.c:1059 UCX  ERROR ibv_create_cq(cqe=256) failed: Connection timed out
[1741421999.142622] [ohm:1692439:0]        ib_iface.c:1059 UCX  ERROR ibv_create_cq(cqe=256) failed: Connection timed out
[1741421999.145737] [ohm:1692437:0]        ib_iface.c:1059 UCX  ERROR ibv_create_cq(cqe=256) failed: Connection timed out
[1741421999.150612] [ohm:1692442:0]        ib_iface.c:1059 UCX  ERROR ibv_create_cq(cqe=256) failed: Connection timed out
[1741421999.150965] [ohm:1692441:0]        ib_iface.c:1059 UCX  ERROR ibv_create_cq(cqe=256) failed: Connection timed out
[1741421999.226146] [ohm:1692448:0]        ib_iface.c:1059 UCX  ERROR ibv_create_cq(cqe=256) failed: Connection timed out
[1741421999.241270] [ohm:1692443:0]        ib_iface.c:1059 UCX  ERROR ibv_create_cq(cqe=256) failed: Connection timed out
[1741421999.258431] [ohm:1692449:0]        ib_iface.c:1059 UCX  ERROR ibv_create_cq(cqe=256) failed: Connection timed out
[1741421999.263871] [ohm:1692440:0]        ib_iface.c:1059 UCX  ERROR ibv_create_cq(cqe=256) failed: Connection timed out
[1741421999.268291] [ohm:1692450:0]        ib_iface.c:1059 UCX  ERROR ibv_create_cq(cqe=256) failed: Connection timed out
[1741421999.278917] [ohm:1692445:0]        ib_iface.c:1059 UCX  ERROR ibv_create_cq(cqe=256) failed: Connection timed out
[1741421999.284373] [ohm:1692485:0]        ib_iface.c:1059 UCX  ERROR ibv_create_cq(cqe=256) failed: Connection timed out
[1741421999.284423] [ohm:1692471:0]        ib_iface.c:1059 UCX  ERROR ibv_create_cq(cqe=256) failed: Connection timed out
[1741421999.286484] [ohm:1692574:0]        ib_iface.c:1059 UCX  ERROR ibv_create_cq(cqe=256) failed: Connection timed out
[1741421999.287181] [ohm:1692446:0]        ib_iface.c:1059 UCX  ERROR ibv_create_cq(cqe=256) failed: Connection timed out
[1741421999.311386] [ohm:1692564:0]        ib_iface.c:1059 UCX  ERROR ibv_create_cq(cqe=256) failed: Connection timed out
[1741421999.335216] [ohm:1692561:0]        ib_iface.c:1059 UCX  ERROR ibv_create_cq(cqe=256) failed: Connection timed out
[1741421999.352102] [ohm:1692516:0]        ib_iface.c:1059 UCX  ERROR ibv_create_cq(cqe=256) failed: Connection timed out
[1741421999.354484] [ohm:1692541:0]        ib_iface.c:1059 UCX  ERROR ibv_create_cq(cqe=256) failed: Connection timed out
[1741421999.355568] [ohm:1692536:0]        ib_iface.c:1059 UCX  ERROR ibv_create_cq(cqe=256) failed: Connection timed out
[1741421999.358447] [ohm:1692444:0]        ib_iface.c:1059 UCX  ERROR ibv_create_cq(cqe=256) failed: Connection timed out
[1741421999.360475] [ohm:1692467:0]        ib_iface.c:1059 UCX  ERROR ibv_create_cq(cqe=256) failed: Connection timed out
[1741421999.399238] [ohm:1692496:0]        ib_iface.c:1059 UCX  ERROR ibv_create_cq(cqe=256) failed: Connection timed out
[1741421999.399717] [ohm:1692505:0]        ib_iface.c:1059 UCX  ERROR ibv_create_cq(cqe=256) failed: Connection timed out
[1741421999.403087] [ohm:1692578:0]        ib_iface.c:1059 UCX  ERROR ibv_create_cq(cqe=256) failed: Connection timed out
[1741421999.403509] [ohm:1692538:0]        ib_iface.c:1059 UCX  ERROR ibv_create_cq(cqe=256) failed: Connection timed out
[1741421999.421584] [ohm:1692502:0]        ib_iface.c:1059 UCX  ERROR ibv_create_cq(cqe=256) failed: Connection timed out
[1741421999.424078] [ohm:1692472:0]        ib_iface.c:1059 UCX  ERROR ibv_create_cq(cqe=256) failed: Connection timed out
[1741421999.425667] [ohm:1692494:0]        ib_iface.c:1059 UCX  ERROR ibv_create_cq(cqe=256) failed: Connection timed out
[1741421999.429900] [ohm:1692497:0]        ib_iface.c:1059 UCX  ERROR ibv_create_cq(cqe=256) failed: Connection timed out
[1741421999.431057] [ohm:1692461:0]        ib_iface.c:1059 UCX  ERROR ibv_create_cq(cqe=256) failed: Connection timed out
[1741421999.438484] [ohm:1692557:0]        ib_iface.c:1059 UCX  ERROR ibv_create_cq(cqe=256) failed: Connection timed out
[1741421999.458733] [ohm:1692488:0]        ib_iface.c:1059 UCX  ERROR ibv_create_cq(cqe=256) failed: Connection timed out
[1741421999.460347] [ohm:1692585:0]        ib_iface.c:1059 UCX  ERROR ibv_create_cq(cqe=256) failed: Connection timed out
[1741421999.460873] [ohm:1692506:0]        ib_iface.c:1059 UCX  ERROR ibv_create_cq(cqe=256) failed: Connection timed out
[1741421999.466078] [ohm:1692566:0]        ib_iface.c:1059 UCX  ERROR ibv_create_cq(cqe=256) failed: Connection timed out
[1741421999.468295] [ohm:1692500:0]        ib_iface.c:1059 UCX  ERROR ibv_create_cq(cqe=256) failed: Connection timed out
[1741421999.471175] [ohm:1692499:0]        ib_iface.c:1059 UCX  ERROR ibv_create_cq(cqe=256) failed: Connection timed out
[1741421999.476344] [ohm:1692469:0]        ib_iface.c:1059 UCX  ERROR ibv_create_cq(cqe=256) failed: Connection timed out
[1741421999.478029] [ohm:1692492:0]        ib_iface.c:1059 UCX  ERROR ibv_create_cq(cqe=256) failed: Connection timed out
[1741421999.480567] [ohm:1692511:0]        ib_iface.c:1059 UCX  ERROR ibv_create_cq(cqe=256) failed: Connection timed out
[1741421999.483042] [ohm:1692523:0]        ib_iface.c:1059 UCX  ERROR ibv_create_cq(cqe=256) failed: Connection timed out
[1741421999.489692] [ohm:1692559:0]        ib_iface.c:1059 UCX  ERROR ibv_create_cq(cqe=256) failed: Connection timed out
[1741421999.491982] [ohm:1692544:0]        ib_iface.c:1059 UCX  ERROR ibv_create_cq(cqe=256) failed: Connection timed out
[1741421999.494479] [ohm:1692548:0]        ib_iface.c:1059 UCX  ERROR ibv_create_cq(cqe=256) failed: Connection timed out
[1741421999.494584] [ohm:1692584:0]        ib_iface.c:1059 UCX  ERROR ibv_create_cq(cqe=256) failed: Connection timed out
[1741421999.500367] [ohm:1692552:0]        ib_iface.c:1059 UCX  ERROR ibv_create_cq(cqe=256) failed: Connection timed out
[1741421999.501816] [ohm:1692510:0]        ib_iface.c:1059 UCX  ERROR ibv_create_cq(cqe=256) failed: Connection timed out
[1741421999.503149] [ohm:1692501:0]        ib_iface.c:1059 UCX  ERROR ibv_create_cq(cqe=256) failed: Connection timed out
[1741421999.505004] [ohm:1692465:0]        ib_iface.c:1059 UCX  ERROR ibv_create_cq(cqe=256) failed: Connection timed out
[1741421999.505287] [ohm:1692517:0]        ib_iface.c:1059 UCX  ERROR ibv_create_cq(cqe=256) failed: Connection timed out
[1741421999.505648] [ohm:1692473:0]        ib_iface.c:1059 UCX  ERROR ibv_create_cq(cqe=256) failed: Connection timed out
[1741421999.507952] [ohm:1692532:0]        ib_iface.c:1059 UCX  ERROR ibv_create_cq(cqe=256) failed: Connection timed out
[1741421999.508798] [ohm:1692464:0]        ib_iface.c:1059 UCX  ERROR ibv_create_cq(cqe=256) failed: Connection timed out
[1741421999.512455] [ohm:1692479:0]        ib_iface.c:1059 UCX  ERROR ibv_create_cq(cqe=256) failed: Connection timed out
[1741421999.513491] [ohm:1692570:0]        ib_iface.c:1059 UCX  ERROR ibv_create_cq(cqe=256) failed: Connection timed out
[1741421999.514912] [ohm:1692524:0]        ib_iface.c:1059 UCX  ERROR ibv_create_cq(cqe=256) failed: Connection timed out
[1741421999.517369] [ohm:1692481:0]        ib_iface.c:1059 UCX  ERROR ibv_create_cq(cqe=256) failed: Connection timed out
[1741421999.518112] [ohm:1692490:0]        ib_iface.c:1059 UCX  ERROR ibv_create_cq(cqe=256) failed: Connection timed out
[1741421999.519215] [ohm:1692468:0]        ib_iface.c:1059 UCX  ERROR ibv_create_cq(cqe=256) failed: Connection timed out
[1741421999.521040] [ohm:1692447:0]        ib_iface.c:1059 UCX  ERROR ibv_create_cq(cqe=256) failed: Connection timed out
[1741421999.522094] [ohm:1692476:0]        ib_iface.c:1059 UCX  ERROR ibv_create_cq(cqe=256) failed: Connection timed out
[1741421999.522156] [ohm:1692466:0]        ib_iface.c:1059 UCX  ERROR ibv_create_cq(cqe=256) failed: Connection timed out
[1741421999.522181] [ohm:1692529:0]        ib_iface.c:1059 UCX  ERROR ibv_create_cq(cqe=256) failed: Connection timed out


           ************************************************************
           *        Program running with 64 parallel MPI-processes    *
           *              working on a common directory               *
           ************************************************************
------------------------------------------------------------------------------
                             ORCA STARTUP CALCULATIONS
                           -- RI-GTO INTEGRALS CHOSEN --
------------------------------------------------------------------------------
------------------------------------------------------------------------------
                   ___                                                        
                  /   \      - P O W E R E D   B Y -                         
                 /     \                                                     
                 |  |  |   _    _      __       _____    __    __             
                 |  |  |  | |  | |    /  \     |  _  \  |  |  /  |          
                  \  \/   | |  | |   /    \    | | | |  |  | /  /          
                 / \  \   | |__| |  /  /\  \   | |_| |  |  |/  /          
                |  |  |   |  __  | /  /__\  \  |    /   |      \           
                |  |  |   | |  | | |   __   |  |    \   |  |\   \          
                \     /   | |  | | |  |  |  |  | |\  \  |  | \   \       
                 \___/    |_|  |_| |__|  |__|  |_| \__\ |__|  \__/        
                                                                              
                      - O R C A' S   B I G   F R I E N D -                    
                                      &                                       
                       - I N T E G R A L  F E E D E R -                       
                                                                              
 v1 FN, 2020, v2 2021, v3 2022-2024                                           
------------------------------------------------------------------------------


----------------------
SHARK INTEGRAL PACKAGE
----------------------

Number of atoms                             ...     30
Number of basis functions                   ...    882
Number of shells                            ...    322
Maximum angular momentum                    ...      3
Integral batch strategy                     ... SHARK/LIBINT Hybrid
RI-J (if used) integral strategy            ... SPLIT-RIJ (Revised 2003 algorithm where possible)
Printlevel                                  ...      1
Contraction scheme used                     ... SEGMENTED contraction
Prescreening option                         ... SCHWARTZ
   Thresh                                   ... 2.500e-11
   Tcut                                     ... 2.500e-12
   Tpresel                                  ... 2.500e-12 
Coulomb Range Separation                    ... NOT USED
Exchange Range Separation                   ... Long Range
   Mu parameter                             ... 3.000e-01
   Scaling (regular/separated)              ... 1.500e-01 8.500e-01
Multipole approximations                    ... NOT USED
Finite Nucleus Model                        ... NOT USED
CABS basis                                  ... NOT available
Auxiliary Coulomb fitting basis             ... AVAILABLE
   # of basis functions in Aux-J            ...   1014
   # of shells in Aux-J                     ...    330
   Maximum angular momentum in Aux-J        ...      4
Auxiliary J/K fitting basis                 ... NOT available
Auxiliary Correlation fitting basis         ... NOT available
Auxiliary 'external' fitting basis          ... NOT available

Checking pre-screening integrals            ... done (  0.0 sec) Dimension = 322
Check shell pair data                       ... done (  0.0 sec)
Shell pair information
Shell pair cut-off parameter TPreSel        ...   2.5e-12
Total number of shell pairs                 ...     52003
Shell pairs after pre-screening             ...     45261
Total number of primitive shell pairs       ...    129718
Primitive shell pairs kept                  ...     84610
          la=0 lb=0:   8760 shell pairs
          la=1 lb=0:  11957 shell pairs
          la=1 lb=1:   4123 shell pairs
          la=2 lb=0:   8136 shell pairs
          la=2 lb=1:   5619 shell pairs
          la=2 lb=2:   1938 shell pairs
          la=3 lb=0:   2079 shell pairs
          la=3 lb=1:   1485 shell pairs
          la=3 lb=2:   1020 shell pairs
          la=3 lb=3:    144 shell pairs

Calculating one electron integrals          ... done (  0.2 sec)
Calculating RI/J V-Matrix + Cholesky decomp.... done (  0.1 sec)
Calculating Nuclear repulsion               ... done (  0.0 sec) ENN=   1450.939837137590 Eh

Diagonalization of the overlap matrix:
Smallest eigenvalue                        ... 3.493e-07
Time for diagonalization                   ...    0.125 sec
Threshold for overlap eigenvalues          ... 1.000e-07
Number of eigenvalues below threshold      ... 0

IMPORTANT:
Smallest eigenvalue of S below the DiffSThresh (1.000e-06) while
Thresh>1e-12 and/or TCut>1e-13! In order to avoid SCF convergence issues,
Thresh will be set to at least 1e-12 and TCut to at least 1e-13.
This can be turned off by adding %SCF DiffSThresh -1 END to the input.

Time for construction of square roots      ...    0.136 sec
Total time needed                          ...    0.278 sec

-------------------
DFT GRID GENERATION
-------------------

General Integration Accuracy     IntAcc      ... 4.388
Radial Grid Type                 RadialGrid  ... OptM3 with GC (2021)
Angular Grid (max. ang.)         AngularGrid ... 4 (Lebedev-302)
Angular grid pruning method      GridPruning ... 4 (adaptive)
Weight generation scheme         WeightScheme... mBecke (2022)
Basis function cutoff            BFCut       ... 1.0000e-11
Integration weight cutoff        WCut        ... 1.0000e-14
Partially contracted basis set               ... off
Rotationally invariant grid construction     ... off
Angular grids for H and He will be reduced by one unit
Diffuse basis detected: some atoms will have their outermost
                        angular grid increased by 1.

Total number of grid points                  ...   151917
Total number of batches                      ...     2384
Average number of points per batch           ...       63
Average number of grid points per atom       ...     5064

--------------------
COSX GRID GENERATION
--------------------

GRIDX 1
-------
General Integration Accuracy     IntAcc      ... 3.816
Radial Grid Type                 RadialGrid  ... OptM3 with GC (2021)
Angular Grid (max. ang.)         AngularGrid ... 1 (Lebedev-50)
Angular grid pruning method      GridPruning ... 4 (adaptive)
Weight generation scheme         WeightScheme... mBecke (2022)
Basis function cutoff            BFCut       ... 1.0000e-11
Integration weight cutoff        WCut        ... 1.0000e-14
Partially contracted basis set               ... on
Rotationally invariant grid construction     ... off
Angular grids for H and He will be reduced by one unit
Diffuse basis detected: some atoms will have their outermost
                        angular grid increased by 1.

Total number of grid points                  ...    19017
Total number of batches                      ...      166
Average number of points per batch           ...      114
Average number of grid points per atom       ...      634
UseSFitting                                  ... on

GRIDX 2
-------
General Integration Accuracy     IntAcc      ... 4.020
Radial Grid Type                 RadialGrid  ... OptM3 with GC (2021)
Angular Grid (max. ang.)         AngularGrid ... 2 (Lebedev-110)
Angular grid pruning method      GridPruning ... 4 (adaptive)
Weight generation scheme         WeightScheme... mBecke (2022)
Basis function cutoff            BFCut       ... 1.0000e-11
Integration weight cutoff        WCut        ... 1.0000e-14
Partially contracted basis set               ... on
Rotationally invariant grid construction     ... off
Angular grids for H and He will be reduced by one unit
Diffuse basis detected: some atoms will have their outermost
                        angular grid increased by 1.

Total number of grid points                  ...    45796
Total number of batches                      ...      372
Average number of points per batch           ...      123
Average number of grid points per atom       ...     1527
UseSFitting                                  ... on

GRIDX 3
-------
General Integration Accuracy     IntAcc      ... 4.338
Radial Grid Type                 RadialGrid  ... OptM3 with GC (2021)
Angular Grid (max. ang.)         AngularGrid ... 3 (Lebedev-194)
Angular grid pruning method      GridPruning ... 4 (adaptive)
Weight generation scheme         WeightScheme... mBecke (2022)
Basis function cutoff            BFCut       ... 1.0000e-11
Integration weight cutoff        WCut        ... 1.0000e-14
Partially contracted basis set               ... on
Rotationally invariant grid construction     ... off
Angular grids for H and He will be reduced by one unit
Diffuse basis detected: some atoms will have their outermost
                        angular grid increased by 1.

Total number of grid points                  ...   100823
Total number of batches                      ...      804
Average number of points per batch           ...      125
Average number of grid points per atom       ...     3361
UseSFitting                                  ... on
Initializing property integral containers    ... done (  0.0 sec)

SHARK setup successfully completed in   4.2 seconds

Maximum memory used throughout the entire STARTUP-calculation: 80.3 MB
[1741422005.644487] [ohm:1692807:0]        ib_iface.c:1059 UCX  ERROR ibv_create_cq(cqe=256) failed: Connection timed out
[1741422005.649567] [ohm:1692806:0]        ib_iface.c:1059 UCX  ERROR ibv_create_cq(cqe=256) failed: Connection timed out
[1741422005.650721] [ohm:1692805:0]        ib_iface.c:1059 UCX  ERROR ibv_create_cq(cqe=256) failed: Connection timed out
[1741422005.656878] [ohm:1692861:0]        ib_iface.c:1059 UCX  ERROR ibv_create_cq(cqe=256) failed: Connection timed out
[1741422005.661588] [ohm:1692910:0]        ib_iface.c:1059 UCX  ERROR ibv_create_cq(cqe=256) failed: Connection timed out
[1741422005.667453] [ohm:1692814:0]        ib_iface.c:1059 UCX  ERROR ibv_create_cq(cqe=256) failed: Connection timed out
[1741422005.695803] [ohm:1692817:0]        ib_iface.c:1059 UCX  ERROR ibv_create_cq(cqe=256) failed: Connection timed out
[1741422005.722744] [ohm:1692846:0]        ib_iface.c:1059 UCX  ERROR ibv_create_cq(cqe=256) failed: Connection timed out
[1741422005.743168] [ohm:1692850:0]        ib_iface.c:1059 UCX  ERROR ibv_create_cq(cqe=256) failed: Connection timed out
[1741422005.758608] [ohm:1692862:0]        ib_iface.c:1059 UCX  ERROR ibv_create_cq(cqe=256) failed: Connection timed out
[1741422005.760505] [ohm:1692852:0]        ib_iface.c:1059 UCX  ERROR ibv_create_cq(cqe=256) failed: Connection timed out
[1741422005.791865] [ohm:1692840:0]        ib_iface.c:1059 UCX  ERROR ibv_create_cq(cqe=256) failed: Connection timed out
[1741422005.822059] [ohm:1692869:0]        ib_iface.c:1059 UCX  ERROR ibv_create_cq(cqe=256) failed: Connection timed out
[1741422005.825357] [ohm:1692858:0]        ib_iface.c:1059 UCX  ERROR ibv_create_cq(cqe=256) failed: Connection timed out
[1741422005.829964] [ohm:1692857:0]        ib_iface.c:1059 UCX  ERROR ibv_create_cq(cqe=256) failed: Connection timed out
[1741422005.841368] [ohm:1692864:0]        ib_iface.c:1059 UCX  ERROR ibv_create_cq(cqe=256) failed: Connection timed out
[1741422005.846567] [ohm:1692832:0]        ib_iface.c:1059 UCX  ERROR ibv_create_cq(cqe=256) failed: Connection timed out
[1741422005.849621] [ohm:1692863:0]        ib_iface.c:1059 UCX  ERROR ibv_create_cq(cqe=256) failed: Connection timed out
[1741422005.851922] [ohm:1692867:0]        ib_iface.c:1059 UCX  ERROR ibv_create_cq(cqe=256) failed: Connection timed out
[1741422005.868519] [ohm:1692868:0]        ib_iface.c:1059 UCX  ERROR ibv_create_cq(cqe=256) failed: Connection timed out
[1741422005.868777] [ohm:1692876:0]        ib_iface.c:1059 UCX  ERROR ibv_create_cq(cqe=256) failed: Connection timed out
[1741422005.886875] [ohm:1692818:0]        ib_iface.c:1059 UCX  ERROR ibv_create_cq(cqe=256) failed: Connection timed out
[1741422005.894960] [ohm:1692909:0]        ib_iface.c:1059 UCX  ERROR ibv_create_cq(cqe=256) failed: Connection timed out
[1741422005.896398] [ohm:1692884:0]        ib_iface.c:1059 UCX  ERROR ibv_create_cq(cqe=256) failed: Connection timed out
[1741422005.911428] [ohm:1692871:0]        ib_iface.c:1059 UCX  ERROR ibv_create_cq(cqe=256) failed: Connection timed out
[1741422005.917814] [ohm:1692899:0]        ib_iface.c:1059 UCX  ERROR ibv_create_cq(cqe=256) failed: Connection timed out
[1741422005.935852] [ohm:1692918:0]        ib_iface.c:1059 UCX  ERROR ibv_create_cq(cqe=256) failed: Connection timed out
[1741422005.948078] [ohm:1692932:0]        ib_iface.c:1059 UCX  ERROR ibv_create_cq(cqe=256) failed: Connection timed out
[1741422005.948692] [ohm:1692923:0]        ib_iface.c:1059 UCX  ERROR ibv_create_cq(cqe=256) failed: Connection timed out
[1741422005.950439] [ohm:1692916:0]        ib_iface.c:1059 UCX  ERROR ibv_create_cq(cqe=256) failed: Connection timed out
[1741422005.958930] [ohm:1692937:0]        ib_iface.c:1059 UCX  ERROR ibv_create_cq(cqe=256) failed: Connection timed out
[1741422005.965064] [ohm:1692904:0]        ib_iface.c:1059 UCX  ERROR ibv_create_cq(cqe=256) failed: Connection timed out
[1741422005.968858] [ohm:1692882:0]        ib_iface.c:1059 UCX  ERROR ibv_create_cq(cqe=256) failed: Connection timed out
[1741422005.969986] [ohm:1692875:0]        ib_iface.c:1059 UCX  ERROR ibv_create_cq(cqe=256) failed: Connection timed out
[1741422005.980456] [ohm:1692865:0]        ib_iface.c:1059 UCX  ERROR ibv_create_cq(cqe=256) failed: Connection timed out
[1741422005.982656] [ohm:1692946:0]        ib_iface.c:1059 UCX  ERROR ibv_create_cq(cqe=256) failed: Connection timed out
[1741422005.983443] [ohm:1692809:0]        ib_iface.c:1059 UCX  ERROR ibv_create_cq(cqe=256) failed: Connection timed out
[1741422005.996654] [ohm:1692939:0]        ib_iface.c:1059 UCX  ERROR ibv_create_cq(cqe=256) failed: Connection timed out
[1741422005.997872] [ohm:1692866:0]        ib_iface.c:1059 UCX  ERROR ibv_create_cq(cqe=256) failed: Connection timed out
[1741422006.010315] [ohm:1692951:0]        ib_iface.c:1059 UCX  ERROR ibv_create_cq(cqe=256) failed: Connection timed out
[1741422006.012889] [ohm:1692948:0]        ib_iface.c:1059 UCX  ERROR ibv_create_cq(cqe=256) failed: Connection timed out
[1741422006.013204] [ohm:1692905:0]        ib_iface.c:1059 UCX  ERROR ibv_create_cq(cqe=256) failed: Connection timed out
[1741422006.014136] [ohm:1692837:0]        ib_iface.c:1059 UCX  ERROR ibv_create_cq(cqe=256) failed: Connection timed out
[1741422006.016963] [ohm:1692872:0]        ib_iface.c:1059 UCX  ERROR ibv_create_cq(cqe=256) failed: Connection timed out
[1741422006.018761] [ohm:1692815:0]        ib_iface.c:1059 UCX  ERROR ibv_create_cq(cqe=256) failed: Connection timed out
[1741422006.019752] [ohm:1692870:0]        ib_iface.c:1059 UCX  ERROR ibv_create_cq(cqe=256) failed: Connection timed out
[1741422006.019882] [ohm:1692844:0]        ib_iface.c:1059 UCX  ERROR ibv_create_cq(cqe=256) failed: Connection timed out
[1741422006.021165] [ohm:1692808:0]        ib_iface.c:1059 UCX  ERROR ibv_create_cq(cqe=256) failed: Connection timed out
[1741422006.027754] [ohm:1692942:0]        ib_iface.c:1059 UCX  ERROR ibv_create_cq(cqe=256) failed: Connection timed out
[1741422006.030444] [ohm:1692811:0]        ib_iface.c:1059 UCX  ERROR ibv_create_cq(cqe=256) failed: Connection timed out
[1741422006.030524] [ohm:1692900:0]        ib_iface.c:1059 UCX  ERROR ibv_create_cq(cqe=256) failed: Connection timed out
[1741422006.030628] [ohm:1692925:0]        ib_iface.c:1059 UCX  ERROR ibv_create_cq(cqe=256) failed: Connection timed out
[1741422006.034016] [ohm:1692816:0]        ib_iface.c:1059 UCX  ERROR ibv_create_cq(cqe=256) failed: Connection timed out
[1741422006.036872] [ohm:1692810:0]        ib_iface.c:1059 UCX  ERROR ibv_create_cq(cqe=256) failed: Connection timed out
[1741422006.036985] [ohm:1692812:0]        ib_iface.c:1059 UCX  ERROR ibv_create_cq(cqe=256) failed: Connection timed out
[1741422006.037109] [ohm:1692889:0]        ib_iface.c:1059 UCX  ERROR ibv_create_cq(cqe=256) failed: Connection timed out
[1741422006.037129] [ohm:1692879:0]        ib_iface.c:1059 UCX  ERROR ibv_create_cq(cqe=256) failed: Connection timed out
[1741422006.038382] [ohm:1692833:0]        ib_iface.c:1059 UCX  ERROR ibv_create_cq(cqe=256) failed: Connection timed out
[1741422006.038492] [ohm:1692836:0]        ib_iface.c:1059 UCX  ERROR ibv_create_cq(cqe=256) failed: Connection timed out
[1741422006.039120] [ohm:1692895:0]        ib_iface.c:1059 UCX  ERROR ibv_create_cq(cqe=256) failed: Connection timed out
[1741422006.039680] [ohm:1692930:0]        ib_iface.c:1059 UCX  ERROR ibv_create_cq(cqe=256) failed: Connection timed out
[1741422006.039790] [ohm:1692892:0]        ib_iface.c:1059 UCX  ERROR ibv_create_cq(cqe=256) failed: Connection timed out
[1741422006.041510] [ohm:1692819:0]        ib_iface.c:1059 UCX  ERROR ibv_create_cq(cqe=256) failed: Connection timed out
[1741422006.046746] [ohm:1692813:0]        ib_iface.c:1059 UCX  ERROR ibv_create_cq(cqe=256) failed: Connection timed out


           ************************************************************
           *        Program running with 64 parallel MPI-processes    *
           *              working on a common directory               *
           ************************************************************
-------------------------------------------------------------------------------
                                 ORCA GUESS
                   Start orbitals & Density for SCF / CASSCF
-------------------------------------------------------------------------------

------------
SCF SETTINGS
------------
Hamiltonian:
 Density Functional     Method          .... DFT(GTOs)
  Functional kind                       .... Exchange-Correlation
  Functional name                       .... wB97M-V exchange-correlation functional
  Functional family                     .... Hybrid MGGA
  Functional refs                              
    [ 0] N. Mardirossian and M. Head-Gordon.,  J. Chem. Phys. 144, 214110 (2016), doi: 10.1063/1.4952647
  Fraction of HF Exchange (short range) .... 0.1500
  Fraction of HF Exchange (long range)  .... 1.0000
  Range separation parameter mu         .... 0.3000
  Functional external parameters        .... 17
    Parameter  0 _cx00      =  8.500000e-01 : u^00 coefficient for exchange
    Parameter  1 _cx01      =  1.007000e+00 : u^01 coefficient for exchange
    Parameter  2 _cx10      =  2.590000e-01 : u^10 coefficient for exchange
    Parameter  3 _css00     =  4.430000e-01 : u^00 coefficient for same-spin correlation
    Parameter  4 _css04     = -1.437000e+00 : u^04 coefficient for same-spin correlation
    Parameter  5 _css10     = -4.535000e+00 : u^10 coefficient for same-spin correlation
    Parameter  6 _css20     = -3.390000e+00 : u^20 coefficient for same-spin correlation
    Parameter  7 _css43     =  4.278000e+00 : u^43 coefficient for same-spin correlation
    Parameter  8 _cos00     =  1.000000e+00 : u^00 coefficient for opposite-spin correlation
    Parameter  9 _cos10     =  1.358000e+00 : u^10 coefficient for opposite-spin correlation
    Parameter 10 _cos20     =  2.924000e+00 : u^20 coefficient for opposite-spin correlation
    Parameter 11 _cos21     = -8.812000e+00 : u^21 coefficient for opposite-spin correlation
    Parameter 12 _cos60     = -1.390000e+00 : u^60 coefficient for opposite-spin correlation
    Parameter 13 _cos61     =  9.142000e+00 : u^61 coefficient for opposite-spin correlation
    Parameter 14 _alpha     =  1.000000e+00 : fraction of HF exchange
    Parameter 15 _beta      = -8.500000e-01 : fraction of short-range exchange
    Parameter 16 _omega     =  3.000000e-01 : range-separation constant
 Long-range corrected/Screened/Range-Separated Hybrid DFT is turned on
   Amount of maximum screened exact exchange              ....  0.850000
   Range separation parameter mu (erf(mu*r12)/r12)        ....  0.300000
 RI-approximation to the Coulomb term is turned on
   Number of AuxJ basis functions       .... 1014
   RIJ-COSX (HFX calculated with COS-X)).... on


General Settings:
 Integral files         IntName         .... orca
 Hartree-Fock type      HFTyp           .... UHF
 Total Charge           Charge          ....    0
 Multiplicity           Mult            ....    3
 Number of Electrons    NEL             ....  132
 Basis Dimension        Dim             ....  882
 Nuclear Repulsion      ENuc            ....   1450.9398371376 Eh

Convergence Acceleration:
 AO-DIIS                CNVDIIS         .... on
   Start iteration      DIISMaxIt       ....    12
   Startup error        DIISStart       ....  0.200000
   # of expansion vecs  DIISMaxEq       ....     5
   Bias factor          DIISBfac        ....   1.050
   Max. coefficient     DIISMaxC        ....  10.000
 MO-DIIS                CNVKDIIS        .... off
 Trust-Rad. Augm. Hess. CNVTRAH         .... auto
   Auto Start mean grad. ratio tolernc. ....  1.125000
   Auto Start start iteration           ....    50
   Auto Start num. interpolation iter.  ....    10
   Max. Number of Micro iterations      ....    24
   Max. Number of Macro iterations      .... Maxiter - #DIIS iter
   Number of Davidson start vectors     ....     2
   Converg. threshold    (grad. norm)   ....   1.000e-05
   Grad. Scal. Fac. for Micro threshold ....   0.100
   Minimum threshold for Micro iter.    ....   1.000e-02
   NR start threshold (gradient norm)   ....   1.000e-04
   Initial trust radius                 ....   0.400
   Minimum AH scaling param. (alpha)    ....   1.000
   Maximum AH scaling param. (alpha)    .... 1000.000
   Quad. conv. algorithm                .... NR
   White noise on init. David. guess    .... on
   Maximum white noise                  ....   0.010
   Pseudo random numbers                .... off
   Inactive MOs                         .... canonical
   Orbital update algorithm             .... Taylor
   Preconditioner                       .... Diag
   Full preconditioner red. dimension   ....   250
 SOSCF                  CNVSOSCF        .... on
   Start iteration      SOSCFMaxIt      ....   150
   Startup grad/error   SOSCFStart      ....  0.003300
   Hessian update       SOSCFHessUp     .... L-BFGS
 Level Shifting         CNVShift        .... on
   Level shift para.    LevelShift      ....    0.2500
   Turn off err/grad.   ShiftErr        ....    0.0010
 Zerner damping         CNVZerner       .... off
 Static damping         CNVDamp         .... on
   Fraction old density DampFac         ....    0.7000
   Max. Damping (<1)    DampMax         ....    0.9800
   Min. Damping (>=0)   DampMin         ....    0.0000
   Turn off err/grad.   DampErr         ....    0.1000

SCF Procedure:
 Maximum # iterations   MaxIter         ....   125
 SCF integral mode      SCFMode         .... Direct
   Integral package                     .... SHARK and LIBINT hybrid scheme
 Reset frequency        DirectResetFreq ....    20
 Integral Threshold     Thresh          ....  1.000e-12 Eh
 Primitive CutOff       TCut            ....  1.000e-13 Eh

Convergence Tolerance:
 Convergence Check Mode ConvCheckMode   .... Total+1el-Energy
 Convergence forced     ConvForced      .... 1
 Energy Change          TolE            ....  1.000e-08 Eh
 1-El. energy change                    ....  1.000e-05 Eh
 Orbital Gradient       TolG            ....  1.000e-05
 Orbital Rotation angle TolX            ....  1.000e-05
 DIIS Error             TolErr          ....  5.000e-07

------------------------------
INITIAL GUESS: MODEL POTENTIAL
------------------------------
Loading Hartree-Fock densities                     ... done
Calculating cut-offs                               ... done
Initializing the effective Hamiltonian             ... done
Setting up the integral package (SHARK)            ... done
Starting the Coulomb interaction                   ... done (   0.1 sec)
Making the grid                                    ... done (   0.2 sec)
Mapping shells                                     ... done
Starting the XC term evaluation                    ... done (   0.1 sec)
  promolecular density results
     # of electrons  =    131.996245440
     EX              =   -113.479098606
     EC              =     -4.483802756
     EX+EC           =   -117.962901361
Transforming the Hamiltonian                       ... done (   0.1 sec)
Diagonalizing the Hamiltonian                      ... done (   0.1 sec)
Back transforming the eigenvectors                 ... done (   0.1 sec)
Now organizing SCF variables                       ... done
                      ------------------
                      INITIAL GUESS DONE (   1.1 sec)
                      ------------------
             **** ENERGY FILE WAS UPDATED (orca.en.tmp) ****
Finished Guess after   3.7 sec
Maximum memory used throughout the entire GUESS-calculation: 72.9 MB
[1741422009.928483] [ohm:1693155:0]        ib_iface.c:1059 UCX  ERROR ibv_create_cq(cqe=256) failed: Connection timed out
[1741422009.929044] [ohm:1693153:0]        ib_iface.c:1059 UCX  ERROR ibv_create_cq(cqe=256) failed: Connection timed out
[1741422009.946643] [ohm:1693169:0]        ib_iface.c:1059 UCX  ERROR ibv_create_cq(cqe=256) failed: Connection timed out
[1741422009.948343] [ohm:1693164:0]        ib_iface.c:1059 UCX  ERROR ibv_create_cq(cqe=256) failed: Connection timed out
[1741422009.975062] [ohm:1693168:0]        ib_iface.c:1059 UCX  ERROR ibv_create_cq(cqe=256) failed: Connection timed out
[1741422009.991088] [ohm:1693156:0]        ib_iface.c:1059 UCX  ERROR ibv_create_cq(cqe=256) failed: Connection timed out
[1741422009.991788] [ohm:1693180:0]        ib_iface.c:1059 UCX  ERROR ibv_create_cq(cqe=256) failed: Connection timed out
[1741422010.001650] [ohm:1693163:0]        ib_iface.c:1059 UCX  ERROR ibv_create_cq(cqe=256) failed: Connection timed out
[1741422010.003952] [ohm:1693176:0]        ib_iface.c:1059 UCX  ERROR ibv_create_cq(cqe=256) failed: Connection timed out
[1741422010.007445] [ohm:1693177:0]        ib_iface.c:1059 UCX  ERROR ibv_create_cq(cqe=256) failed: Connection timed out
[1741422010.008053] [ohm:1693154:0]        ib_iface.c:1059 UCX  ERROR ibv_create_cq(cqe=256) failed: Connection timed out
[1741422010.008480] [ohm:1693174:0]        ib_iface.c:1059 UCX  ERROR ibv_create_cq(cqe=256) failed: Connection timed out
[1741422010.011528] [ohm:1693165:0]        ib_iface.c:1059 UCX  ERROR ibv_create_cq(cqe=256) failed: Connection timed out
[1741422010.016702] [ohm:1693179:0]        ib_iface.c:1059 UCX  ERROR ibv_create_cq(cqe=256) failed: Connection timed out
[1741422010.074507] [ohm:1693166:0]        ib_iface.c:1059 UCX  ERROR ibv_create_cq(cqe=256) failed: Connection timed out
[1741422010.076146] [ohm:1693161:0]        ib_iface.c:1059 UCX  ERROR ibv_create_cq(cqe=256) failed: Connection timed out
[1741422010.086120] [ohm:1693239:0]        ib_iface.c:1059 UCX  ERROR ibv_create_cq(cqe=256) failed: Connection timed out
[1741422010.088816] [ohm:1693175:0]        ib_iface.c:1059 UCX  ERROR ibv_create_cq(cqe=256) failed: Connection timed out
[1741422010.089170] [ohm:1693191:0]        ib_iface.c:1059 UCX  ERROR ibv_create_cq(cqe=256) failed: Connection timed out
[1741422010.105275] [ohm:1693211:0]        ib_iface.c:1059 UCX  ERROR ibv_create_cq(cqe=256) failed: Connection timed out
[1741422010.105856] [ohm:1693181:0]        ib_iface.c:1059 UCX  ERROR ibv_create_cq(cqe=256) failed: Connection timed out
[1741422010.137239] [ohm:1693265:0]        ib_iface.c:1059 UCX  ERROR ibv_create_cq(cqe=256) failed: Connection timed out
[1741422010.139117] [ohm:1693183:0]        ib_iface.c:1059 UCX  ERROR ibv_create_cq(cqe=256) failed: Connection timed out
[1741422010.141388] [ohm:1693221:0]        ib_iface.c:1059 UCX  ERROR ibv_create_cq(cqe=256) failed: Connection timed out
[1741422010.142638] [ohm:1693285:0]        ib_iface.c:1059 UCX  ERROR ibv_create_cq(cqe=256) failed: Connection timed out
[1741422010.147490] [ohm:1693277:0]        ib_iface.c:1059 UCX  ERROR ibv_create_cq(cqe=256) failed: Connection timed out
[1741422010.174027] [ohm:1693171:0]        ib_iface.c:1059 UCX  ERROR ibv_create_cq(cqe=256) failed: Connection timed out
[1741422010.174372] [ohm:1693259:0]        ib_iface.c:1059 UCX  ERROR ibv_create_cq(cqe=256) failed: Connection timed out
[1741422010.183743] [ohm:1693255:0]        ib_iface.c:1059 UCX  ERROR ibv_create_cq(cqe=256) failed: Connection timed out
[1741422010.190636] [ohm:1693238:0]        ib_iface.c:1059 UCX  ERROR ibv_create_cq(cqe=256) failed: Connection timed out
[1741422010.190918] [ohm:1693243:0]        ib_iface.c:1059 UCX  ERROR ibv_create_cq(cqe=256) failed: Connection timed out
[1741422010.202919] [ohm:1693252:0]        ib_iface.c:1059 UCX  ERROR ibv_create_cq(cqe=256) failed: Connection timed out
[1741422010.203182] [ohm:1693296:0]        ib_iface.c:1059 UCX  ERROR ibv_create_cq(cqe=256) failed: Connection timed out
[1741422010.212880] [ohm:1693248:0]        ib_iface.c:1059 UCX  ERROR ibv_create_cq(cqe=256) failed: Connection timed out
[1741422010.215890] [ohm:1693287:0]        ib_iface.c:1059 UCX  ERROR ibv_create_cq(cqe=256) failed: Connection timed out
[1741422010.217321] [ohm:1693206:0]        ib_iface.c:1059 UCX  ERROR ibv_create_cq(cqe=256) failed: Connection timed out
[1741422010.221268] [ohm:1693201:0]        ib_iface.c:1059 UCX  ERROR ibv_create_cq(cqe=256) failed: Connection timed out
[1741422010.227922] [ohm:1693281:0]        ib_iface.c:1059 UCX  ERROR ibv_create_cq(cqe=256) failed: Connection timed out
[1741422010.232593] [ohm:1693261:0]        ib_iface.c:1059 UCX  ERROR ibv_create_cq(cqe=256) failed: Connection timed out
[1741422010.232696] [ohm:1693205:0]        ib_iface.c:1059 UCX  ERROR ibv_create_cq(cqe=256) failed: Connection timed out
[1741422010.240801] [ohm:1693159:0]        ib_iface.c:1059 UCX  ERROR ibv_create_cq(cqe=256) failed: Connection timed out
[1741422010.243379] [ohm:1693227:0]        ib_iface.c:1059 UCX  ERROR ibv_create_cq(cqe=256) failed: Connection timed out
[1741422010.245616] [ohm:1693216:0]        ib_iface.c:1059 UCX  ERROR ibv_create_cq(cqe=256) failed: Connection timed out
[1741422010.247806] [ohm:1693282:0]        ib_iface.c:1059 UCX  ERROR ibv_create_cq(cqe=256) failed: Connection timed out
[1741422010.249646] [ohm:1693172:0]        ib_iface.c:1059 UCX  ERROR ibv_create_cq(cqe=256) failed: Connection timed out
[1741422010.253608] [ohm:1693167:0]        ib_iface.c:1059 UCX  ERROR ibv_create_cq(cqe=256) failed: Connection timed out
[1741422010.259605] [ohm:1693157:0]        ib_iface.c:1059 UCX  ERROR ibv_create_cq(cqe=256) failed: Connection timed out
[1741422010.263444] [ohm:1693170:0]        ib_iface.c:1059 UCX  ERROR ibv_create_cq(cqe=256) failed: Connection timed out
[1741422010.265168] [ohm:1693200:0]        ib_iface.c:1059 UCX  ERROR ibv_create_cq(cqe=256) failed: Connection timed out
[1741422010.268172] [ohm:1693186:0]        ib_iface.c:1059 UCX  ERROR ibv_create_cq(cqe=256) failed: Connection timed out
[1741422010.280627] [ohm:1693192:0]        ib_iface.c:1059 UCX  ERROR ibv_create_cq(cqe=256) failed: Connection timed out
[1741422010.281052] [ohm:1693184:0]        ib_iface.c:1059 UCX  ERROR ibv_create_cq(cqe=256) failed: Connection timed out
[1741422010.282697] [ohm:1693158:0]        ib_iface.c:1059 UCX  ERROR ibv_create_cq(cqe=256) failed: Connection timed out
[1741422010.283019] [ohm:1693178:0]        ib_iface.c:1059 UCX  ERROR ibv_create_cq(cqe=256) failed: Connection timed out
[1741422010.286201] [ohm:1693249:0]        ib_iface.c:1059 UCX  ERROR ibv_create_cq(cqe=256) failed: Connection timed out
[1741422010.287778] [ohm:1693162:0]        ib_iface.c:1059 UCX  ERROR ibv_create_cq(cqe=256) failed: Connection timed out
[1741422010.288101] [ohm:1693273:0]        ib_iface.c:1059 UCX  ERROR ibv_create_cq(cqe=256) failed: Connection timed out
[1741422010.288570] [ohm:1693270:0]        ib_iface.c:1059 UCX  ERROR ibv_create_cq(cqe=256) failed: Connection timed out
[1741422010.290579] [ohm:1693173:0]        ib_iface.c:1059 UCX  ERROR ibv_create_cq(cqe=256) failed: Connection timed out
[1741422010.291445] [ohm:1693233:0]        ib_iface.c:1059 UCX  ERROR ibv_create_cq(cqe=256) failed: Connection timed out
[1741422010.291808] [ohm:1693209:0]        ib_iface.c:1059 UCX  ERROR ibv_create_cq(cqe=256) failed: Connection timed out
[1741422010.292310] [ohm:1693160:0]        ib_iface.c:1059 UCX  ERROR ibv_create_cq(cqe=256) failed: Connection timed out
[1741422010.294253] [ohm:1693244:0]        ib_iface.c:1059 UCX  ERROR ibv_create_cq(cqe=256) failed: Connection timed out
[1741422010.294363] [ohm:1693291:0]        ib_iface.c:1059 UCX  ERROR ibv_create_cq(cqe=256) failed: Connection timed out


           ************************************************************
           *        Program running with 64 parallel MPI-processes    *
           *              working on a common directory               *
           ************************************************************

-------------------------------------------------------------------------------------------
                                      ORCA LEAN-SCF
                              memory conserving SCF solver
-------------------------------------------------------------------------------------------

----------------------------------------D-I-I-S--------------------------------------------
Iteration    Energy (Eh)           Delta-E    RMSDP     MaxDP     DIISErr   Damp  Time(sec)
-------------------------------------------------------------------------------------------
               ***  Starting incremental Fock matrix formation  ***
    1    -908.1097039087051144     0.00e+00  1.75e-03  2.47e-01  1.44e-01  0.700   8.1
    2    -908.3792215791111175    -2.70e-01  1.38e-03  1.68e-01  6.84e-02  0.700   6.6
                               ***Turning on AO-DIIS***
    3    -908.4962441204427250    -1.17e-01  9.88e-04  1.51e-01  2.75e-02  0.700   5.9
    4    -908.5687026745597450    -7.25e-02  2.33e-03  2.46e-01  1.75e-02  0.000   5.8
    5    -908.7320945078683962    -1.63e-01  3.63e-04  8.78e-02  4.05e-03  0.000   5.9
                              *** Initializing SOSCF ***
---------------------------------------S-O-S-C-F--------------------------------------
Iteration    Energy (Eh)           Delta-E    RMSDP     MaxDP     MaxGrad    Time(sec)
--------------------------------------------------------------------------------------
    6    -908.7336092434941293    -1.51e-03  1.60e-04  3.97e-02  2.53e-03     6.6
               *** Restarting incremental Fock matrix formation ***
    7    -908.7343552200356953    -7.46e-04  2.40e-04  4.55e-02  7.07e-03     7.6
    8    -908.7348917378160422    -5.37e-04  3.34e-04  7.82e-02  3.96e-03     6.7
    9    -908.7351039126585874    -2.12e-04  1.31e-04  1.16e-02  1.12e-03     6.9
   10    -908.7352079684785622    -1.04e-04  5.27e-05  1.49e-02  5.67e-04     6.7
   11    -908.7352233028734645    -1.53e-05  1.45e-05  4.01e-03  1.60e-04     6.5
   12    -908.7352259302390394    -2.63e-06  9.18e-06  1.92e-03  1.38e-04     6.4
   13    -908.7352273341973614    -1.40e-06  7.00e-06  1.50e-03  5.14e-05     6.3
   14    -908.7352276702861218    -3.36e-07  2.97e-06  7.75e-04  5.44e-05     6.2
   15    -908.7352277638731266    -9.36e-08  2.12e-06  5.32e-04  1.91e-05     6.1
   16    -908.7352278153214229    -5.14e-08  2.33e-06  5.31e-04  6.02e-06     5.9
   17    -908.7352278862215371    -7.09e-08  2.20e-06  5.92e-04  3.26e-06     5.8
   18    -908.7352278326945907     5.35e-08  3.02e-06  6.39e-04  1.17e-06     5.6
                  *** Gradient check signals convergence ***

               *****************************************************
               *                     SUCCESS                       *
               *           SCF CONVERGED AFTER  18 CYCLES          *
               *****************************************************

Recomputing exchange energy using gridx3       ... done (    7.950 sec)
Old exchange energy                            :    -35.013367806 Eh
New exchange energy                            :    -35.013369448 Eh
Exchange energy change after final integration :     -0.000001642 Eh
Total energy after final integration           :   -908.735229475 Eh
             **** ENERGY FILE WAS UPDATED (orca.en.tmp) ****

----------------
TOTAL SCF ENERGY
----------------

Total Energy       :       -908.73522947483877 Eh          -24727.94274 eV

Components:
Nuclear Repulsion  :       1450.93983713759030 Eh           39482.08020 eV
Electronic Energy  :      -2359.67506497028444 Eh          -64210.02289 eV
One Electron Energy:      -4119.30616531840860 Eh         -112092.01941 eV
Two Electron Energy:       1759.63110034812394 Eh           47881.99651 eV

Virial components:
Potential Energy   :      -1814.04388797476395 Eh          -49362.64374 eV
Kinetic Energy     :        905.30865849992529 Eh           24634.70100 eV
Virial Ratio       :          2.00378497537027

DFT components:
N(Alpha)           :       67.000019044065 electrons
N(Beta)            :       65.000031028184 electrons
N(Total)           :      132.000050072250 electrons
E(XC)              :      -86.177497970016 Eh       

---------------
SCF CONVERGENCE
---------------

  Last Energy change         ...   -5.3527e-08  Tolerance :   1.0000e-08
  Last MAX-Density change    ...    6.3913e-04  Tolerance :   1.0000e-07
  Last RMS-Density change    ...    3.0246e-06  Tolerance :   5.0000e-09
  Last DIIS Error            ...    2.5279e-03  Tolerance :   5.0000e-07
  Last Orbital Gradient      ...    1.1651e-06  Tolerance :   1.0000e-05
  Last Orbital Rotation      ...    9.2353e-06  Tolerance :   1.0000e-05


----------------------
UHF SPIN CONTAMINATION
----------------------

Warning: in a DFT calculation there is little theoretical justification to 
         calculate <S**2> as in Hartree-Fock theory. We will do it anyways
         but you should keep in mind that the values have only limited relevance

Expectation value of <S**2>     :     2.013660
Ideal value S*(S+1) for S=1.0   :     2.000000
Deviation                       :     0.013660

----------------
ORBITAL ENERGIES
----------------
                 SPIN UP ORBITALS
  NO   OCC          E(Eh)            E(eV) 
   0   1.0000     -19.338669      -526.2319 
   1   1.0000     -19.334516      -526.1189 
   2   1.0000     -19.326724      -525.9069 
   3   1.0000     -19.319982      -525.7234 
   4   1.0000     -14.560469      -396.2105 
   5   1.0000     -14.560409      -396.2089 
   6   1.0000     -14.559603      -396.1869 
   7   1.0000     -14.558505      -396.1571 
   8   1.0000     -10.519747      -286.2569 
   9   1.0000     -10.504087      -285.8307 
  10   1.0000     -10.485665      -285.3294 
  11   1.0000     -10.481818      -285.2248 
  12   1.0000     -10.450818      -284.3812 
  13   1.0000     -10.445080      -284.2251 
  14   1.0000     -10.419450      -283.5276 
  15   1.0000     -10.418319      -283.4969 
  16   1.0000     -10.381423      -282.4929 
  17   1.0000     -10.368299      -282.1357 
  18   1.0000      -1.223285       -33.2873 
  19   1.0000      -1.201144       -32.6848 
  20   1.0000      -1.200210       -32.6594 
  21   1.0000      -1.181581       -32.1524 
  22   1.0000      -1.119945       -30.4753 
  23   1.0000      -1.089856       -29.6565 
  24   1.0000      -1.054977       -28.7074 
  25   1.0000      -1.046809       -28.4851 
  26   1.0000      -0.979369       -26.6500 
  27   1.0000      -0.947309       -25.7776 
  28   1.0000      -0.881244       -23.9799 
  29   1.0000      -0.835426       -22.7331 
  30   1.0000      -0.825697       -22.4683 
  31   1.0000      -0.802315       -21.8321 
  32   1.0000      -0.780045       -21.2261 
  33   1.0000      -0.776467       -21.1287 
  34   1.0000      -0.700437       -19.0599 
  35   1.0000      -0.690990       -18.8028 
  36   1.0000      -0.687237       -18.7007 
  37   1.0000      -0.662037       -18.0149 
  38   1.0000      -0.653388       -17.7796 
  39   1.0000      -0.641827       -17.4650 
  40   1.0000      -0.629480       -17.1290 
  41   1.0000      -0.603051       -16.4098 
  42   1.0000      -0.590832       -16.0773 
  43   1.0000      -0.577695       -15.7199 
  44   1.0000      -0.571843       -15.5607 
  45   1.0000      -0.570109       -15.5135 
  46   1.0000      -0.566455       -15.4140 
  47   1.0000      -0.559405       -15.2222 
  48   1.0000      -0.555234       -15.1087 
  49   1.0000      -0.548240       -14.9184 
  50   1.0000      -0.545715       -14.8497 
  51   1.0000      -0.538473       -14.6526 
  52   1.0000      -0.525366       -14.2959 
  53   1.0000      -0.520287       -14.1577 
  54   1.0000      -0.514345       -13.9960 
  55   1.0000      -0.507238       -13.8027 
  56   1.0000      -0.493011       -13.4155 
  57   1.0000      -0.420640       -11.4462 
  58   1.0000      -0.417926       -11.3724 
  59   1.0000      -0.408626       -11.1193 
  60   1.0000      -0.402478       -10.9520 
  61   1.0000      -0.399689       -10.8761 
  62   1.0000      -0.393446       -10.7062 
  63   1.0000      -0.389877       -10.6091 
  64   1.0000      -0.386216       -10.5095 
  65   1.0000      -0.331707        -9.0262 
  66   1.0000      -0.327253        -8.9050 
  67   0.0000       0.005328         0.1450 
  68   0.0000       0.029797         0.8108 
  69   0.0000       0.030894         0.8407 
  70   0.0000       0.037810         1.0289 
  71   0.0000       0.055430         1.5083 
  72   0.0000       0.056787         1.5452 
  73   0.0000       0.058774         1.5993 
  74   0.0000       0.063124         1.7177 
  75   0.0000       0.064959         1.7676 
  76   0.0000       0.069574         1.8932 
  77   0.0000       0.075271         2.0482 

                 SPIN DOWN ORBITALS
  NO   OCC          E(Eh)            E(eV) 
   0   1.0000     -19.334997      -526.1320 
   1   1.0000     -19.329681      -525.9874 
   2   1.0000     -19.326588      -525.9032 
   3   1.0000     -19.319834      -525.7194 
   4   1.0000     -14.560031      -396.1986 
   5   1.0000     -14.559777      -396.1917 
   6   1.0000     -14.559030      -396.1714 
   7   1.0000     -14.558143      -396.1472 
   8   1.0000     -10.519789      -286.2580 
   9   1.0000     -10.504122      -285.8317 
  10   1.0000     -10.486502      -285.3522 
  11   1.0000     -10.482846      -285.2527 
  12   1.0000     -10.450129      -284.3625 
  13   1.0000     -10.444190      -284.2009 
  14   1.0000     -10.408198      -283.2215 
  15   1.0000     -10.407150      -283.1929 
  16   1.0000     -10.381945      -282.5071 
  17   1.0000     -10.368707      -282.1469 
  18   1.0000      -1.222368       -33.2623 
  19   1.0000      -1.196804       -32.5667 
  20   1.0000      -1.195709       -32.5369 
  21   1.0000      -1.177652       -32.0455 
  22   1.0000      -1.117434       -30.4069 
  23   1.0000      -1.087243       -29.5854 
  24   1.0000      -1.053089       -28.6560 
  25   1.0000      -1.044946       -28.4344 
  26   1.0000      -0.964602       -26.2481 
  27   1.0000      -0.930777       -25.3277 
  28   1.0000      -0.875934       -23.8354 
  29   1.0000      -0.831172       -22.6173 
  30   1.0000      -0.816737       -22.2246 
  31   1.0000      -0.796645       -21.6778 
  32   1.0000      -0.778267       -21.1777 
  33   1.0000      -0.774599       -21.0779 
  34   1.0000      -0.694222       -18.8907 
  35   1.0000      -0.686759       -18.6877 
  36   1.0000      -0.679999       -18.5037 
  37   1.0000      -0.656831       -17.8733 
  38   1.0000      -0.646936       -17.6040 
  39   1.0000      -0.632519       -17.2117 
  40   1.0000      -0.623536       -16.9673 
  41   1.0000      -0.598888       -16.2966 
  42   1.0000      -0.584948       -15.9172 
  43   1.0000      -0.568214       -15.4619 
  44   1.0000      -0.566628       -15.4187 
  45   1.0000      -0.561390       -15.2762 
  46   1.0000      -0.558120       -15.1872 
  47   1.0000      -0.553121       -15.0512 
  48   1.0000      -0.550271       -14.9736 
  49   1.0000      -0.544063       -14.8047 
  50   1.0000      -0.536059       -14.5869 
  51   1.0000      -0.531218       -14.4552 
  52   1.0000      -0.519152       -14.1268 
  53   1.0000      -0.511628       -13.9221 
  54   1.0000      -0.504398       -13.7254 
  55   1.0000      -0.500318       -13.6143 
  56   1.0000      -0.485178       -13.2024 
  57   1.0000      -0.417273       -11.3546 
  58   1.0000      -0.413969       -11.2647 
  59   1.0000      -0.400446       -10.8967 
  60   1.0000      -0.391863       -10.6631 
  61   1.0000      -0.387830       -10.5534 
  62   1.0000      -0.385682       -10.4949 
  63   1.0000      -0.384970       -10.4756 
  64   1.0000      -0.370140       -10.0720 
  65   0.0000      -0.064001        -1.7416 
  66   0.0000      -0.048992        -1.3331 
  67   0.0000       0.004887         0.1330 
  68   0.0000       0.029905         0.8137 
  69   0.0000       0.030778         0.8375 
  70   0.0000       0.037778         1.0280 
  71   0.0000       0.056912         1.5487 
  72   0.0000       0.058399         1.5891 
  73   0.0000       0.060459         1.6452 
  74   0.0000       0.063171         1.7190 
  75   0.0000       0.067196         1.8285 
*Only the first 10 virtual orbitals were printed.

                    ********************************
                    * MULLIKEN POPULATION ANALYSIS *
                    ********************************

--------------------------------------------
MULLIKEN ATOMIC CHARGES AND SPIN POPULATIONS
--------------------------------------------
   0 O :   -0.674646    0.176112
   1 O :   -0.648104    0.139615
   2 O :   -0.626955    0.005380
   3 O :   -0.620405    0.005457
   4 N :   -0.292277    0.021646
   5 N :   -0.225789    0.026882
   6 N :   -0.023598    0.026149
   7 N :    0.103312    0.024974
   8 C :    0.137862    0.465081
   9 C :    0.075632    0.521923
  10 C :    0.181667    0.163707
  11 C :    0.517357    0.078116
  12 C :   -1.671474   -0.025295
  13 C :   -1.523082    0.011514
  14 C :    0.735264    0.138473
  15 C :    0.527916    0.129163
  16 C :    0.435270   -0.004607
  17 C :    0.289473   -0.006213
  18 H :    0.515341    0.003679
  19 H :    0.528362    0.013066
  20 H :    0.404972    0.024088
  21 H :    0.372785    0.009278
  22 H :    0.324791    0.007605
  23 H :    0.421258    0.023341
  24 H :    0.321098    0.005034
  25 H :    0.309243    0.018385
  26 H :    0.069323   -0.001397
  27 H :   -0.019853   -0.000813
  28 H :    0.037481    0.001369
  29 H :    0.017778   -0.001714
Sum of atomic charges         :   -0.0000000
Sum of atomic spin populations:    2.0000000

-----------------------------------------------------
MULLIKEN REDUCED ORBITAL CHARGES AND SPIN POPULATIONS
-----------------------------------------------------
CHARGE
  0 O s       :     4.091362  s :     4.091362
      pz      :     1.593787  p :     4.550169
      px      :     1.339905
      py      :     1.616477
      dz2     :     0.005241  d :     0.031286
      dxz     :     0.004428
      dyz     :     0.005370
      dx2y2   :     0.010812
      dxy     :     0.005436
[...]
[1741422292.396231] [ohm:1695659:0]        ib_iface.c:1059 UCX  ERROR ibv_create_cq(cqe=256) failed: Connection timed out
[1741422292.397665] [ohm:1695717:0]        ib_iface.c:1059 UCX  ERROR ibv_create_cq(cqe=256) failed: Connection timed out
[1741422292.399555] [ohm:1695673:0]        ib_iface.c:1059 UCX  ERROR ibv_create_cq(cqe=256) failed: Connection timed out
[1741422292.400467] [ohm:1695647:0]        ib_iface.c:1059 UCX  ERROR ibv_create_cq(cqe=256) failed: Connection timed out
[1741422292.401597] [ohm:1695725:0]        ib_iface.c:1059 UCX  ERROR ibv_create_cq(cqe=256) failed: Connection timed out
[1741422292.402085] [ohm:1695733:0]        ib_iface.c:1059 UCX  ERROR ibv_create_cq(cqe=256) failed: Connection timed out
[1741422292.402565] [ohm:1695643:0]        ib_iface.c:1059 UCX  ERROR ibv_create_cq(cqe=256) failed: Connection timed out
[1741422292.403311] [ohm:1695710:0]        ib_iface.c:1059 UCX  ERROR ibv_create_cq(cqe=256) failed: Connection timed out
[1741422292.405603] [ohm:1695750:0]        ib_iface.c:1059 UCX  ERROR ibv_create_cq(cqe=256) failed: Connection timed out
[1741422292.405605] [ohm:1695753:0]        ib_iface.c:1059 UCX  ERROR ibv_create_cq(cqe=256) failed: Connection timed out


           ************************************************************
           *        Program running with 64 parallel MPI-processes    *
           *              working on a common directory               *
           ************************************************************

------------------------------------------------------------------------------
                              ORCA PROPERTY CALCULATIONS
------------------------------------------------------------------------------

GBWName                                 ... orca.gbw
Number of atoms                         ...     30
Number of basis functions               ...    882
Max core memory                         ...   1024 MB

Electric properties:
Dipole moment                           ... YES
Quadrupole moment                       ...  NO
Static polarizability (Dipole/Dipole)   ...  NO
Static polarizability (Dipole/Quad.)    ...  NO
Static polarizability (Quad./Quad.)     ...  NO
Static polarizability (Velocity)        ...  NO

Atomic electric properties:
Dipole moment                           ...  NO
Quadrupole moment                       ...  NO
Static polarizability                   ...  NO

Choice of electric origin               ... Center of mass
Position of electric origin             ...    -0.015177    -0.078164    -0.035477

General magnetic properties:
Magnetizability                         ...  NO

EPR properties:
g-Tensor (aka g-matrix)                 ...  NO
Zero-Field splitting spin-orbit         ...  NO
Zero-field splitting spin-spin          ...  NO
Hyperfine couplings                     ...  NO (   0 nuclei)
Quadrupole couplings                    ...  NO (   0 nuclei)
Contact density                         ...  NO (   0 nuclei)

NMR properties:
Chemical shifts                         ...  NO (   0 nuclei)
Spin-rotation constants                 ...  NO (   0 nuclei)
Spin-spin couplings                     ...  NO (   0 nuclei,    0 pairs)

Choice of magnetic origin               ... GIAO
Position of magnetic origin             ...     0.000000     0.000000     0.000000

Properties with geometric perturbations:
SCF Hessian                             ...  NO
IR spectrum                             ...  NO
VCD spectrum                            ...  NO
X-ray spectroscopy properties:
SCF XES/XAS/RIXS spectra                ...  NO


-------------
DIPOLE MOMENT
-------------

Method             : SCF
Type of density    : Electron Density
Multiplicity       :   3
Irrep              :   0
Energy             :  -908.7352294748387749 Eh
Relativity type    : 
Basis              : AO
                                X                 Y                 Z
Electronic contribution:     -3.256586878      -9.895645367      -7.142066593
Nuclear contribution   :      2.591625787      11.671718850       9.653809192
                        -----------------------------------------
Total Dipole Moment    :     -0.664961091       1.776073483       2.511742599
                        -----------------------------------------
Magnitude (a.u.)       :      3.147294259
Magnitude (Debye)      :      7.999786253



--------------------
Rotational spectrum 
--------------------
 
Rotational constants in cm-1:             0.019121             0.015215             0.012609 
Rotational constants in MHz :           573.245939           456.149023           378.021951 

Dipole components along the rotational axes: 
x,y,z [a.u.] :     0.464809    -1.698337     2.608652 
x,y,z [Debye]:     1.181450    -4.316830     6.630666 

 

-------------
DIPOLE MOMENT
-------------

Method             : TDA/CIS
Type of density    : Electron Density
Level              : Relaxed density
State              :   2
Multiplicity       :   3
Irrep              :   0
Energy             :     0.0000000000000000 Eh
Relativity type    : 
Basis              : AO
                                X                 Y                 Z
Electronic contribution:     -3.356875207      -9.891834204      -7.024183919
Nuclear contribution   :      2.591625787      11.671718850       9.653809192
                        -----------------------------------------
Total Dipole Moment    :     -0.765249420       1.779884646       2.629625273
                        -----------------------------------------
Magnitude (a.u.)       :      3.266270825
Magnitude (Debye)      :      8.302200651



--------------------
Rotational spectrum 
--------------------
 
Rotational constants in cm-1:             0.019121             0.015215             0.012609 
Rotational constants in MHz :           573.245939           456.149023           378.021951 

Dipole components along the rotational axes: 
x,y,z [a.u.] :     0.391578    -1.733564     2.740428 
x,y,z [Debye]:     0.995313    -4.406371     6.965615 

 

Dipole moment calculation done in   0.2 sec 

Maximum memory used throughout the entire PROP-calculation: 81.9 MB
[1741422294.849899] [ohm:1695973:0]        ib_iface.c:1059 UCX  ERROR ibv_create_cq(cqe=256) failed: Connection timed out
[1741422294.857683] [ohm:1695974:0]        ib_iface.c:1059 UCX  ERROR ibv_create_cq(cqe=256) failed: Connection timed out
[1741422294.873827] [ohm:1695972:0]        ib_iface.c:1059 UCX  ERROR ibv_create_cq(cqe=256) failed: Connection timed out
[1741422294.877779] [ohm:1695978:0]        ib_iface.c:1059 UCX  ERROR ibv_create_cq(cqe=256) failed: Connection timed out
[1741422294.878330] [ohm:1695983:0]        ib_iface.c:1059 UCX  ERROR ibv_create_cq(cqe=256) failed: Connection timed out
[1741422294.888077] [ohm:1695975:0]        ib_iface.c:1059 UCX  ERROR ibv_create_cq(cqe=256) failed: Connection timed out
[1741422294.891250] [ohm:1695977:0]        ib_iface.c:1059 UCX  ERROR ibv_create_cq(cqe=256) failed: Connection timed out
[1741422294.892765] [ohm:1695991:0]        ib_iface.c:1059 UCX  ERROR ibv_create_cq(cqe=256) failed: Connection timed out
[1741422294.893738] [ohm:1695976:0]        ib_iface.c:1059 UCX  ERROR ibv_create_cq(cqe=256) failed: Connection timed out
[1741422294.920410] [ohm:1695984:0]        ib_iface.c:1059 UCX  ERROR ibv_create_cq(cqe=256) failed: Connection timed out
[1741422294.932378] [ohm:1695995:0]        ib_iface.c:1059 UCX  ERROR ibv_create_cq(cqe=256) failed: Connection timed out
[1741422294.935231] [ohm:1696000:0]        ib_iface.c:1059 UCX  ERROR ibv_create_cq(cqe=256) failed: Connection timed out
[1741422294.938455] [ohm:1695993:0]        ib_iface.c:1059 UCX  ERROR ibv_create_cq(cqe=256) failed: Connection timed out
[1741422294.960502] [ohm:1695982:0]        ib_iface.c:1059 UCX  ERROR ibv_create_cq(cqe=256) failed: Connection timed out
[1741422294.977554] [ohm:1696037:0]        ib_iface.c:1059 UCX  ERROR ibv_create_cq(cqe=256) failed: Connection timed out
[1741422294.985028] [ohm:1695985:0]        ib_iface.c:1059 UCX  ERROR ibv_create_cq(cqe=256) failed: Connection timed out
[1741422294.995872] [ohm:1696117:0]        ib_iface.c:1059 UCX  ERROR ibv_create_cq(cqe=256) failed: Connection timed out
[1741422295.008149] [ohm:1695989:0]        ib_iface.c:1059 UCX  ERROR ibv_create_cq(cqe=256) failed: Connection timed out
[1741422295.011424] [ohm:1695981:0]        ib_iface.c:1059 UCX  ERROR ibv_create_cq(cqe=256) failed: Connection timed out
[1741422295.016030] [ohm:1696094:0]        ib_iface.c:1059 UCX  ERROR ibv_create_cq(cqe=256) failed: Connection timed out
[1741422295.016506] [ohm:1695979:0]        ib_iface.c:1059 UCX  ERROR ibv_create_cq(cqe=256) failed: Connection timed out
[1741422295.024136] [ohm:1696101:0]        ib_iface.c:1059 UCX  ERROR ibv_create_cq(cqe=256) failed: Connection timed out
[1741422295.037854] [ohm:1696025:0]        ib_iface.c:1059 UCX  ERROR ibv_create_cq(cqe=256) failed: Connection timed out
[1741422295.039192] [ohm:1696001:0]        ib_iface.c:1059 UCX  ERROR ibv_create_cq(cqe=256) failed: Connection timed out
[1741422295.042129] [ohm:1696072:0]        ib_iface.c:1059 UCX  ERROR ibv_create_cq(cqe=256) failed: Connection timed out
[1741422295.056712] [ohm:1696032:0]        ib_iface.c:1059 UCX  ERROR ibv_create_cq(cqe=256) failed: Connection timed out
[1741422295.061928] [ohm:1696068:0]        ib_iface.c:1059 UCX  ERROR ibv_create_cq(cqe=256) failed: Connection timed out
[1741422295.062680] [ohm:1696013:0]        ib_iface.c:1059 UCX  ERROR ibv_create_cq(cqe=256) failed: Connection timed out
[1741422295.064896] [ohm:1696020:0]        ib_iface.c:1059 UCX  ERROR ibv_create_cq(cqe=256) failed: Connection timed out
[1741422295.085295] [ohm:1696056:0]        ib_iface.c:1059 UCX  ERROR ibv_create_cq(cqe=256) failed: Connection timed out
[1741422295.088935] [ohm:1696074:0]        ib_iface.c:1059 UCX  ERROR ibv_create_cq(cqe=256) failed: Connection timed out
[1741422295.103251] [ohm:1696098:0]        ib_iface.c:1059 UCX  ERROR ibv_create_cq(cqe=256) failed: Connection timed out
[1741422295.105450] [ohm:1695998:0]        ib_iface.c:1059 UCX  ERROR ibv_create_cq(cqe=256) failed: Connection timed out
[1741422295.110351] [ohm:1696061:0]        ib_iface.c:1059 UCX  ERROR ibv_create_cq(cqe=256) failed: Connection timed out
[1741422295.113798] [ohm:1695992:0]        ib_iface.c:1059 UCX  ERROR ibv_create_cq(cqe=256) failed: Connection timed out
[1741422295.121372] [ohm:1695996:0]        ib_iface.c:1059 UCX  ERROR ibv_create_cq(cqe=256) failed: Connection timed out
[1741422295.124361] [ohm:1696003:0]        ib_iface.c:1059 UCX  ERROR ibv_create_cq(cqe=256) failed: Connection timed out
[1741422295.126722] [ohm:1696060:0]        ib_iface.c:1059 UCX  ERROR ibv_create_cq(cqe=256) failed: Connection timed out
[1741422295.131289] [ohm:1695980:0]        ib_iface.c:1059 UCX  ERROR ibv_create_cq(cqe=256) failed: Connection timed out
[1741422295.143359] [ohm:1696079:0]        ib_iface.c:1059 UCX  ERROR ibv_create_cq(cqe=256) failed: Connection timed out
[1741422295.144933] [ohm:1695987:0]        ib_iface.c:1059 UCX  ERROR ibv_create_cq(cqe=256) failed: Connection timed out
[1741422295.146091] [ohm:1696027:0]        ib_iface.c:1059 UCX  ERROR ibv_create_cq(cqe=256) failed: Connection timed out
[1741422295.147598] [ohm:1696090:0]        ib_iface.c:1059 UCX  ERROR ibv_create_cq(cqe=256) failed: Connection timed out
[1741422295.149527] [ohm:1696111:0]        ib_iface.c:1059 UCX  ERROR ibv_create_cq(cqe=256) failed: Connection timed out
[1741422295.149588] [ohm:1696048:0]        ib_iface.c:1059 UCX  ERROR ibv_create_cq(cqe=256) failed: Connection timed out
[1741422295.157433] [ohm:1696011:0]        ib_iface.c:1059 UCX  ERROR ibv_create_cq(cqe=256) failed: Connection timed out
[1741422295.158547] [ohm:1695990:0]        ib_iface.c:1059 UCX  ERROR ibv_create_cq(cqe=256) failed: Connection timed out
[1741422295.168628] [ohm:1696005:0]        ib_iface.c:1059 UCX  ERROR ibv_create_cq(cqe=256) failed: Connection timed out
[1741422295.171999] [ohm:1696023:0]        ib_iface.c:1059 UCX  ERROR ibv_create_cq(cqe=256) failed: Connection timed out
[1741422295.179231] [ohm:1696044:0]        ib_iface.c:1059 UCX  ERROR ibv_create_cq(cqe=256) failed: Connection timed out
[1741422295.180743] [ohm:1695997:0]        ib_iface.c:1059 UCX  ERROR ibv_create_cq(cqe=256) failed: Connection timed out
[1741422295.180780] [ohm:1696082:0]        ib_iface.c:1059 UCX  ERROR ibv_create_cq(cqe=256) failed: Connection timed out
[1741422295.183545] [ohm:1696030:0]        ib_iface.c:1059 UCX  ERROR ibv_create_cq(cqe=256) failed: Connection timed out
[1741422295.184547] [ohm:1695999:0]        ib_iface.c:1059 UCX  ERROR ibv_create_cq(cqe=256) failed: Connection timed out
[1741422295.185224] [ohm:1695986:0]        ib_iface.c:1059 UCX  ERROR ibv_create_cq(cqe=256) failed: Connection timed out
[1741422295.186026] [ohm:1696103:0]        ib_iface.c:1059 UCX  ERROR ibv_create_cq(cqe=256) failed: Connection timed out
[1741422295.186574] [ohm:1696064:0]        ib_iface.c:1059 UCX  ERROR ibv_create_cq(cqe=256) failed: Connection timed out
[1741422295.189365] [ohm:1695994:0]        ib_iface.c:1059 UCX  ERROR ibv_create_cq(cqe=256) failed: Connection timed out
[1741422295.189727] [ohm:1696080:0]        ib_iface.c:1059 UCX  ERROR ibv_create_cq(cqe=256) failed: Connection timed out
[1741422295.192486] [ohm:1696108:0]        ib_iface.c:1059 UCX  ERROR ibv_create_cq(cqe=256) failed: Connection timed out
[1741422295.193210] [ohm:1695988:0]        ib_iface.c:1059 UCX  ERROR ibv_create_cq(cqe=256) failed: Connection timed out
[1741422295.193636] [ohm:1696085:0]        ib_iface.c:1059 UCX  ERROR ibv_create_cq(cqe=256) failed: Connection timed out
[1741422295.194584] [ohm:1696051:0]        ib_iface.c:1059 UCX  ERROR ibv_create_cq(cqe=256) failed: Connection timed out
[1741422295.194679] [ohm:1696105:0]        ib_iface.c:1059 UCX  ERROR ibv_create_cq(cqe=256) failed: Connection timed out

--------------------------------
SUGGESTED CITATIONS FOR THIS RUN
--------------------------------

Below you find a list of papers that are relevant to this ORCA run
We neither can nor want to force you to cite these papers, but we appreciate if you do
You receive ORCA, which is the product of decades of hard work by many enthusiastic individuals, for free
The only thing we kindly ask in return is that you cite our papers,
We deeply appreciate it, if you show your appreciation for ORCA by not just citing the generic ORCA reference.

Please note that relegating all ORCA citations to the supporting information does *not* help us.
SI sections are not indexed - citations you put there will not count into any citation statistics
But we need these citations in order to attract the funding resources that allow us to do what we are doing

Therefore, if you are a happy ORCA user, please consider citing a few of the papers listed below in the main body of your paper

In addition to the list printed below, the program has created the file orca.bibtex that contains the list in bibtex format
You can import this file easily into all common literature databanks and citation aid programs


List of essential papers. We consider these as the minimum necessary citations

  1. Neese,F.
     Software update: the ORCA program system, version 5.0
     WIRES Comput. Molec. Sci., 2022 12(1)e1606
     doi.org/10.1002/wcms.1606

List of papers to cite with high priority. The work reported in these papers was absolutely
necessary for this run to complete.
Our perspective: the developers of density functionals and basis sets usually get cited in chemistry papers
Good! But without the algorithms to do something with them, the functionals or basis sets would not do anything.
Hence, in our opinion, the algorithm design and method developments papers are equally worthy of getting cited

  1. Neese,F.; Olbrich,G.
     Efficient use of the resolution of the identity approximation in time-dependent density functional calculations with hybrid density functionals
     Chem. Phys. Lett., 2002 362 170-178
     doi.org/10.1016/s0009-2614(02)01053-9
  2. Neese,F.
     An improvement of the resolution of the identity approximation for the formation of the Coulomb matrix
     J. Comp. Chem., 2003 24(14)1740-1747
     doi.org/10.1002/jcc.10318
  3. Neese,F.; Wennmohs,F.; Hansen,A.; Becker,U.
     Efficient, approximate and parallel Hartree-Fock and hybrid DFT calculations. A 'chain-of-spheres' algorithm for the Hartree-Fock exchange
     Chem. Phys., 2009 356(1-3)98-109
     doi.org/10.1016/j.chemphys.2008.10.036
  4. Petrenko,T.; Kossmann,S.; Neese,F.
     Efficient time-dependent density functional theory approximations for hybrid density functionals: Analytical gradients and parallelization
     J. Chem. Phys., 2011 134 054116
     doi.org/10.1063/1.3533441
  5. Helmich-Paris,B.; de Souza,B.; Neese,F.; Izsák,R.
     An improved chain of spheres for exchange algorithm
     J. Chem. Phys., 2021 155 104109
     doi.org/doi: 10.1063/5.0058766.
  6. Neese,F.
     The SHARK Integral Generation and Digestion System
     J. Comp. Chem., 2022  1-16
     doi.org/10.1002/jcc.26942
  7. Lehtola,S.; Steigemann,C.; Oliveira,M.; Marques,M.
     Recent developments in Libxc - A comprehensive library of functionals for density functional theory
     Software X, 2018 7 
     doi.org/10.1016/j.softx.2017.11.002
  8. Grimme,S.; Antony,J.; Ehrlich,S.; Krieg,H.
     A consistent and accurate ab initio parametrization of density functional dispersion correction (DFT-D) for the 94 elements H-Pu
     J. Chem. Phys., 2010 132 154104-XXXX
     doi.org/10.1063/1.3382344
  9. Grimme,S.; Ehrlich,S.; Goerigk,L.
     Effect of the damping function in dispersion corrected density functional theory
     J. Comput. Chem., 2011 32(7)1456-1465
     doi.org/10.1002/jcc.21759

List of suggested additional citations. These are papers that are important in the 'surrounding' of 
of this run, or papers that preceded the highly important papers. If you like your results we are grateful for a citation.

  1. Izsak,R.; Neese,F.
     An overlap fitted chain of spheres exchange method
     J. Chem. Phys., 2011 135 144105
     doi.org/10.1063/1.3646921
  2. Izsak,R.; Hansen,A.; Neese,F.
     The resolution of identity and chain of spheres approximations for the LPNO-CCSD singles Fock term
     Molec. Phys., 2012 110 2413-2417
     doi.org/10.1080/00268976.2012.687466
  3. Neese,F.
     The ORCA program system
     WIRES Comput. Molec. Sci., 2012 2(1)73-78
     doi.org/10.1002/wcms.81
  4. Izsak,R.; Neese,F.; Klopper,W.
     Robust fitting techniques in the chain of spheres approximation to the Fock exchange: The role of the complementary space
     J. Chem. Phys., 2013 139 
     doi.org/10.1063/1.4819264
  5. Neese,F.
     Software update: the ORCA program system, version 4.0
     WIRES Comput. Molec. Sci., 2018 8(1)1-6
     doi.org/10.1002/wcms.1327
  6. Neese,F.; Wennmohs,F.; Becker,U.; Riplinger,C.
     The ORCA quantum chemistry program package
     J. Chem. Phys., 2020 152 Art. No. L224108
     doi.org/10.1063/5.0004608

List of optional additional citations

  1. Neese,F.
     Approximate second-order SCF convergence for spin unrestricted wavefunctions
     Chem. Phys. Lett., 2000 325(1-3)93-98
     doi.org/10.1016/s0009-2614(00)00662-x

Timings for individual modules:

Sum of individual times          ...      295.637 sec (=   4.927 min)
Startup calculation              ...        6.429 sec (=   0.107 min)   2.2 %
SCF iterations                   ...      133.355 sec (=   2.223 min)  45.1 %
Property integrals               ...        4.197 sec (=   0.070 min)   1.4 %
Property calculations            ...        2.899 sec (=   0.048 min)   1.0 %
CIS module                       ...      148.758 sec (=   2.479 min)  50.3 %
                             ****ORCA TERMINATED NORMALLY****
TOTAL RUN TIME: 0 days 0 hours 4 minutes 57 seconds 719 msec
