30
Properties=species:S:1:pos:R:3:momenta:R:3:forces:R:3 Coordinates=T from=T ORCA-job=T orca=T E=T -908.729216409580=T energy=-24726.44352962626 free_energy=-24726.44352962626 stress="-3.754027170740303e-07 -6.634536252497434e-07 3.4796451012555977e-07 -6.634536252497434e-07 -5.914831417775865e-07 3.522394799998918e-07 3.4796451012555977e-07 3.522394799998918e-07 2.45012263429796e-07" pbc="F F F"
O        2.16009375      -0.04157599      -1.22570343      -0.58062297       0.26769564       0.76483738       0.10309086       0.65266384      -0.44430569
O        0.02024237       2.58546230      -1.95354784       1.39038814      -0.44321797       0.99714353       0.60845162       0.33064204      -0.37050293
O        0.58019392      -3.77875576       0.74387611      -0.33576099       0.31836394       0.25196088       0.81834369       1.64371868      -0.04572756
O       -1.94995220      -1.35234297      -1.52321764       1.14590918      -1.29157011      -0.55550863      -0.45903816      -0.07380851       0.04817368
N        0.93557438      -1.95522946       2.08616623       0.29675731      -0.06312618      -0.09757415      -0.70790720      -0.31377379      -0.13826532
N       -1.39986857      -0.50880045       0.50449949       0.38558568      -0.86266311      -0.50226538       1.31059460       1.85478380       0.73379046
N        1.18407696      -1.79387995      -0.25853162      -0.37619304       0.06526411      -0.07585930       0.58231148      -1.88003609      -0.61762792
N       -0.88836332       0.61997611      -1.46916069      -0.65022429      -0.66382331      -0.13654763      -0.22361890      -1.16285031      -1.69213459
C        1.00900584       0.27493740       0.89234848      -0.09451950       0.48606797      -0.12695156       0.82668213      -0.18698169      -1.22566788
C       -1.19925553       2.61962461      -0.02225270       0.19910541       0.18589913      -0.53185766       0.37767546      -2.62053470      -0.74447073
C        0.67386233      -0.57108876       2.10383276       0.36951080       0.40752667      -0.12538932       0.05017587       1.60761975      -0.70731804
C       -0.41134103       0.18730287       1.31746073      -0.42255760       0.25350889       0.23573123      -1.30069702      -0.01226293       0.14565891
C        1.72380185       1.56333807       1.02709607       0.62452689       0.11573234       0.28397599       1.07442333       0.86479577      -0.01594713
C       -1.20735404       3.97580844       0.29090778      -0.62028396       0.31319985       0.17520595      -0.25792191       2.34755764      -0.27906597
C        1.50562199      -0.46707465      -0.32052897       0.04606245       0.80901149       0.00001366      -0.36789523      -0.20586660       1.24905558
C       -0.60203064       1.91640941      -1.15722836      -0.36639644      -0.76047707       0.52825306      -0.71709102       1.08008776       0.66848669
C        0.89588852      -2.57811912       0.84508354      -0.12226895       0.03761899      -0.23033443      -1.04123221      -1.72505102       0.60718208
C       -1.50999235      -0.45585688      -0.84507105       0.44777740       0.72196870       0.19156142       0.66671980       0.06827221      -0.29779818
H        0.92927676       0.06203244       2.92695078       0.20421961      -0.03486452      -0.31555242       0.14235672      -0.60047882       0.84974364
H       -0.70274599       1.12897921       1.83406634      -0.31793159       0.00902256       0.14956287      -0.19089446      -0.92146141      -0.56602254
H        1.69908041       2.18563399       0.12821450      -0.14896346      -0.01068857      -0.01000751      -0.48667831      -0.12857738       0.15617367
H        1.46916337       2.12432168       1.90209313       0.12133477       0.15330332       0.17591910      -0.67858362       0.29883290       0.29485717
H        2.77839131       1.40544060       1.16866868       0.09965726      -0.02935436      -0.13288926       0.52112473      -0.43189565       0.00972594
H       -1.87721714       4.24800255       1.11914327      -0.14840739       0.12229566      -0.06332904       0.25357959      -0.06930870       0.01680343
H       -0.18441791       4.34541924       0.50662063      -0.16039981       0.05272721      -0.21625354      -0.23194157      -0.04188376       0.14531882
H       -1.55060331       4.61737346      -0.58187664       0.18139393       0.02508498      -0.10153676       0.24579636      -0.56235777       0.49930105
H        0.45337276      -2.53342047       2.78630053      -0.40316587      -0.05135671      -0.06471652       0.31333857       0.34895851      -0.40515126
H       -1.88942786      -1.23865019       0.89340517      -0.37847014       0.03236307      -0.06835438      -0.76770149      -1.34844004       0.81000651
H        1.58038023      -2.40243160      -0.98849171      -0.19799255      -0.00128177      -0.10617703      -0.43952821       0.59123671       0.09498311
H       -0.74426302       0.34771317      -2.48292998      -0.18807030      -0.16423084      -0.29306054      -0.02393549       0.59639955       1.22074501
