
                                 *****************
                                 * O   R   C   A *
                                 *****************

                                            #,                                       
                                            ###                                      
                                            ####                                     
                                            #####                                    
                                            ######                                   
                                           ########,                                 
                                     ,,################,,,,,                         
                               ,,#################################,,                 
                          ,,##########################################,,             
                       ,#########################################, ''#####,          
                    ,#############################################,,   '####,        
                  ,##################################################,,,,####,       
                ,###########''''           ''''###############################       
              ,#####''   ,,,,##########,,,,          '''####'''          '####       
            ,##' ,,,,###########################,,,                        '##       
           ' ,,###''''                  '''############,,,                           
         ,,##''                                '''############,,,,        ,,,,,,###''
      ,#''                                            '''#######################'''  
     '                                                          ''''####''''         
             ,#######,   #######,   ,#######,      ##                                
            ,#'     '#,  ##    ##  ,#'     '#,    #''#        ,####,   ,####,        
            ##       ##  ##   ,#'  ##            #'  '#       #'       #'  '#        
            ##       ##  #######   ##           ,######,      #####,   #    #        
            '#,     ,#'  ##    ##  '#,     ,#' ,#      #,     #,   #   #,  ,#        
             '#######'   ##     ##  '#######'  #'      '#     '####' # '####'        



                #########################################################
                #                        -***-                          #
                #          Department of theory and spectroscopy        #
                #                                                       #
                #                      Frank Neese                      #
                #                                                       #
                #     Directorship, Architecture, Infrastructure        #
                #                    SHARK, DRIVERS                     #
                #        Core code/Algorithms in most modules           #
                #                                                       #
                #        Max Planck Institute fuer Kohlenforschung      #
                #                Kaiser Wilhelm Platz 1                 #
                #                 D-45470 Muelheim/Ruhr                 #
                #                      Germany                          #
                #                                                       #
                #                  All rights reserved                  #
                #                        -***-                          #
                #########################################################


                         Program Version 6.0.0  -   RELEASE  -


 With contributions from (in alphabetic order):
   Daniel Aravena         : Magnetic Suceptibility
   Michael Atanasov       : Ab Initio Ligand Field Theory (pilot matlab implementation)
   Alexander A. Auer      : GIAO ZORA, VPT2 properties, NMR spectrum
   Ute Becker             : All parallelization in ORCA, NUMFREQ, NUMCALC
   Giovanni Bistoni       : ED, misc. LED, open-shell LED, HFLD
   Martin Brehm           : Molecular dynamics
   Dmytro Bykov           : pre 5.0 version of the SCF Hessian
   Marcos Casanova-Páez   : Triplet and SCS-CIS(D). UHF-(DLPNO)-IP/EA/STEOM-CCSD. UHF-CVS-IP/STEOM-CCSD
   Vijay G. Chilkuri      : MRCI spin determinant printing, contributions to CSF-ICE
   Pauline Colinet        : FMM embedding
   Dipayan Datta          : RHF DLPNO-CCSD density
   Achintya Kumar Dutta   : EOM-CC, STEOM-CC
   Nicolas Foglia         : Exact transition moments, OPA infrastructure, MCD improvements
   Dmitry Ganyushin       : Spin-Orbit,Spin-Spin,Magnetic field MRCI
   Miquel Garcia          : C-PCM and meta-GGA Hessian, CCSD/C-PCM, Gaussian charge scheme
   Tiago L. C. Gouveia    : GS-ROHF, GS-ROCIS
   Yang Guo               : DLPNO-NEVPT2, F12-NEVPT2, CIM, IAO-localization
   Andreas Hansen         : Spin unrestricted coupled pair/coupled cluster methods
   Ingolf Harden          : AUTO-CI MPn and infrastructure 
   Benjamin Helmich-Paris : MC-RPA, TRAH-(SCF,CASSCF), AVAS, COSX integrals, SCF dyn. polar.
   Lee Huntington         : MR-EOM, pCC
   Robert Izsak           : Overlap fitted RIJCOSX, COSX-SCS-MP3, EOM
   Riya Kayal             : Wick's Theorem for AUTO-CI, AUTO-CI UHF-CCSDT
   Emily Kempfer          : AUTO-CI, RHF CISDT and CCSDT
   Christian Kollmar      : KDIIS, OOCD, Brueckner-CCSD(T), CCSD density, CASPT2, CASPT2-K, improved NEVPT2
   Axel Koslowski         : Symmetry handling
   Simone Kossmann        : Meta GGA functionals, TD-DFT gradient, OOMP2, (MP2 Hessian; deprecated post 5.0)
   Lucas Lang             : DCDCAS
   Marvin Lechner         : AUTO-CI (C++ implementation), FIC-MRCC
   Spencer Leger          : CASSCF response
   Dagmar Lenk            : GEPOL surface, SMD, ORCA-2-JSON
   Dimitrios Liakos       : Extrapolation schemes; Compound Job, initial MDCI parallelization
   Dimitrios Manganas     : Further ROCIS development; embedding schemes. LFT, Crystal Embedding
   Dimitrios Pantazis     : SARC Basis sets
   Anastasios Papadopoulos: AUTO-CI, single reference methods and gradients
   Taras Petrenko         : pre 6.0 DFT Hessian and TD-DFT gradient, (ASA, deprecated), ECA, 1-Electron XAS/XES, NRVS
   Peter Pinski           : DLPNO-MP2, DLPNO-MP2 Gradient
   Christoph Reimann      : Effective Core Potentials
   Marius Retegan         : Local ZFS, SOC
   Christoph Riplinger    : Optimizer, TS searches, QM/MM, DLPNO-CCSD(T), (RO)-DLPNO pert. Triples
   Michael Roemelt        : Original ROCIS implementation
   Masaaki Saitow         : Open-shell DLPNO-CCSD energy and density
   Barbara Sandhoefer     : DKH picture change effects
   Kantharuban Sivalingam : CASSCF convergence/infrastructure, NEVPT2 and variants, FIC-MRCI
   Bernardo de Souza      : ESD, SOC TD-DFT
   Georgi Stoychev        : AutoAux, RI-MP2 NMR, DLPNO-MP2 response, X2C
   Van Anh Tran           : RI-MP2 g-tensors
   Willem Van den Heuvel  : Paramagnetic NMR
   Zikuan Wang            : NOTCH, Electric field optimization 
   Frank Wennmohs         : Technical directorship and infrastructure
   Hang Xu                : AUTO-CI-Response properties 


 We gratefully acknowledge several colleagues who have allowed us to
 interface, adapt or use parts of their codes:
   Stefan Grimme, W. Hujo, H. Kruse, P. Pracht,  : VdW corrections, initial TS optimization,
                  C. Bannwarth, S. Ehlert,         DFT functionals, gCP, sTDA/sTD-DF
                  L. Wittmann, M. Mueller
   Ed Valeev, F. Pavosevic, A. Kumar             : LibInt (2-el integral package), F12 methods
   Garnet Chan, S. Sharma, J. Yang, R. Olivares  : DMRG
   Ulf Ekstrom                                   : XCFun DFT Library
   Mihaly Kallay                                 : mrcc  (arbitrary order and MRCC methods)
   Frank Weinhold                                : gennbo (NPA and NBO analysis)
   Simon Mueller                                 : openCOSMO-RS
   Christopher J. Cramer and Donald G. Truhlar   : smd solvation model
   Lars Goerigk                                  : TD-DFT with DH, B97 family of functionals
   V. Asgeirsson, H. Jonsson                     : NEB implementation
   FAccTs GmbH                                   : IRC, NEB, NEB-TS, DLPNO-Multilevel, CI-OPT
                                                   MM, QMMM, 2- and 3-layer-ONIOM, Crystal-QMMM,
                                                   LR-CPCM, SF, NACMEs, symmetry and pop. for TD-DFT,
                                                   nearIR, NL-DFT gradient (VV10), updates on ESD,
                                                   ML-optimized integration grids, MBIS, APM,
                                                   GOAT, DOCKER, SOLVATOR, interface openCOSMO-RS
   S Lehtola, MJT Oliveira, MAL Marques          : LibXC Library
   Liviu Ungur et al                             : ANISO software


 Your calculation uses the libint2 library for the computation of 2-el integrals
 For citations please refer to: http://libint.valeyev.net

 Your ORCA version has been built with support for libXC version: 6.2.2
 For citations please refer to: https://libxc.gitlab.io

 This ORCA versions uses:
   CBLAS   interface :  Fast vector & matrix operations
   LAPACKE interface :  Fast linear algebra routines
   SCALAPACK package :  Parallel linear algebra routines
   Shared memory     :  Shared parallel matrices
   BLAS/LAPACK       :  OpenBLAS 0.3.27  USE64BITINT DYNAMIC_ARCH NO_AFFINITY Zen SINGLE_THREADED
        Core in use  :  Zen
   Copyright (c) 2011-2014, The OpenBLAS Project


Your calculation utilizes the atom-pairwise dispersion correction
with the Becke-Johnson damping scheme (D3BJ)


Warning: RI is on but no J-basis has been assigned. Assigning Def2/J (nothing to worry about!)
================================================================================

----- Orbital basis set information -----
Your calculation utilizes the basis: def2-TZVPPD
   F. Weigend and R. Ahlrichs, Phys. Chem. Chem. Phys. 7, 3297 (2005).
   D. Rappoport and F. Furche, J. Chem. Phys. 133, 134105 (2010)
   D. Rappoport, J. Chem. Phys. 155, 124102 (2021).

----- AuxJ basis set information -----
Your calculation utilizes the auxiliary basis: def2/J
   F. Weigend, Phys. Chem. Chem. Phys. 8, 1057 (2006).

================================================================================
                                        WARNINGS
                       Please study these warnings very carefully!
================================================================================

Using LibXC functional ID 531 : wB97M-V exchange-correlation functional
[ 1]  N. Mardirossian and M. Head-Gordon.,  J. Chem. Phys. 144, 214110 (2016)
Using LibXC functional ID 531 : wB97M-V exchange-correlation functional
[ 1]  N. Mardirossian and M. Head-Gordon.,  J. Chem. Phys. 144, 214110 (2016)

WARNING: B97M-V or wB97M-V functional requested.
  ===> : libXC variant has now been activated.
         Any manually given DFX/HFX/RangeSep scaling parameters are IGNORED!

Your calculation utilizes LibXC
 by S Lehtola, C Steigemann, MJT Oliveira & MAL Marques
Please cite in your paper:
 S Lehtola, C Steigemann, MJT Oliveira & MAL Marques, SoftwareX, 7, (2018), 1.
   


WARNING: your system is open-shell and RHF/RKS was chosen
  ===> : WILL SWITCH to UHF/UKS

INFO   : Checking CIS options ...

WARNING: CIS/ROCIS methods need fully converged wavefunctions
  ===> : Setting SCFConvForced true
         You can overwrite this default with %scf ConvForced false 


================================================================================
                                       INPUT FILE
================================================================================
NAME = orca.inp
|  1> ! Engrad def2-TZVPPD wB97M-D3BJ 
|  2> %pal nprocs 8 end%pal nprocs 64 end 
|  3> %tddft 
|  4>  Iroot 1 Nroots 3 
|  5> sf true 
|  6> end 
|  7> *xyz 0 3 
|  8> O   -0.71255042 0.34347395 -0.17370735
|  9> C   0.65527559 0.56416647 0.22276414
| 10> C   1.39956837 -0.76012445 0.15983246
| 11> H   0.48565593 0.82097017 1.35216589
| 12> H   1.07246349 1.33839078 -0.33795544
| 13> H   0.94513409 -1.67728132 0.61376806
| 14> H   2.45577726 -0.83787854 -0.22062195
| 15> *
| 16> 
| 17>                          ****END OF INPUT****
================================================================================

                     *******************************
                     * Energy+Gradient Calculation *
                     *******************************

---------------------------------
CARTESIAN COORDINATES (ANGSTROEM)
---------------------------------
  O     -0.712550    0.343474   -0.173707
  C      0.655276    0.564166    0.222764
  C      1.399568   -0.760124    0.159832
  H      0.485656    0.820970    1.352166
  H      1.072463    1.338391   -0.337955
  H      0.945134   -1.677281    0.613768
  H      2.455777   -0.837879   -0.220622

----------------------------
CARTESIAN COORDINATES (A.U.)
----------------------------
  NO LB      ZA    FRAG     MASS         X           Y           Z
   0 O     8.0000    0    15.999   -1.346525    0.649072   -0.328259
   1 C     6.0000    0    12.011    1.238291    1.066120    0.420963
   2 C     6.0000    0    12.011    2.644801   -1.436427    0.302040
   3 H     1.0000    0     1.008    0.917757    1.551409    2.555223
   4 H     1.0000    0     1.008    2.026662    2.529192   -0.638643
   5 H     1.0000    0     1.008    1.786045   -3.169602    1.159854
   6 H     1.0000    0     1.008    4.640746   -1.583361   -0.416915

--------------------------------
INTERNAL COORDINATES (ANGSTROEM)
--------------------------------
 O      0   0   0     0.000000000000     0.00000000     0.00000000
 C      1   0   0     1.441125540818     0.00000000     0.00000000
 C      2   1   0     1.520420527190   108.65447696     0.00000000
 H      2   1   3     1.170584162841    99.29384263   247.77913490
 H      2   1   3     1.043012690957   110.20709591   127.31271863
 H      3   2   1     1.119707447495   119.86680617   312.81435105
 H      3   2   1     1.125330385227   122.25154434   140.30557296

---------------------------
INTERNAL COORDINATES (A.U.)
---------------------------
 O      0   0   0     0.000000000000     0.00000000     0.00000000
 C      1   0   0     2.723332596746     0.00000000     0.00000000
 C      2   1   0     2.873178404782   108.65447696     0.00000000
 H      2   1   3     2.212083484476    99.29384263   247.77913490
 H      2   1   3     1.971008340112   110.20709591   127.31271863
 H      3   2   1     2.115940425877   119.86680617   312.81435105
 H      3   2   1     2.126566238259   122.25154434   140.30557296

---------------------
BASIS SET INFORMATION
---------------------
There are 3 groups of distinct atoms

 Group   1 Type O   : 12s7p3d1f contracted to 6s4p3d1f pattern {621111/4111/111/1}
 Group   2 Type C   : 12s6p3d1f contracted to 6s3p3d1f pattern {621111/411/111/1}
 Group   3 Type H   : 5s3p1d contracted to 3s3p1d pattern {311/111/1}

Atom   0O    basis set group =>   1
Atom   1C    basis set group =>   2
Atom   2C    basis set group =>   2
Atom   3H    basis set group =>   3
Atom   4H    basis set group =>   3
Atom   5H    basis set group =>   3
Atom   6H    basis set group =>   3
---------------------------------
AUXILIARY/J BASIS SET INFORMATION
---------------------------------
There are 3 groups of distinct atoms

 Group   1 Type O   : 12s5p4d2f1g contracted to 6s4p3d1f1g pattern {711111/2111/211/2/1}
 Group   2 Type C   : 12s5p4d2f1g contracted to 6s4p3d1f1g pattern {711111/2111/211/2/1}
 Group   3 Type H   : 5s2p1d contracted to 3s1p1d pattern {311/2/1}

Atom   0O    basis set group =>   1
Atom   1C    basis set group =>   2
Atom   2C    basis set group =>   2
Atom   3H    basis set group =>   3
Atom   4H    basis set group =>   3
Atom   5H    basis set group =>   3
Atom   6H    basis set group =>   3
[1741607264.328473] [ohm:3119991:0]        ib_iface.c:1059 UCX  ERROR ibv_create_cq(cqe=256) failed: Connection timed out
[1741607264.328601] [ohm:3119993:0]        ib_iface.c:1059 UCX  ERROR ibv_create_cq(cqe=256) failed: Connection timed out
[1741607264.340426] [ohm:3119992:0]        ib_iface.c:1059 UCX  ERROR ibv_create_cq(cqe=256) failed: Connection timed out
[1741607264.342944] [ohm:3119998:0]        ib_iface.c:1059 UCX  ERROR ibv_create_cq(cqe=256) failed: Connection timed out
[1741607264.346363] [ohm:3120017:0]        ib_iface.c:1059 UCX  ERROR ibv_create_cq(cqe=256) failed: Connection timed out
[1741607264.346906] [ohm:3120087:0]        ib_iface.c:1059 UCX  ERROR ibv_create_cq(cqe=256) failed: Connection timed out
[1741607264.348894] [ohm:3120028:0]        ib_iface.c:1059 UCX  ERROR ibv_create_cq(cqe=256) failed: Connection timed out
[1741607264.354735] [ohm:3119997:0]        ib_iface.c:1059 UCX  ERROR ibv_create_cq(cqe=256) failed: Connection timed out
[1741607264.359309] [ohm:3120060:0]        ib_iface.c:1059 UCX  ERROR ibv_create_cq(cqe=256) failed: Connection timed out
[1741607264.360191] [ohm:3120001:0]        ib_iface.c:1059 UCX  ERROR ibv_create_cq(cqe=256) failed: Connection timed out
[1741607264.364072] [ohm:3120071:0]        ib_iface.c:1059 UCX  ERROR ibv_create_cq(cqe=256) failed: Connection timed out
[1741607264.368357] [ohm:3119994:0]        ib_iface.c:1059 UCX  ERROR ibv_create_cq(cqe=256) failed: Connection timed out
[1741607264.376209] [ohm:3119995:0]        ib_iface.c:1059 UCX  ERROR ibv_create_cq(cqe=256) failed: Connection timed out
[1741607264.381669] [ohm:3120079:0]        ib_iface.c:1059 UCX  ERROR ibv_create_cq(cqe=256) failed: Connection timed out
[1741607264.397821] [ohm:3120067:0]        ib_iface.c:1059 UCX  ERROR ibv_create_cq(cqe=256) failed: Connection timed out
[1741607264.404424] [ohm:3120077:0]        ib_iface.c:1059 UCX  ERROR ibv_create_cq(cqe=256) failed: Connection timed out
[1741607264.408846] [ohm:3120090:0]        ib_iface.c:1059 UCX  ERROR ibv_create_cq(cqe=256) failed: Connection timed out
[1741607264.409673] [ohm:3120020:0]        ib_iface.c:1059 UCX  ERROR ibv_create_cq(cqe=256) failed: Connection timed out
[1741607264.409988] [ohm:3120018:0]        ib_iface.c:1059 UCX  ERROR ibv_create_cq(cqe=256) failed: Connection timed out
[1741607264.425677] [ohm:3120131:0]        ib_iface.c:1059 UCX  ERROR ibv_create_cq(cqe=256) failed: Connection timed out
[1741607264.451715] [ohm:3120002:0]        ib_iface.c:1059 UCX  ERROR ibv_create_cq(cqe=256) failed: Connection timed out
[1741607264.453785] [ohm:3120019:0]        ib_iface.c:1059 UCX  ERROR ibv_create_cq(cqe=256) failed: Connection timed out
[1741607264.459761] [ohm:3120000:0]        ib_iface.c:1059 UCX  ERROR ibv_create_cq(cqe=256) failed: Connection timed out
[1741607264.461199] [ohm:3120051:0]        ib_iface.c:1059 UCX  ERROR ibv_create_cq(cqe=256) failed: Connection timed out
[1741607264.472146] [ohm:3120040:0]        ib_iface.c:1059 UCX  ERROR ibv_create_cq(cqe=256) failed: Connection timed out
[1741607264.491993] [ohm:3119996:0]        ib_iface.c:1059 UCX  ERROR ibv_create_cq(cqe=256) failed: Connection timed out
[1741607264.494646] [ohm:3120148:0]        ib_iface.c:1059 UCX  ERROR ibv_create_cq(cqe=256) failed: Connection timed out
[1741607264.495539] [ohm:3120023:0]        ib_iface.c:1059 UCX  ERROR ibv_create_cq(cqe=256) failed: Connection timed out
[1741607264.512656] [ohm:3120130:0]        ib_iface.c:1059 UCX  ERROR ibv_create_cq(cqe=256) failed: Connection timed out
[1741607264.522726] [ohm:3120047:0]        ib_iface.c:1059 UCX  ERROR ibv_create_cq(cqe=256) failed: Connection timed out
[1741607264.522889] [ohm:3119999:0]        ib_iface.c:1059 UCX  ERROR ibv_create_cq(cqe=256) failed: Connection timed out
[1741607264.527068] [ohm:3120110:0]        ib_iface.c:1059 UCX  ERROR ibv_create_cq(cqe=256) failed: Connection timed out
[1741607264.536336] [ohm:3120105:0]        ib_iface.c:1059 UCX  ERROR ibv_create_cq(cqe=256) failed: Connection timed out
[1741607264.542567] [ohm:3120133:0]        ib_iface.c:1059 UCX  ERROR ibv_create_cq(cqe=256) failed: Connection timed out
[1741607264.543025] [ohm:3120031:0]        ib_iface.c:1059 UCX  ERROR ibv_create_cq(cqe=256) failed: Connection timed out
[1741607264.543580] [ohm:3120022:0]        ib_iface.c:1059 UCX  ERROR ibv_create_cq(cqe=256) failed: Connection timed out
[1741607264.552486] [ohm:3120093:0]        ib_iface.c:1059 UCX  ERROR ibv_create_cq(cqe=256) failed: Connection timed out
[1741607264.556710] [ohm:3120082:0]        ib_iface.c:1059 UCX  ERROR ibv_create_cq(cqe=256) failed: Connection timed out
[1741607264.557639] [ohm:3120103:0]        ib_iface.c:1059 UCX  ERROR ibv_create_cq(cqe=256) failed: Connection timed out
[1741607264.559869] [ohm:3120151:0]        ib_iface.c:1059 UCX  ERROR ibv_create_cq(cqe=256) failed: Connection timed out
[1741607264.561219] [ohm:3120046:0]        ib_iface.c:1059 UCX  ERROR ibv_create_cq(cqe=256) failed: Connection timed out
[1741607264.565351] [ohm:3120143:0]        ib_iface.c:1059 UCX  ERROR ibv_create_cq(cqe=256) failed: Connection timed out
[1741607264.565490] [ohm:3120138:0]        ib_iface.c:1059 UCX  ERROR ibv_create_cq(cqe=256) failed: Connection timed out
[1741607264.572334] [ohm:3120128:0]        ib_iface.c:1059 UCX  ERROR ibv_create_cq(cqe=256) failed: Connection timed out
[1741607264.575979] [ohm:3120053:0]        ib_iface.c:1059 UCX  ERROR ibv_create_cq(cqe=256) failed: Connection timed out
[1741607264.578745] [ohm:3120038:0]        ib_iface.c:1059 UCX  ERROR ibv_create_cq(cqe=256) failed: Connection timed out
[1741607264.580477] [ohm:3120125:0]        ib_iface.c:1059 UCX  ERROR ibv_create_cq(cqe=256) failed: Connection timed out
[1741607264.581187] [ohm:3120048:0]        ib_iface.c:1059 UCX  ERROR ibv_create_cq(cqe=256) failed: Connection timed out
[1741607264.593238] [ohm:3120042:0]        ib_iface.c:1059 UCX  ERROR ibv_create_cq(cqe=256) failed: Connection timed out
[1741607264.595233] [ohm:3120025:0]        ib_iface.c:1059 UCX  ERROR ibv_create_cq(cqe=256) failed: Connection timed out
[1741607264.603500] [ohm:3120026:0]        ib_iface.c:1059 UCX  ERROR ibv_create_cq(cqe=256) failed: Connection timed out
[1741607264.605237] [ohm:3120034:0]        ib_iface.c:1059 UCX  ERROR ibv_create_cq(cqe=256) failed: Connection timed out
[1741607264.605908] [ohm:3120050:0]        ib_iface.c:1059 UCX  ERROR ibv_create_cq(cqe=256) failed: Connection timed out
[1741607264.606955] [ohm:3120024:0]        ib_iface.c:1059 UCX  ERROR ibv_create_cq(cqe=256) failed: Connection timed out
[1741607264.610665] [ohm:3120136:0]        ib_iface.c:1059 UCX  ERROR ibv_create_cq(cqe=256) failed: Connection timed out
[1741607264.611358] [ohm:3120027:0]        ib_iface.c:1059 UCX  ERROR ibv_create_cq(cqe=256) failed: Connection timed out
[1741607264.613944] [ohm:3120057:0]        ib_iface.c:1059 UCX  ERROR ibv_create_cq(cqe=256) failed: Connection timed out
[1741607264.616172] [ohm:3120045:0]        ib_iface.c:1059 UCX  ERROR ibv_create_cq(cqe=256) failed: Connection timed out
[1741607264.616154] [ohm:3120043:0]        ib_iface.c:1059 UCX  ERROR ibv_create_cq(cqe=256) failed: Connection timed out
[1741607264.617975] [ohm:3120117:0]        ib_iface.c:1059 UCX  ERROR ibv_create_cq(cqe=256) failed: Connection timed out
[1741607264.618690] [ohm:3120096:0]        ib_iface.c:1059 UCX  ERROR ibv_create_cq(cqe=256) failed: Connection timed out
[1741607264.618808] [ohm:3120049:0]        ib_iface.c:1059 UCX  ERROR ibv_create_cq(cqe=256) failed: Connection timed out
[1741607264.619168] [ohm:3120021:0]        ib_iface.c:1059 UCX  ERROR ibv_create_cq(cqe=256) failed: Connection timed out
[1741607264.619621] [ohm:3120099:0]        ib_iface.c:1059 UCX  ERROR ibv_create_cq(cqe=256) failed: Connection timed out


           ************************************************************
           *        Program running with 64 parallel MPI-processes    *
           *              working on a common directory               *
           ************************************************************
------------------------------------------------------------------------------
                             ORCA STARTUP CALCULATIONS
                           -- RI-GTO INTEGRALS CHOSEN --
------------------------------------------------------------------------------
------------------------------------------------------------------------------
                   ___                                                        
                  /   \      - P O W E R E D   B Y -                         
                 /     \                                                     
                 |  |  |   _    _      __       _____    __    __             
                 |  |  |  | |  | |    /  \     |  _  \  |  |  /  |          
                  \  \/   | |  | |   /    \    | | | |  |  | /  /          
                 / \  \   | |__| |  /  /\  \   | |_| |  |  |/  /          
                |  |  |   |  __  | /  /__\  \  |    /   |      \           
                |  |  |   | |  | | |   __   |  |    \   |  |\   \          
                \     /   | |  | | |  |  |  |  | |\  \  |  | \   \       
                 \___/    |_|  |_| |__|  |__|  |_| \__\ |__|  \__/        
                                                                              
                      - O R C A' S   B I G   F R I E N D -                    
                                      &                                       
                       - I N T E G R A L  F E E D E R -                       
                                                                              
 v1 FN, 2020, v2 2021, v3 2022-2024                                           
------------------------------------------------------------------------------


----------------------
SHARK INTEGRAL PACKAGE
----------------------

Number of atoms                             ...      7
Number of basis functions                   ...    182
Number of shells                            ...     68
Maximum angular momentum                    ...      3
Integral batch strategy                     ... SHARK/LIBINT Hybrid
RI-J (if used) integral strategy            ... SPLIT-RIJ (Revised 2003 algorithm where possible)
Printlevel                                  ...      1
Contraction scheme used                     ... SEGMENTED contraction
Prescreening option                         ... SCHWARTZ
   Thresh                                   ... 2.500e-11
   Tcut                                     ... 2.500e-12
   Tpresel                                  ... 2.500e-12 
Coulomb Range Separation                    ... NOT USED
Exchange Range Separation                   ... Long Range
   Mu parameter                             ... 3.000e-01
   Scaling (regular/separated)              ... 1.500e-01 8.500e-01
Multipole approximations                    ... NOT USED
Finite Nucleus Model                        ... NOT USED
CABS basis                                  ... NOT available
Auxiliary Coulomb fitting basis             ... AVAILABLE
   # of basis functions in Aux-J            ...    191
   # of shells in Aux-J                     ...     65
   Maximum angular momentum in Aux-J        ...      4
Auxiliary J/K fitting basis                 ... NOT available
Auxiliary Correlation fitting basis         ... NOT available
Auxiliary 'external' fitting basis          ... NOT available

Checking pre-screening integrals            ... done (  0.0 sec) Dimension = 68
Check shell pair data                       ... done (  0.0 sec)
Shell pair information
Shell pair cut-off parameter TPreSel        ...   2.5e-12
Total number of shell pairs                 ...      2346
Shell pairs after pre-screening             ...      2326
Total number of primitive shell pairs       ...      5434
Primitive shell pairs kept                  ...      4803
          la=0 lb=0:    455 shell pairs
          la=1 lb=0:    655 shell pairs
          la=1 lb=1:    253 shell pairs
          la=2 lb=0:    386 shell pairs
          la=2 lb=1:    285 shell pairs
          la=2 lb=2:     91 shell pairs
          la=3 lb=0:     90 shell pairs
          la=3 lb=1:     66 shell pairs
          la=3 lb=2:     39 shell pairs
          la=3 lb=3:      6 shell pairs

Calculating one electron integrals          ... done (  0.0 sec)
Calculating RI/J V-Matrix + Cholesky decomp.... done (  0.0 sec)
Calculating Nuclear repulsion               ... done (  0.0 sec) ENN=     66.079907638240 Eh

Diagonalization of the overlap matrix:
Smallest eigenvalue                        ... 2.211e-05
Time for diagonalization                   ...    0.004 sec
Threshold for overlap eigenvalues          ... 1.000e-07
Number of eigenvalues below threshold      ... 0
Time for construction of square roots      ...    0.005 sec
Total time needed                          ...    0.010 sec

-------------------
DFT GRID GENERATION
-------------------

General Integration Accuracy     IntAcc      ... 4.388
Radial Grid Type                 RadialGrid  ... OptM3 with GC (2021)
Angular Grid (max. ang.)         AngularGrid ... 4 (Lebedev-302)
Angular grid pruning method      GridPruning ... 4 (adaptive)
Weight generation scheme         WeightScheme... mBecke (2022)
Basis function cutoff            BFCut       ... 1.0000e-11
Integration weight cutoff        WCut        ... 1.0000e-14
Partially contracted basis set               ... off
Rotationally invariant grid construction     ... off
Angular grids for H and He will be reduced by one unit
Diffuse basis detected: some atoms will have their outermost
                        angular grid increased by 1.

Total number of grid points                  ...    33175
Total number of batches                      ...      522
Average number of points per batch           ...       63
Average number of grid points per atom       ...     4739

--------------------
COSX GRID GENERATION
--------------------

GRIDX 1
-------
General Integration Accuracy     IntAcc      ... 3.816
Radial Grid Type                 RadialGrid  ... OptM3 with GC (2021)
Angular Grid (max. ang.)         AngularGrid ... 1 (Lebedev-50)
Angular grid pruning method      GridPruning ... 4 (adaptive)
Weight generation scheme         WeightScheme... mBecke (2022)
Basis function cutoff            BFCut       ... 1.0000e-11
Integration weight cutoff        WCut        ... 1.0000e-14
Partially contracted basis set               ... on
Rotationally invariant grid construction     ... off
Angular grids for H and He will be reduced by one unit
Diffuse basis detected: some atoms will have their outermost
                        angular grid increased by 1.

Total number of grid points                  ...     4187
Total number of batches                      ...       36
Average number of points per batch           ...      116
Average number of grid points per atom       ...      598
UseSFitting                                  ... on

GRIDX 2
-------
General Integration Accuracy     IntAcc      ... 4.020
Radial Grid Type                 RadialGrid  ... OptM3 with GC (2021)
Angular Grid (max. ang.)         AngularGrid ... 2 (Lebedev-110)
Angular grid pruning method      GridPruning ... 4 (adaptive)
Weight generation scheme         WeightScheme... mBecke (2022)
Basis function cutoff            BFCut       ... 1.0000e-11
Integration weight cutoff        WCut        ... 1.0000e-14
Partially contracted basis set               ... on
Rotationally invariant grid construction     ... off
Angular grids for H and He will be reduced by one unit
Diffuse basis detected: some atoms will have their outermost
                        angular grid increased by 1.

Total number of grid points                  ...    10287
Total number of batches                      ...       84
Average number of points per batch           ...      122
Average number of grid points per atom       ...     1470
UseSFitting                                  ... on

GRIDX 3
-------
General Integration Accuracy     IntAcc      ... 4.338
Radial Grid Type                 RadialGrid  ... OptM3 with GC (2021)
Angular Grid (max. ang.)         AngularGrid ... 3 (Lebedev-194)
Angular grid pruning method      GridPruning ... 4 (adaptive)
Weight generation scheme         WeightScheme... mBecke (2022)
Basis function cutoff            BFCut       ... 1.0000e-11
Integration weight cutoff        WCut        ... 1.0000e-14
Partially contracted basis set               ... on
Rotationally invariant grid construction     ... off
Angular grids for H and He will be reduced by one unit
Diffuse basis detected: some atoms will have their outermost
                        angular grid increased by 1.

Total number of grid points                  ...    23159
Total number of batches                      ...      184
Average number of points per batch           ...      125
Average number of grid points per atom       ...     3308
UseSFitting                                  ... on
Initializing property integral containers    ... done (  0.0 sec)

SHARK setup successfully completed in   0.4 seconds

Maximum memory used throughout the entire STARTUP-calculation: 13.8 MB
[1741607266.701083] [ohm:3120338:0]        ib_iface.c:1059 UCX  ERROR ibv_create_cq(cqe=256) failed: Connection timed out
[1741607266.707568] [ohm:3120329:0]        ib_iface.c:1059 UCX  ERROR ibv_create_cq(cqe=256) failed: Connection timed out
[1741607266.716812] [ohm:3120328:0]        ib_iface.c:1059 UCX  ERROR ibv_create_cq(cqe=256) failed: Connection timed out
[1741607266.716909] [ohm:3120333:0]        ib_iface.c:1059 UCX  ERROR ibv_create_cq(cqe=256) failed: Connection timed out
[1741607266.723951] [ohm:3120327:0]        ib_iface.c:1059 UCX  ERROR ibv_create_cq(cqe=256) failed: Connection timed out
[1741607266.738944] [ohm:3120326:0]        ib_iface.c:1059 UCX  ERROR ibv_create_cq(cqe=256) failed: Connection timed out
[1741607266.742553] [ohm:3120346:0]        ib_iface.c:1059 UCX  ERROR ibv_create_cq(cqe=256) failed: Connection timed out
[1741607266.744157] [ohm:3120342:0]        ib_iface.c:1059 UCX  ERROR ibv_create_cq(cqe=256) failed: Connection timed out
[1741607266.748127] [ohm:3120349:0]        ib_iface.c:1059 UCX  ERROR ibv_create_cq(cqe=256) failed: Connection timed out
[1741607266.754839] [ohm:3120330:0]        ib_iface.c:1059 UCX  ERROR ibv_create_cq(cqe=256) failed: Connection timed out
[1741607266.756159] [ohm:3120447:0]        ib_iface.c:1059 UCX  ERROR ibv_create_cq(cqe=256) failed: Connection timed out
[1741607266.759952] [ohm:3120348:0]        ib_iface.c:1059 UCX  ERROR ibv_create_cq(cqe=256) failed: Connection timed out
[1741607266.761715] [ohm:3120463:0]        ib_iface.c:1059 UCX  ERROR ibv_create_cq(cqe=256) failed: Connection timed out
[1741607266.762273] [ohm:3120334:0]        ib_iface.c:1059 UCX  ERROR ibv_create_cq(cqe=256) failed: Connection timed out
[1741607266.763352] [ohm:3120331:0]        ib_iface.c:1059 UCX  ERROR ibv_create_cq(cqe=256) failed: Connection timed out
[1741607266.765462] [ohm:3120416:0]        ib_iface.c:1059 UCX  ERROR ibv_create_cq(cqe=256) failed: Connection timed out
[1741607266.780835] [ohm:3120425:0]        ib_iface.c:1059 UCX  ERROR ibv_create_cq(cqe=256) failed: Connection timed out
[1741607266.782367] [ohm:3120343:0]        ib_iface.c:1059 UCX  ERROR ibv_create_cq(cqe=256) failed: Connection timed out
[1741607266.786543] [ohm:3120397:0]        ib_iface.c:1059 UCX  ERROR ibv_create_cq(cqe=256) failed: Connection timed out
[1741607266.798664] [ohm:3120453:0]        ib_iface.c:1059 UCX  ERROR ibv_create_cq(cqe=256) failed: Connection timed out
[1741607266.833925] [ohm:3120452:0]        ib_iface.c:1059 UCX  ERROR ibv_create_cq(cqe=256) failed: Connection timed out
[1741607266.846461] [ohm:3120340:0]        ib_iface.c:1059 UCX  ERROR ibv_create_cq(cqe=256) failed: Connection timed out
[1741607266.846458] [ohm:3120341:0]        ib_iface.c:1059 UCX  ERROR ibv_create_cq(cqe=256) failed: Connection timed out
[1741607266.847944] [ohm:3120339:0]        ib_iface.c:1059 UCX  ERROR ibv_create_cq(cqe=256) failed: Connection timed out
[1741607266.849916] [ohm:3120344:0]        ib_iface.c:1059 UCX  ERROR ibv_create_cq(cqe=256) failed: Connection timed out
[1741607266.850692] [ohm:3120354:0]        ib_iface.c:1059 UCX  ERROR ibv_create_cq(cqe=256) failed: Connection timed out
[1741607266.854399] [ohm:3120336:0]        ib_iface.c:1059 UCX  ERROR ibv_create_cq(cqe=256) failed: Connection timed out
[1741607266.855675] [ohm:3120392:0]        ib_iface.c:1059 UCX  ERROR ibv_create_cq(cqe=256) failed: Connection timed out
[1741607266.878469] [ohm:3120335:0]        ib_iface.c:1059 UCX  ERROR ibv_create_cq(cqe=256) failed: Connection timed out
[1741607266.879086] [ohm:3120407:0]        ib_iface.c:1059 UCX  ERROR ibv_create_cq(cqe=256) failed: Connection timed out
[1741607266.890611] [ohm:3120347:0]        ib_iface.c:1059 UCX  ERROR ibv_create_cq(cqe=256) failed: Connection timed out
[1741607266.898710] [ohm:3120353:0]        ib_iface.c:1059 UCX  ERROR ibv_create_cq(cqe=256) failed: Connection timed out
[1741607266.911057] [ohm:3120355:0]        ib_iface.c:1059 UCX  ERROR ibv_create_cq(cqe=256) failed: Connection timed out
[1741607266.911666] [ohm:3120427:0]        ib_iface.c:1059 UCX  ERROR ibv_create_cq(cqe=256) failed: Connection timed out
[1741607266.912365] [ohm:3120375:0]        ib_iface.c:1059 UCX  ERROR ibv_create_cq(cqe=256) failed: Connection timed out
[1741607266.916111] [ohm:3120337:0]        ib_iface.c:1059 UCX  ERROR ibv_create_cq(cqe=256) failed: Connection timed out
[1741607266.932614] [ohm:3120345:0]        ib_iface.c:1059 UCX  ERROR ibv_create_cq(cqe=256) failed: Connection timed out
[1741607266.934913] [ohm:3120471:0]        ib_iface.c:1059 UCX  ERROR ibv_create_cq(cqe=256) failed: Connection timed out
[1741607266.938063] [ohm:3120369:0]        ib_iface.c:1059 UCX  ERROR ibv_create_cq(cqe=256) failed: Connection timed out
[1741607266.938465] [ohm:3120419:0]        ib_iface.c:1059 UCX  ERROR ibv_create_cq(cqe=256) failed: Connection timed out
[1741607266.939455] [ohm:3120381:0]        ib_iface.c:1059 UCX  ERROR ibv_create_cq(cqe=256) failed: Connection timed out
[1741607266.943849] [ohm:3120358:0]        ib_iface.c:1059 UCX  ERROR ibv_create_cq(cqe=256) failed: Connection timed out
[1741607266.947178] [ohm:3120409:0]        ib_iface.c:1059 UCX  ERROR ibv_create_cq(cqe=256) failed: Connection timed out
[1741607266.949608] [ohm:3120352:0]        ib_iface.c:1059 UCX  ERROR ibv_create_cq(cqe=256) failed: Connection timed out
[1741607266.953552] [ohm:3120350:0]        ib_iface.c:1059 UCX  ERROR ibv_create_cq(cqe=256) failed: Connection timed out
[1741607266.956222] [ohm:3120438:0]        ib_iface.c:1059 UCX  ERROR ibv_create_cq(cqe=256) failed: Connection timed out
[1741607266.964106] [ohm:3120466:0]        ib_iface.c:1059 UCX  ERROR ibv_create_cq(cqe=256) failed: Connection timed out
[1741607266.969841] [ohm:3120433:0]        ib_iface.c:1059 UCX  ERROR ibv_create_cq(cqe=256) failed: Connection timed out
[1741607266.973870] [ohm:3120432:0]        ib_iface.c:1059 UCX  ERROR ibv_create_cq(cqe=256) failed: Connection timed out
[1741607266.976851] [ohm:3120384:0]        ib_iface.c:1059 UCX  ERROR ibv_create_cq(cqe=256) failed: Connection timed out
[1741607266.982049] [ohm:3120455:0]        ib_iface.c:1059 UCX  ERROR ibv_create_cq(cqe=256) failed: Connection timed out
[1741607266.985100] [ohm:3120437:0]        ib_iface.c:1059 UCX  ERROR ibv_create_cq(cqe=256) failed: Connection timed out
[1741607266.989660] [ohm:3120413:0]        ib_iface.c:1059 UCX  ERROR ibv_create_cq(cqe=256) failed: Connection timed out
[1741607266.989845] [ohm:3120387:0]        ib_iface.c:1059 UCX  ERROR ibv_create_cq(cqe=256) failed: Connection timed out
[1741607266.995923] [ohm:3120445:0]        ib_iface.c:1059 UCX  ERROR ibv_create_cq(cqe=256) failed: Connection timed out
[1741607266.997056] [ohm:3120332:0]        ib_iface.c:1059 UCX  ERROR ibv_create_cq(cqe=256) failed: Connection timed out
[1741607266.999161] [ohm:3120440:0]        ib_iface.c:1059 UCX  ERROR ibv_create_cq(cqe=256) failed: Connection timed out
[1741607266.999173] [ohm:3120461:0]        ib_iface.c:1059 UCX  ERROR ibv_create_cq(cqe=256) failed: Connection timed out
[1741607267.002013] [ohm:3120351:0]        ib_iface.c:1059 UCX  ERROR ibv_create_cq(cqe=256) failed: Connection timed out
[1741607267.002757] [ohm:3120360:0]        ib_iface.c:1059 UCX  ERROR ibv_create_cq(cqe=256) failed: Connection timed out
[1741607267.003936] [ohm:3120364:0]        ib_iface.c:1059 UCX  ERROR ibv_create_cq(cqe=256) failed: Connection timed out
[1741607267.004016] [ohm:3120457:0]        ib_iface.c:1059 UCX  ERROR ibv_create_cq(cqe=256) failed: Connection timed out
[1741607267.004027] [ohm:3120411:0]        ib_iface.c:1059 UCX  ERROR ibv_create_cq(cqe=256) failed: Connection timed out
[1741607267.004951] [ohm:3120469:0]        ib_iface.c:1059 UCX  ERROR ibv_create_cq(cqe=256) failed: Connection timed out


           ************************************************************
           *        Program running with 64 parallel MPI-processes    *
           *              working on a common directory               *
           ************************************************************
-------------------------------------------------------------------------------
                                 ORCA GUESS
                   Start orbitals & Density for SCF / CASSCF
-------------------------------------------------------------------------------

------------
SCF SETTINGS
------------
Hamiltonian:
 Density Functional     Method          .... DFT(GTOs)
  Functional kind                       .... Exchange-Correlation
  Functional name                       .... wB97M-V exchange-correlation functional
  Functional family                     .... Hybrid MGGA
  Functional refs                              
    [ 0] N. Mardirossian and M. Head-Gordon.,  J. Chem. Phys. 144, 214110 (2016), doi: 10.1063/1.4952647
  Fraction of HF Exchange (short range) .... 0.1500
  Fraction of HF Exchange (long range)  .... 1.0000
  Range separation parameter mu         .... 0.3000
  Functional external parameters        .... 17
    Parameter  0 _cx00      =  8.500000e-01 : u^00 coefficient for exchange
    Parameter  1 _cx01      =  1.007000e+00 : u^01 coefficient for exchange
    Parameter  2 _cx10      =  2.590000e-01 : u^10 coefficient for exchange
    Parameter  3 _css00     =  4.430000e-01 : u^00 coefficient for same-spin correlation
    Parameter  4 _css04     = -1.437000e+00 : u^04 coefficient for same-spin correlation
    Parameter  5 _css10     = -4.535000e+00 : u^10 coefficient for same-spin correlation
    Parameter  6 _css20     = -3.390000e+00 : u^20 coefficient for same-spin correlation
    Parameter  7 _css43     =  4.278000e+00 : u^43 coefficient for same-spin correlation
    Parameter  8 _cos00     =  1.000000e+00 : u^00 coefficient for opposite-spin correlation
    Parameter  9 _cos10     =  1.358000e+00 : u^10 coefficient for opposite-spin correlation
    Parameter 10 _cos20     =  2.924000e+00 : u^20 coefficient for opposite-spin correlation
    Parameter 11 _cos21     = -8.812000e+00 : u^21 coefficient for opposite-spin correlation
    Parameter 12 _cos60     = -1.390000e+00 : u^60 coefficient for opposite-spin correlation
    Parameter 13 _cos61     =  9.142000e+00 : u^61 coefficient for opposite-spin correlation
    Parameter 14 _alpha     =  1.000000e+00 : fraction of HF exchange
    Parameter 15 _beta      = -8.500000e-01 : fraction of short-range exchange
    Parameter 16 _omega     =  3.000000e-01 : range-separation constant
 Long-range corrected/Screened/Range-Separated Hybrid DFT is turned on
   Amount of maximum screened exact exchange              ....  0.850000
   Range separation parameter mu (erf(mu*r12)/r12)        ....  0.300000
 RI-approximation to the Coulomb term is turned on
   Number of AuxJ basis functions       .... 191
   RIJ-COSX (HFX calculated with COS-X)).... on


General Settings:
 Integral files         IntName         .... orca
 Hartree-Fock type      HFTyp           .... UHF
 Total Charge           Charge          ....    0
 Multiplicity           Mult            ....    3
 Number of Electrons    NEL             ....   24
 Basis Dimension        Dim             ....  182
 Nuclear Repulsion      ENuc            ....     66.0799076382 Eh

Convergence Acceleration:
 AO-DIIS                CNVDIIS         .... on
   Start iteration      DIISMaxIt       ....    12
   Startup error        DIISStart       ....  0.200000
   # of expansion vecs  DIISMaxEq       ....     5
   Bias factor          DIISBfac        ....   1.050
   Max. coefficient     DIISMaxC        ....  10.000
 MO-DIIS                CNVKDIIS        .... off
 Trust-Rad. Augm. Hess. CNVTRAH         .... auto
   Auto Start mean grad. ratio tolernc. ....  1.125000
   Auto Start start iteration           ....    50
   Auto Start num. interpolation iter.  ....    10
   Max. Number of Micro iterations      ....    24
   Max. Number of Macro iterations      .... Maxiter - #DIIS iter
   Number of Davidson start vectors     ....     2
   Converg. threshold    (grad. norm)   ....   1.000e-05
   Grad. Scal. Fac. for Micro threshold ....   0.100
   Minimum threshold for Micro iter.    ....   1.000e-02
   NR start threshold (gradient norm)   ....   1.000e-04
   Initial trust radius                 ....   0.400
   Minimum AH scaling param. (alpha)    ....   1.000
   Maximum AH scaling param. (alpha)    .... 1000.000
   Quad. conv. algorithm                .... NR
   White noise on init. David. guess    .... on
   Maximum white noise                  ....   0.010
   Pseudo random numbers                .... off
   Inactive MOs                         .... canonical
   Orbital update algorithm             .... Taylor
   Preconditioner                       .... Diag
   Full preconditioner red. dimension   ....   250
 SOSCF                  CNVSOSCF        .... on
   Start iteration      SOSCFMaxIt      ....   150
   Startup grad/error   SOSCFStart      ....  0.003300
   Hessian update       SOSCFHessUp     .... L-BFGS
 Level Shifting         CNVShift        .... on
   Level shift para.    LevelShift      ....    0.2500
   Turn off err/grad.   ShiftErr        ....    0.0010
 Zerner damping         CNVZerner       .... off
 Static damping         CNVDamp         .... on
   Fraction old density DampFac         ....    0.7000
   Max. Damping (<1)    DampMax         ....    0.9800
   Min. Damping (>=0)   DampMin         ....    0.0000
   Turn off err/grad.   DampErr         ....    0.1000

SCF Procedure:
 Maximum # iterations   MaxIter         ....   125
 SCF integral mode      SCFMode         .... Direct
   Integral package                     .... SHARK and LIBINT hybrid scheme
 Reset frequency        DirectResetFreq ....    20
 Integral Threshold     Thresh          ....  2.500e-11 Eh
 Primitive CutOff       TCut            ....  2.500e-12 Eh

Convergence Tolerance:
 Convergence Check Mode ConvCheckMode   .... Total+1el-Energy
 Convergence forced     ConvForced      .... 1
 Energy Change          TolE            ....  1.000e-08 Eh
 1-El. energy change                    ....  1.000e-05 Eh
 Orbital Gradient       TolG            ....  1.000e-05
 Orbital Rotation angle TolX            ....  1.000e-05
 DIIS Error             TolErr          ....  5.000e-07

------------------------------
INITIAL GUESS: MODEL POTENTIAL
------------------------------
Loading Hartree-Fock densities                     ... done
Calculating cut-offs                               ... done
Initializing the effective Hamiltonian             ... done
Setting up the integral package (SHARK)            ... done
Starting the Coulomb interaction                   ... done (   0.0 sec)
Making the grid                                    ... done (   0.0 sec)
Mapping shells                                     ... done
Starting the XC term evaluation                    ... done (   0.0 sec)
  promolecular density results
     # of electrons  =     23.998313974
     EX              =    -19.416144423
     EC              =     -0.758879497
     EX+EC           =    -20.175023920
Transforming the Hamiltonian                       ... done (   0.0 sec)
Diagonalizing the Hamiltonian                      ... done (   0.0 sec)
Back transforming the eigenvectors                 ... done (   0.0 sec)
Now organizing SCF variables                       ... done
                      ------------------
                      INITIAL GUESS DONE (   0.1 sec)
                      ------------------
             **** ENERGY FILE WAS UPDATED (orca.en.tmp) ****
Finished Guess after   1.7 sec
Maximum memory used throughout the entire GUESS-calculation: 9.5 MB
[1741607268.869524] [ohm:3120671:0]        ib_iface.c:1059 UCX  ERROR ibv_create_cq(cqe=256) failed: Connection timed out
[1741607268.872083] [ohm:3120681:0]        ib_iface.c:1059 UCX  ERROR ibv_create_cq(cqe=256) failed: Connection timed out
[1741607268.873442] [ohm:3120670:0]        ib_iface.c:1059 UCX  ERROR ibv_create_cq(cqe=256) failed: Connection timed out
[1741607268.882392] [ohm:3120669:0]        ib_iface.c:1059 UCX  ERROR ibv_create_cq(cqe=256) failed: Connection timed out
[1741607268.891152] [ohm:3120673:0]        ib_iface.c:1059 UCX  ERROR ibv_create_cq(cqe=256) failed: Connection timed out
[1741607268.893882] [ohm:3120674:0]        ib_iface.c:1059 UCX  ERROR ibv_create_cq(cqe=256) failed: Connection timed out
[1741607268.893950] [ohm:3120677:0]        ib_iface.c:1059 UCX  ERROR ibv_create_cq(cqe=256) failed: Connection timed out
[1741607268.896604] [ohm:3120672:0]        ib_iface.c:1059 UCX  ERROR ibv_create_cq(cqe=256) failed: Connection timed out
[1741607268.899354] [ohm:3120700:0]        ib_iface.c:1059 UCX  ERROR ibv_create_cq(cqe=256) failed: Connection timed out
[1741607268.915617] [ohm:3120698:0]        ib_iface.c:1059 UCX  ERROR ibv_create_cq(cqe=256) failed: Connection timed out
[1741607268.917927] [ohm:3120680:0]        ib_iface.c:1059 UCX  ERROR ibv_create_cq(cqe=256) failed: Connection timed out
[1741607268.930277] [ohm:3120679:0]        ib_iface.c:1059 UCX  ERROR ibv_create_cq(cqe=256) failed: Connection timed out
[1741607268.946699] [ohm:3120755:0]        ib_iface.c:1059 UCX  ERROR ibv_create_cq(cqe=256) failed: Connection timed out
[1741607268.952906] [ohm:3120701:0]        ib_iface.c:1059 UCX  ERROR ibv_create_cq(cqe=256) failed: Connection timed out
[1741607268.954599] [ohm:3120795:0]        ib_iface.c:1059 UCX  ERROR ibv_create_cq(cqe=256) failed: Connection timed out
[1741607268.969832] [ohm:3120694:0]        ib_iface.c:1059 UCX  ERROR ibv_create_cq(cqe=256) failed: Connection timed out
[1741607268.974701] [ohm:3120696:0]        ib_iface.c:1059 UCX  ERROR ibv_create_cq(cqe=256) failed: Connection timed out
[1741607268.984184] [ohm:3120695:0]        ib_iface.c:1059 UCX  ERROR ibv_create_cq(cqe=256) failed: Connection timed out
[1741607268.986733] [ohm:3120731:0]        ib_iface.c:1059 UCX  ERROR ibv_create_cq(cqe=256) failed: Connection timed out
[1741607268.990104] [ohm:3120676:0]        ib_iface.c:1059 UCX  ERROR ibv_create_cq(cqe=256) failed: Connection timed out
[1741607269.011705] [ohm:3120675:0]        ib_iface.c:1059 UCX  ERROR ibv_create_cq(cqe=256) failed: Connection timed out
[1741607269.014048] [ohm:3120697:0]        ib_iface.c:1059 UCX  ERROR ibv_create_cq(cqe=256) failed: Connection timed out
[1741607269.019666] [ohm:3120699:0]        ib_iface.c:1059 UCX  ERROR ibv_create_cq(cqe=256) failed: Connection timed out
[1741607269.022131] [ohm:3120728:0]        ib_iface.c:1059 UCX  ERROR ibv_create_cq(cqe=256) failed: Connection timed out
[1741607269.025340] [ohm:3120807:0]        ib_iface.c:1059 UCX  ERROR ibv_create_cq(cqe=256) failed: Connection timed out
[1741607269.030013] [ohm:3120801:0]        ib_iface.c:1059 UCX  ERROR ibv_create_cq(cqe=256) failed: Connection timed out
[1741607269.034833] [ohm:3120763:0]        ib_iface.c:1059 UCX  ERROR ibv_create_cq(cqe=256) failed: Connection timed out
[1741607269.036178] [ohm:3120678:0]        ib_iface.c:1059 UCX  ERROR ibv_create_cq(cqe=256) failed: Connection timed out
[1741607269.036319] [ohm:3120806:0]        ib_iface.c:1059 UCX  ERROR ibv_create_cq(cqe=256) failed: Connection timed out
[1741607269.040401] [ohm:3120703:0]        ib_iface.c:1059 UCX  ERROR ibv_create_cq(cqe=256) failed: Connection timed out
[1741607269.044235] [ohm:3120725:0]        ib_iface.c:1059 UCX  ERROR ibv_create_cq(cqe=256) failed: Connection timed out
[1741607269.060362] [ohm:3120724:0]        ib_iface.c:1059 UCX  ERROR ibv_create_cq(cqe=256) failed: Connection timed out
[1741607269.060418] [ohm:3120712:0]        ib_iface.c:1059 UCX  ERROR ibv_create_cq(cqe=256) failed: Connection timed out
[1741607269.064598] [ohm:3120729:0]        ib_iface.c:1059 UCX  ERROR ibv_create_cq(cqe=256) failed: Connection timed out
[1741607269.071052] [ohm:3120777:0]        ib_iface.c:1059 UCX  ERROR ibv_create_cq(cqe=256) failed: Connection timed out
[1741607269.071257] [ohm:3120733:0]        ib_iface.c:1059 UCX  ERROR ibv_create_cq(cqe=256) failed: Connection timed out
[1741607269.072474] [ohm:3120726:0]        ib_iface.c:1059 UCX  ERROR ibv_create_cq(cqe=256) failed: Connection timed out
[1741607269.075453] [ohm:3120730:0]        ib_iface.c:1059 UCX  ERROR ibv_create_cq(cqe=256) failed: Connection timed out
[1741607269.082329] [ohm:3120784:0]        ib_iface.c:1059 UCX  ERROR ibv_create_cq(cqe=256) failed: Connection timed out
[1741607269.083619] [ohm:3120704:0]        ib_iface.c:1059 UCX  ERROR ibv_create_cq(cqe=256) failed: Connection timed out
[1741607269.090710] [ohm:3120785:0]        ib_iface.c:1059 UCX  ERROR ibv_create_cq(cqe=256) failed: Connection timed out
[1741607269.096150] [ohm:3120750:0]        ib_iface.c:1059 UCX  ERROR ibv_create_cq(cqe=256) failed: Connection timed out
[1741607269.097704] [ohm:3120799:0]        ib_iface.c:1059 UCX  ERROR ibv_create_cq(cqe=256) failed: Connection timed out
[1741607269.102790] [ohm:3120775:0]        ib_iface.c:1059 UCX  ERROR ibv_create_cq(cqe=256) failed: Connection timed out
[1741607269.103577] [ohm:3120810:0]        ib_iface.c:1059 UCX  ERROR ibv_create_cq(cqe=256) failed: Connection timed out
[1741607269.112647] [ohm:3120757:0]        ib_iface.c:1059 UCX  ERROR ibv_create_cq(cqe=256) failed: Connection timed out
[1741607269.119927] [ohm:3120727:0]        ib_iface.c:1059 UCX  ERROR ibv_create_cq(cqe=256) failed: Connection timed out
[1741607269.120034] [ohm:3120720:0]        ib_iface.c:1059 UCX  ERROR ibv_create_cq(cqe=256) failed: Connection timed out
[1741607269.129393] [ohm:3120744:0]        ib_iface.c:1059 UCX  ERROR ibv_create_cq(cqe=256) failed: Connection timed out
[1741607269.138342] [ohm:3120821:0]        ib_iface.c:1059 UCX  ERROR ibv_create_cq(cqe=256) failed: Connection timed out
[1741607269.138765] [ohm:3120768:0]        ib_iface.c:1059 UCX  ERROR ibv_create_cq(cqe=256) failed: Connection timed out
[1741607269.138956] [ohm:3120790:0]        ib_iface.c:1059 UCX  ERROR ibv_create_cq(cqe=256) failed: Connection timed out
[1741607269.139344] [ohm:3120748:0]        ib_iface.c:1059 UCX  ERROR ibv_create_cq(cqe=256) failed: Connection timed out
[1741607269.145235] [ohm:3120702:0]        ib_iface.c:1059 UCX  ERROR ibv_create_cq(cqe=256) failed: Connection timed out
[1741607269.150153] [ohm:3120770:0]        ib_iface.c:1059 UCX  ERROR ibv_create_cq(cqe=256) failed: Connection timed out
[1741607269.150495] [ohm:3120761:0]        ib_iface.c:1059 UCX  ERROR ibv_create_cq(cqe=256) failed: Connection timed out
[1741607269.151175] [ohm:3120716:0]        ib_iface.c:1059 UCX  ERROR ibv_create_cq(cqe=256) failed: Connection timed out
[1741607269.151729] [ohm:3120792:0]        ib_iface.c:1059 UCX  ERROR ibv_create_cq(cqe=256) failed: Connection timed out
[1741607269.151990] [ohm:3120732:0]        ib_iface.c:1059 UCX  ERROR ibv_create_cq(cqe=256) failed: Connection timed out
[1741607269.153864] [ohm:3120737:0]        ib_iface.c:1059 UCX  ERROR ibv_create_cq(cqe=256) failed: Connection timed out
[1741607269.156259] [ohm:3120709:0]        ib_iface.c:1059 UCX  ERROR ibv_create_cq(cqe=256) failed: Connection timed out
[1741607269.158021] [ohm:3120722:0]        ib_iface.c:1059 UCX  ERROR ibv_create_cq(cqe=256) failed: Connection timed out
[1741607269.158378] [ohm:3120813:0]        ib_iface.c:1059 UCX  ERROR ibv_create_cq(cqe=256) failed: Connection timed out
[1741607269.159135] [ohm:3120739:0]        ib_iface.c:1059 UCX  ERROR ibv_create_cq(cqe=256) failed: Connection timed out


           ************************************************************
           *        Program running with 64 parallel MPI-processes    *
           *              working on a common directory               *
           ************************************************************

-------------------------------------------------------------------------------------------
                                      ORCA LEAN-SCF
                              memory conserving SCF solver
-------------------------------------------------------------------------------------------

----------------------------------------D-I-I-S--------------------------------------------
Iteration    Energy (Eh)           Delta-E    RMSDP     MaxDP     DIISErr   Damp  Time(sec)
-------------------------------------------------------------------------------------------
               ***  Starting incremental Fock matrix formation  ***
    1    -153.7145444196915491     0.00e+00  7.54e-04  2.09e-02  7.08e-02  0.700   0.3
    2    -153.7361811953416577    -2.16e-02  6.69e-04  1.83e-02  3.99e-02  0.700   0.3
                               ***Turning on AO-DIIS***
    3    -153.7484856646232743    -1.23e-02  5.51e-04  1.53e-02  2.70e-02  0.700   0.3
    4    -153.7563193979385687    -7.83e-03  1.39e-03  3.99e-02  2.21e-02  0.000   0.3
    5    -153.7754414274405690    -1.91e-02  1.49e-04  4.57e-03  8.06e-03  0.000   0.3
    6    -153.7760323506303166    -5.91e-04  9.14e-05  2.45e-03  4.45e-03  0.000   0.3
                              *** Initializing SOSCF ***
---------------------------------------S-O-S-C-F--------------------------------------
Iteration    Energy (Eh)           Delta-E    RMSDP     MaxDP     MaxGrad    Time(sec)
--------------------------------------------------------------------------------------
    7    -153.7762941414592888    -2.62e-04  4.97e-05  1.27e-03  3.13e-03     0.3
               *** Restarting incremental Fock matrix formation ***
    8    -153.7764023652770788    -1.08e-04  2.37e-05  5.49e-04  1.87e-03     0.3
    9    -153.7764270858788791    -2.47e-05  2.96e-05  6.18e-04  1.03e-03     0.3
   10    -153.7764376280908891    -1.05e-05  8.40e-06  1.98e-04  2.73e-04     0.3
   11    -153.7764386921611504    -1.06e-06  4.01e-06  1.60e-04  2.30e-04     0.3
   12    -153.7764394041476521    -7.12e-07  1.00e-05  4.11e-04  2.32e-04     0.3
   13    -153.7764405136372261    -1.11e-06  2.51e-05  1.07e-03  2.21e-04     0.3
   14    -153.7764425231741825    -2.01e-06  3.89e-05  1.69e-03  1.70e-04     0.3
   15    -153.7764449370569082    -2.41e-06  3.56e-05  1.53e-03  1.68e-04     0.3
   16    -153.7764466475900917    -1.71e-06  1.21e-05  4.58e-04  1.22e-04     0.3
   17    -153.7764471768589374    -5.29e-07  2.66e-06  9.42e-05  5.37e-05     0.3
   18    -153.7764472505696176    -7.37e-08  1.46e-06  6.41e-05  2.42e-05     0.3
   19    -153.7764472586500801    -8.08e-09  2.90e-07  8.48e-06  7.05e-06     0.3
                 **** Energy Check signals convergence ****

               *****************************************************
               *                     SUCCESS                       *
               *           SCF CONVERGED AFTER  19 CYCLES          *
               *****************************************************

Recomputing exchange energy using gridx3       ... done (    0.171 sec)
Old exchange energy                            :     -6.182483886 Eh
New exchange energy                            :     -6.182481963 Eh
Exchange energy change after final integration :      0.000001923 Eh
Total energy after final integration           :   -153.776445336 Eh
             **** ENERGY FILE WAS UPDATED (orca.en.tmp) ****

----------------
TOTAL SCF ENERGY
----------------

Total Energy       :       -153.77644533579581 Eh           -4184.46981 eV

Components:
Nuclear Repulsion  :         66.07990763824030 Eh            1798.12570 eV
Electronic Energy  :       -219.85635489689039 Eh           -5982.59557 eV
One Electron Energy:       -338.84064113853628 Eh           -9220.32260 eV
Two Electron Energy:        118.98428624164589 Eh            3237.72703 eV

Virial components:
Potential Energy   :       -306.79807913039798 Eh           -8348.40016 eV
Kinetic Energy     :        153.02163379460217 Eh            4163.93035 eV
Virial Ratio       :          2.00493271129366

DFT components:
N(Alpha)           :       12.999989691601 electrons
N(Beta)            :       10.999984740583 electrons
N(Total)           :       23.999974432184 electrons
E(XC)              :      -14.636246356466 Eh       

---------------
SCF CONVERGENCE
---------------

  Last Energy change         ...    8.0805e-09  Tolerance :   1.0000e-08
  Last MAX-Density change    ...    8.4813e-06  Tolerance :   1.0000e-07
  Last RMS-Density change    ...    2.9020e-07  Tolerance :   5.0000e-09
  Last DIIS Error            ...    3.1294e-03  Tolerance :   5.0000e-07
  Last Orbital Gradient      ...    7.0511e-06  Tolerance :   1.0000e-05
  Last Orbital Rotation      ...    3.7605e-05  Tolerance :   1.0000e-05


----------------------
UHF SPIN CONTAMINATION
----------------------

Warning: in a DFT calculation there is little theoretical justification to 
         calculate <S**2> as in Hartree-Fock theory. We will do it anyways
         but you should keep in mind that the values have only limited relevance

Expectation value of <S**2>     :     2.008827
Ideal value S*(S+1) for S=1.0   :     2.000000
Deviation                       :     0.008827

----------------
ORBITAL ENERGIES
----------------
                 SPIN UP ORBITALS
  NO   OCC          E(Eh)            E(eV) 
   0   1.0000     -19.387953      -527.5730 
   1   1.0000     -10.421457      -283.5823 
   2   1.0000     -10.382217      -282.5145 
   3   1.0000      -1.143936       -31.1281 
   4   1.0000      -0.868026       -23.6202 
   5   1.0000      -0.732064       -19.9205 
   6   1.0000      -0.610954       -16.6249 
   7   1.0000      -0.573642       -15.6096 
   8   1.0000      -0.539682       -14.6855 
   9   1.0000      -0.508179       -13.8282 
  10   1.0000      -0.443944       -12.0803 
  11   1.0000      -0.417553       -11.3622 
  12   1.0000      -0.326340        -8.8802 
  13   0.0000       0.041285         1.1234 
  14   0.0000       0.060445         1.6448 
  15   0.0000       0.078312         2.1310 
  16   0.0000       0.087692         2.3862 
  17   0.0000       0.111565         3.0358 
  18   0.0000       0.124351         3.3838 
  19   0.0000       0.132164         3.5964 
  20   0.0000       0.134926         3.6715 
  21   0.0000       0.175207         4.7676 
  22   0.0000       0.184257         5.0139 
  23   0.0000       0.198629         5.4050 

                 SPIN DOWN ORBITALS
  NO   OCC          E(Eh)            E(eV) 
   0   1.0000     -19.363300      -526.9022 
   1   1.0000     -10.422970      -283.6234 
   2   1.0000     -10.368396      -282.1384 
   3   1.0000      -1.086646       -29.5691 
   4   1.0000      -0.835493       -22.7349 
   5   1.0000      -0.706673       -19.2295 
   6   1.0000      -0.588969       -16.0267 
   7   1.0000      -0.526982       -14.3399 
   8   1.0000      -0.516559       -14.0563 
   9   1.0000      -0.488538       -13.2938 
  10   1.0000      -0.386367       -10.5136 
  11   0.0000      -0.047774        -1.3000 
  12   0.0000      -0.002952        -0.0803 
  13   0.0000       0.041291         1.1236 
  14   0.0000       0.061015         1.6603 
  15   0.0000       0.078616         2.1393 
  16   0.0000       0.089466         2.4345 
  17   0.0000       0.113404         3.0859 
  18   0.0000       0.126049         3.4300 
  19   0.0000       0.135311         3.6820 
  20   0.0000       0.137535         3.7425 
  21   0.0000       0.180682         4.9166 
*Only the first 10 virtual orbitals were printed.

                    ********************************
                    * MULLIKEN POPULATION ANALYSIS *
                    ********************************

--------------------------------------------
MULLIKEN ATOMIC CHARGES AND SPIN POPULATIONS
--------------------------------------------
   0 O :   -0.315153    0.960260
   1 C :    0.018012   -0.031414
   2 C :   -0.596457    0.904199
   3 H :    0.177535    0.116065
   4 H :    0.230739    0.021318
   5 H :    0.241124    0.019180
   6 H :    0.244200    0.010393
Sum of atomic charges         :   -0.0000000
Sum of atomic spin populations:    2.0000000

-----------------------------------------------------
MULLIKEN REDUCED ORBITAL CHARGES AND SPIN POPULATIONS
-----------------------------------------------------
CHARGE
  0 O s       :     3.987060  s :     3.987060
      pz      :     1.244209  p :     4.309300
      px      :     1.296297
      py      :     1.768794
      dz2     :     0.002944  d :     0.017770
      dxz     :     0.005136
      dyz     :     0.001202
      dx2y2   :     0.006017
      dxy     :     0.002471
      f0      :     0.000078  f :     0.001023
      f+1     :     0.000166
      f-1     :     0.000029
      f+2     :     0.000177
      f-2     :     0.000076
      f+3     :     0.000290
      f-3     :     0.000206

  1 C s       :     3.215244  s :     3.215244
      pz      :     1.034439  p :     2.629676
      px      :     0.674834
      py      :     0.920404
      dz2     :     0.017500  d :     0.128118
      dxz     :     0.030467
      dyz     :     0.017130
      dx2y2   :     0.009879
      dxy     :     0.053142
      f0      :     0.000952  f :     0.008949
      f+1     :     0.001112
      f-1     :     0.000395
      f+2     :     0.001222
      f-2     :     0.000818
      f+3     :     0.001738
      f-3     :     0.002713

  2 C s       :     3.560992  s :     3.560992
      pz      :     0.966428  p :     3.010039
      px      :     1.069246
      py      :     0.974365
      dz2     :     0.007965  d :     0.021750
      dxz     :     0.005350
      dyz     :     0.002154
      dx2y2   :     0.003104
      dxy     :     0.003176
      f0      :     0.000560  f :     0.003676
      f+1     :     0.000245
      f-1     :     0.000369
      f+2     :     0.000359
      f-2     :     0.000524
      f+3     :     0.000826
      f-3     :     0.000794

  3 H s       :     0.783894  s :     0.783894
      pz      :     0.019058  p :     0.036228
      px      :     0.010383
      py      :     0.006787
      dz2     :     0.000784  d :     0.002344
      dxz     :     0.000756
      dyz     :     0.000652
      dx2y2   :     0.000046
      dxy     :     0.000106

  4 H s       :     0.720505  s :     0.720505
      pz      :     0.009923  p :     0.046054
      px      :     0.016246
      py      :     0.019885
      dz2     :     0.000643  d :     0.002702
      dxz     :     0.000311
      dyz     :     0.000419
      dx2y2   :     0.000736
      dxy     :     0.000593

  5 H s       :     0.716373  s :     0.716373
      pz      :     0.019727  p :     0.040266
      px      :     0.007757
      py      :     0.012783
      dz2     :     0.000374  d :     0.002237
      dxz     :     0.000202
      dyz     :     0.000555
      dx2y2   :     0.000582
      dxy     :     0.000524

  6 H s       :     0.716181  s :     0.716181
      pz      :     0.019657  p :     0.037472
      px      :     0.012420
      py      :     0.005395
      dz2     :     0.000314  d :     0.002146
      dxz     :     0.000669
      dyz     :     0.000090
      dx2y2   :     0.000470
      dxy     :     0.000603


SPIN
  0 O s       :     0.005004  s :     0.005004
      pz      :     0.670915  p :     0.959336
      px      :     0.127839
      py      :     0.160581
      dz2     :    -0.000957  d :    -0.003938
      dxz     :    -0.001968
      dyz     :    -0.000107
      dx2y2   :    -0.000442
      dxy     :    -0.000465
      f0      :    -0.000032  f :    -0.000142
      f+1     :    -0.000069
      f-1     :     0.000019
      f+2     :    -0.000036
      f-2     :     0.000005
      f+3     :    -0.000012
      f-3     :    -0.000018

  1 C s       :     0.009026  s :     0.009026
      pz      :    -0.039136  p :    -0.094313
      px      :    -0.039910
      py      :    -0.015266
      dz2     :     0.014876  d :     0.051305
      dxz     :     0.012898
      dyz     :     0.017235
      dx2y2   :     0.005502
      dxy     :     0.000795
      f0      :     0.000431  f :     0.002568
      f+1     :     0.000490
      f-1     :     0.000008
      f+2     :     0.000398
      f-2     :     0.000509
      f+3     :     0.000292
      f-3     :     0.000439

  2 C s       :    -0.016181  s :    -0.016181
      pz      :     0.711225  p :     0.930205
      px      :     0.151803
      py      :     0.067177
      dz2     :    -0.001565  d :    -0.008849
      dxz     :    -0.001132
      dyz     :    -0.001751
      dx2y2   :    -0.003774
      dxy     :    -0.000626
      f0      :    -0.000318  f :    -0.000976
      f+1     :    -0.000112
      f-1     :    -0.000134
      f+2     :    -0.000127
      f-2     :    -0.000159
      f+3     :    -0.000128
      f-3     :     0.000001

  3 H s       :     0.108226  s :     0.108226
      pz      :     0.003240  p :     0.007695
      px      :     0.002976
      py      :     0.001480
      dz2     :     0.000074  d :     0.000143
      dxz     :     0.000033
      dyz     :     0.000011
      dx2y2   :     0.000008
      dxy     :     0.000016

  4 H s       :     0.022074  s :     0.022074
      pz      :    -0.001462  p :    -0.000684
      px      :     0.000876
      py      :    -0.000098
      dz2     :    -0.000021  d :    -0.000072
      dxz     :    -0.000014
      dyz     :     0.000007
      dx2y2   :    -0.000026
      dxy     :    -0.000018

  5 H s       :    -0.003555  s :    -0.003555
      pz      :     0.017445  p :     0.021757
      px      :     0.003800
      py      :     0.000512
      dz2     :     0.000303  d :     0.000978
      dxz     :     0.000058
      dyz     :     0.000329
      dx2y2   :     0.000098
      dxy     :     0.000189

  6 H s       :    -0.011084  s :    -0.011084
      pz      :     0.016473  p :     0.020526
      px      :     0.003117
      py      :     0.000937
      dz2     :     0.000221  d :     0.000950
      dxz     :     0.000435
      dyz     :     0.000031
      dx2y2   :     0.000104
      dxy     :     0.000159



                     *******************************
                     * LOEWDIN POPULATION ANALYSIS *
                     *******************************

-------------------------------------------
LOEWDIN ATOMIC CHARGES AND SPIN POPULATIONS
-------------------------------------------
   0 O :    0.001376    0.905141
   1 C :   -0.186444    0.166305
   2 C :    0.217574    0.701360
   3 H :    0.075220    0.082614
   4 H :   -0.037356    0.001982
   5 H :   -0.033377    0.067735
   6 H :   -0.036992    0.074863

----------------------------------------------------
LOEWDIN REDUCED ORBITAL CHARGES AND SPIN POPULATIONS
----------------------------------------------------
CHARGE
  0 O s       :     3.526743  s :     3.526743
      pz      :     1.185312  p :     4.217024
      px      :     1.397804
      py      :     1.633907
      dz2     :     0.036252  d :     0.251794
      dxz     :     0.069333
      dyz     :     0.010024
      dx2y2   :     0.055021
      dxy     :     0.081164
      f0      :     0.000272  f :     0.003064
      f+1     :     0.000589
      f-1     :     0.000064
      f+2     :     0.000532
      f-2     :     0.000233
      f+3     :     0.000665
      f-3     :     0.000708

  1 C s       :     2.674241  s :     2.674241
      pz      :     0.876748  p :     2.589415
      px      :     0.785775
      py      :     0.926892
      dz2     :     0.129957  d :     0.852324
      dxz     :     0.134431
      dyz     :     0.111003
      dx2y2   :     0.222061
      dxy     :     0.254872
      f0      :     0.007713  f :     0.070463
      f+1     :     0.009109
      f-1     :     0.003117
      f+2     :     0.011819
      f-2     :     0.007489
      f+3     :     0.013924
      f-3     :     0.017292

  2 C s       :     2.762612  s :     2.762612
      pz      :     0.767677  p :     2.612919
      px      :     0.919071
      py      :     0.926171
      dz2     :     0.032423  d :     0.387178
      dxz     :     0.036511
      dyz     :     0.084356
      dx2y2   :     0.139844
      dxy     :     0.094045
      f0      :     0.002894  f :     0.019717
      f+1     :     0.001474
      f-1     :     0.001702
      f+2     :     0.002017
      f-2     :     0.003207
      f+3     :     0.004256
      f-3     :     0.004167

  3 H s       :     0.662544  s :     0.662544
      pz      :     0.120016  p :     0.238570
      px      :     0.054795
      py      :     0.063759
      dz2     :     0.009387  d :     0.023665
      dxz     :     0.006151
      dyz     :     0.006961
      dx2y2   :     0.000390
      dxy     :     0.000776

  4 H s       :     0.716616  s :     0.716616
      pz      :     0.094482  p :     0.285762
      px      :     0.080302
      py      :     0.110978
      dz2     :     0.007046  d :     0.034979
      dxz     :     0.004451
      dyz     :     0.008083
      dx2y2   :     0.007784
      dxy     :     0.007615

  5 H s       :     0.725446  s :     0.725446
      pz      :     0.087222  p :     0.280406
      px      :     0.087406
      py      :     0.105778
      dz2     :     0.004183  d :     0.027526
      dxz     :     0.002544
      dyz     :     0.007182
      dx2y2   :     0.006884
      dxy     :     0.006733

  6 H s       :     0.731528  s :     0.731528
      pz      :     0.084872  p :     0.278558
      px      :     0.128636
      py      :     0.065050
      dz2     :     0.003768  d :     0.026907
      dxz     :     0.008152
      dyz     :     0.000933
      dx2y2   :     0.007453
      dxy     :     0.006601


SPIN
  0 O s       :     0.015516  s :     0.015516
      pz      :     0.612523  p :     0.877187
      px      :     0.110631
      py      :     0.154033
      dz2     :     0.003069  d :     0.012473
      dxz     :     0.004086
      dyz     :     0.002210
      dx2y2   :    -0.000357
      dxy     :     0.003465
      f0      :    -0.000008  f :    -0.000034
      f+1     :     0.000009
      f-1     :     0.000022
      f+2     :    -0.000038
      f-2     :     0.000037
      f+3     :    -0.000032
      f-3     :    -0.000024

  1 C s       :    -0.003133  s :    -0.003133
      pz      :     0.000601  p :    -0.027670
      px      :    -0.016076
      py      :    -0.012194
      dz2     :     0.043194  d :     0.177953
      dxz     :     0.043414
      dyz     :     0.069561
      dx2y2   :     0.017180
      dxy     :     0.004603
      f0      :     0.003467  f :     0.019155
      f+1     :     0.003296
      f-1     :     0.000164
      f+2     :     0.002956
      f-2     :     0.003382
      f+3     :     0.003137
      f-3     :     0.002753

  2 C s       :     0.018425  s :     0.018425
      pz      :     0.525511  p :     0.687073
      px      :     0.113434
      py      :     0.048129
      dz2     :    -0.000912  d :    -0.003399
      dxz     :    -0.000345
      dyz     :     0.003070
      dx2y2   :    -0.002936
      dxy     :    -0.002277
      f0      :    -0.000172  f :    -0.000739
      f+1     :     0.000297
      f-1     :    -0.000130
      f+2     :    -0.000120
      f-2     :    -0.000072
      f+3     :    -0.000415
      f-3     :    -0.000128

  3 H s       :     0.070866  s :     0.070866
      pz      :     0.001376  p :     0.012065
      px      :     0.007655
      py      :     0.003033
      dz2     :    -0.000112  d :    -0.000317
      dxz     :    -0.000086
      dyz     :    -0.000150
      dx2y2   :     0.000022
      dxy     :     0.000010

  4 H s       :     0.004578  s :     0.004578
      pz      :    -0.001018  p :    -0.001955
      px      :    -0.000098
      py      :    -0.000839
      dz2     :    -0.000054  d :    -0.000642
      dxz     :    -0.000106
      dyz     :    -0.000076
      dx2y2   :    -0.000150
      dxy     :    -0.000256

  5 H s       :    -0.014001  s :    -0.014001
      pz      :     0.055245  p :     0.072362
      px      :     0.011218
      py      :     0.005898
      dz2     :     0.003184  d :     0.009374
      dxz     :     0.000440
      dyz     :     0.003453
      dx2y2   :     0.000486
      dxy     :     0.001811

  6 H s       :    -0.012509  s :    -0.012509
      pz      :     0.058537  p :     0.078016
      px      :     0.015398
      py      :     0.004081
      dz2     :     0.002382  d :     0.009356
      dxz     :     0.004608
      dyz     :     0.000203
      dx2y2   :     0.001463
      dxy     :     0.000701



                      *****************************
                      * MAYER POPULATION ANALYSIS *
                      *****************************

  NA   - Mulliken gross atomic population
  ZA   - Total nuclear charge
  QA   - Mulliken gross atomic charge
  VA   - Mayer's total valence
  BVA  - Mayer's bonded valence
  FA   - Mayer's free valence

  ATOM       NA         ZA         QA         VA         BVA        FA
  0 O      8.3152     8.0000    -0.3152     1.8340     1.0116     0.8225
  1 C      5.9820     6.0000     0.0180     3.4796     3.4701     0.0095
  2 C      6.5965     6.0000    -0.5965     3.5733     2.7979     0.7754
  3 H      0.8225     1.0000     0.1775     1.0165     1.0044     0.0121
  4 H      0.7693     1.0000     0.2307     1.0227     1.0223     0.0004
  5 H      0.7589     1.0000     0.2411     0.9704     0.9703     0.0001
  6 H      0.7558     1.0000     0.2442     0.9456     0.9456     0.0000

  Mayer bond orders larger than 0.100000
B(  0-O ,  1-C ) :   0.8231 B(  1-C ,  2-C ) :   0.7795 B(  1-C ,  3-H ) :   0.9374 
B(  1-C ,  4-H ) :   0.9813 B(  2-C ,  5-H ) :   0.9726 B(  2-C ,  6-H ) :   0.9602 


-------
TIMINGS
-------

Total SCF time: 0 days 0 hours 0 min 7 sec 

Total time                  ....       7.219 sec
Sum of individual times     ....       7.189 sec  ( 99.6%)

SCF preparation             ....       1.624 sec  ( 22.5%)
Fock matrix formation       ....       4.388 sec  ( 60.8%)
  Startup                   ....       0.074 sec  (  1.7% of F)
  Split-RI-J                ....       0.466 sec  ( 10.6% of F)
  Chain of spheres X        ....       2.433 sec  ( 55.4% of F)
  XC integration            ....       1.130 sec  ( 25.7% of F)
    XC Preparation          ....       0.000 sec  (  0.0% of XC)
    Basis function eval.    ....       0.056 sec  (  4.9% of XC)
    Density eval.           ....       0.214 sec  ( 19.0% of XC)
    XC-Functional eval.     ....       0.014 sec  (  1.3% of XC)
    XC-Potential eval.      ....       0.309 sec  ( 27.4% of XC)
Diagonalization             ....       0.000 sec  (  0.0%)
Density matrix formation    ....       0.138 sec  (  1.9%)
Total Energy calculation    ....       0.129 sec  (  1.8%)
Population analysis         ....       0.044 sec  (  0.6%)
Orbital Transformation      ....       0.076 sec  (  1.1%)
Orbital Orthonormalization  ....       0.000 sec  (  0.0%)
DIIS solution               ....       0.447 sec  (  6.2%)
[...]
[1741607286.802017] [ohm:3121731:0]        ib_iface.c:1059 UCX  ERROR ibv_create_cq(cqe=256) failed: Connection timed out
[1741607286.805167] [ohm:3121837:0]        ib_iface.c:1059 UCX  ERROR ibv_create_cq(cqe=256) failed: Connection timed out
[1741607286.807051] [ohm:3121868:0]        ib_iface.c:1059 UCX  ERROR ibv_create_cq(cqe=256) failed: Connection timed out
[1741607286.809833] [ohm:3121780:0]        ib_iface.c:1059 UCX  ERROR ibv_create_cq(cqe=256) failed: Connection timed out
[1741607286.810938] [ohm:3121873:0]        ib_iface.c:1059 UCX  ERROR ibv_create_cq(cqe=256) failed: Connection timed out
[1741607286.810945] [ohm:3121875:0]        ib_iface.c:1059 UCX  ERROR ibv_create_cq(cqe=256) failed: Connection timed out
[1741607286.811096] [ohm:3121751:0]        ib_iface.c:1059 UCX  ERROR ibv_create_cq(cqe=256) failed: Connection timed out
[1741607286.811817] [ohm:3121813:0]        ib_iface.c:1059 UCX  ERROR ibv_create_cq(cqe=256) failed: Connection timed out
[1741607286.812119] [ohm:3121770:0]        ib_iface.c:1059 UCX  ERROR ibv_create_cq(cqe=256) failed: Connection timed out
[1741607286.812236] [ohm:3121808:0]        ib_iface.c:1059 UCX  ERROR ibv_create_cq(cqe=256) failed: Connection timed out


           ************************************************************
           *        Program running with 64 parallel MPI-processes    *
           *              working on a common directory               *
           ************************************************************

------------------------------------------------------------------------------
                              ORCA PROPERTY CALCULATIONS
------------------------------------------------------------------------------

GBWName                                 ... orca.gbw
Number of atoms                         ...      7
Number of basis functions               ...    182
Max core memory                         ...   1024 MB

Electric properties:
Dipole moment                           ... YES
Quadrupole moment                       ...  NO
Static polarizability (Dipole/Dipole)   ...  NO
Static polarizability (Dipole/Quad.)    ...  NO
Static polarizability (Quad./Quad.)     ...  NO
Static polarizability (Velocity)        ...  NO

Atomic electric properties:
Dipole moment                           ...  NO
Quadrupole moment                       ...  NO
Static polarizability                   ...  NO

Choice of electric origin               ... Center of mass
Position of electric origin             ...     0.784122     0.119379     0.138764

General magnetic properties:
Magnetizability                         ...  NO

EPR properties:
g-Tensor (aka g-matrix)                 ...  NO
Zero-Field splitting spin-orbit         ...  NO
Zero-field splitting spin-spin          ...  NO
Hyperfine couplings                     ...  NO (   0 nuclei)
Quadrupole couplings                    ...  NO (   0 nuclei)
Contact density                         ...  NO (   0 nuclei)

NMR properties:
Chemical shifts                         ...  NO (   0 nuclei)
Spin-rotation constants                 ...  NO (   0 nuclei)
Spin-spin couplings                     ...  NO (   0 nuclei,    0 pairs)

Choice of magnetic origin               ... GIAO
Position of magnetic origin             ...     0.000000     0.000000     0.000000

Properties with geometric perturbations:
SCF Hessian                             ...  NO
IR spectrum                             ...  NO
VCD spectrum                            ...  NO
X-ray spectroscopy properties:
SCF XES/XAS/RIXS spectra                ...  NO


-------------
DIPOLE MOMENT
-------------

Method             : SCF
Type of density    : Electron Density
Multiplicity       :   3
Irrep              :   0
Energy             :  -153.7764453357958132 Eh
Relativity type    : 
Basis              : AO
                                X                 Y                 Z
Electronic contribution:     -2.308723926       0.670891723      -0.733405530
Nuclear contribution   :      3.078624277      -0.566724910       1.041130218
                        -----------------------------------------
Total Dipole Moment    :      0.769900351       0.104166813       0.307724687
                        -----------------------------------------
Magnitude (a.u.)       :      0.835638534
Magnitude (Debye)      :      2.124024353



--------------------
Rotational spectrum 
--------------------
 
Rotational constants in cm-1:             1.302579             0.342124             0.295442 
Rotational constants in MHz :         39050.344810         10256.620474          8857.116591 

Dipole components along the rotational axes: 
x,y,z [a.u.] :     0.658758     0.496042    -0.135174 
x,y,z [Debye]:     1.674430     1.260838    -0.343586 

 

-------------
DIPOLE MOMENT
-------------

Method             : TDA/CIS
Type of density    : Electron Density
Level              : Relaxed density
State              :   1
Multiplicity       :   3
Irrep              :   0
Energy             :     0.0000000000000000 Eh
Relativity type    : 
Basis              : AO
                                X                 Y                 Z
Electronic contribution:     -1.997108668       0.501987081      -0.686636284
Nuclear contribution   :      3.078624277      -0.566724910       1.041130218
                        -----------------------------------------
Total Dipole Moment    :      1.081515609      -0.064737828       0.354493934
                        -----------------------------------------
Magnitude (a.u.)       :      1.139970591
Magnitude (Debye)      :      2.897574968



--------------------
Rotational spectrum 
--------------------
 
Rotational constants in cm-1:             1.302579             0.342124             0.295442 
Rotational constants in MHz :         39050.344810         10256.620474          8857.116591 

Dipole components along the rotational axes: 
x,y,z [a.u.] :     1.016266     0.497824    -0.137508 
x,y,z [Debye]:     2.583142     1.265368    -0.349519 

 

Dipole moment calculation done in   0.0 sec 

Maximum memory used throughout the entire PROP-calculation: 7.4 MB
[1741607288.617103] [ohm:3122071:0]        ib_iface.c:1059 UCX  ERROR ibv_create_cq(cqe=256) failed: Connection timed out
[1741607288.621723] [ohm:3122069:0]        ib_iface.c:1059 UCX  ERROR ibv_create_cq(cqe=256) failed: Connection timed out
[1741607288.623934] [ohm:3122074:0]        ib_iface.c:1059 UCX  ERROR ibv_create_cq(cqe=256) failed: Connection timed out
[1741607288.630565] [ohm:3122073:0]        ib_iface.c:1059 UCX  ERROR ibv_create_cq(cqe=256) failed: Connection timed out
[1741607288.632383] [ohm:3122075:0]        ib_iface.c:1059 UCX  ERROR ibv_create_cq(cqe=256) failed: Connection timed out
[1741607288.644109] [ohm:3122068:0]        ib_iface.c:1059 UCX  ERROR ibv_create_cq(cqe=256) failed: Connection timed out
[1741607288.645768] [ohm:3122099:0]        ib_iface.c:1059 UCX  ERROR ibv_create_cq(cqe=256) failed: Connection timed out
[1741607288.646154] [ohm:3122103:0]        ib_iface.c:1059 UCX  ERROR ibv_create_cq(cqe=256) failed: Connection timed out
[1741607288.652480] [ohm:3122110:0]        ib_iface.c:1059 UCX  ERROR ibv_create_cq(cqe=256) failed: Connection timed out
[1741607288.670213] [ohm:3122131:0]        ib_iface.c:1059 UCX  ERROR ibv_create_cq(cqe=256) failed: Connection timed out
[1741607288.676641] [ohm:3122070:0]        ib_iface.c:1059 UCX  ERROR ibv_create_cq(cqe=256) failed: Connection timed out
[1741607288.677158] [ohm:3122105:0]        ib_iface.c:1059 UCX  ERROR ibv_create_cq(cqe=256) failed: Connection timed out
[1741607288.677475] [ohm:3122092:0]        ib_iface.c:1059 UCX  ERROR ibv_create_cq(cqe=256) failed: Connection timed out
[1741607288.741337] [ohm:3122096:0]        ib_iface.c:1059 UCX  ERROR ibv_create_cq(cqe=256) failed: Connection timed out
[1741607288.760187] [ohm:3122120:0]        ib_iface.c:1059 UCX  ERROR ibv_create_cq(cqe=256) failed: Connection timed out
[1741607288.764120] [ohm:3122083:0]        ib_iface.c:1059 UCX  ERROR ibv_create_cq(cqe=256) failed: Connection timed out
[1741607288.768120] [ohm:3122098:0]        ib_iface.c:1059 UCX  ERROR ibv_create_cq(cqe=256) failed: Connection timed out
[1741607288.768815] [ohm:3122079:0]        ib_iface.c:1059 UCX  ERROR ibv_create_cq(cqe=256) failed: Connection timed out
[1741607288.770749] [ohm:3122100:0]        ib_iface.c:1059 UCX  ERROR ibv_create_cq(cqe=256) failed: Connection timed out
[1741607288.779668] [ohm:3122104:0]        ib_iface.c:1059 UCX  ERROR ibv_create_cq(cqe=256) failed: Connection timed out
[1741607288.788201] [ohm:3122095:0]        ib_iface.c:1059 UCX  ERROR ibv_create_cq(cqe=256) failed: Connection timed out
[1741607288.797717] [ohm:3122155:0]        ib_iface.c:1059 UCX  ERROR ibv_create_cq(cqe=256) failed: Connection timed out
[1741607288.799512] [ohm:3122160:0]        ib_iface.c:1059 UCX  ERROR ibv_create_cq(cqe=256) failed: Connection timed out
[1741607288.806117] [ohm:3122076:0]        ib_iface.c:1059 UCX  ERROR ibv_create_cq(cqe=256) failed: Connection timed out
[1741607288.812943] [ohm:3122077:0]        ib_iface.c:1059 UCX  ERROR ibv_create_cq(cqe=256) failed: Connection timed out
[1741607288.821496] [ohm:3122102:0]        ib_iface.c:1059 UCX  ERROR ibv_create_cq(cqe=256) failed: Connection timed out
[1741607288.831177] [ohm:3122142:0]        ib_iface.c:1059 UCX  ERROR ibv_create_cq(cqe=256) failed: Connection timed out
[1741607288.831608] [ohm:3122124:0]        ib_iface.c:1059 UCX  ERROR ibv_create_cq(cqe=256) failed: Connection timed out
[1741607288.837033] [ohm:3122081:0]        ib_iface.c:1059 UCX  ERROR ibv_create_cq(cqe=256) failed: Connection timed out
[1741607288.850971] [ohm:3122187:0]        ib_iface.c:1059 UCX  ERROR ibv_create_cq(cqe=256) failed: Connection timed out
[1741607288.859254] [ohm:3122167:0]        ib_iface.c:1059 UCX  ERROR ibv_create_cq(cqe=256) failed: Connection timed out
[1741607288.877741] [ohm:3122159:0]        ib_iface.c:1059 UCX  ERROR ibv_create_cq(cqe=256) failed: Connection timed out
[1741607288.881586] [ohm:3122097:0]        ib_iface.c:1059 UCX  ERROR ibv_create_cq(cqe=256) failed: Connection timed out
[1741607288.884657] [ohm:3122115:0]        ib_iface.c:1059 UCX  ERROR ibv_create_cq(cqe=256) failed: Connection timed out
[1741607288.886586] [ohm:3122090:0]        ib_iface.c:1059 UCX  ERROR ibv_create_cq(cqe=256) failed: Connection timed out
[1741607288.888091] [ohm:3122176:0]        ib_iface.c:1059 UCX  ERROR ibv_create_cq(cqe=256) failed: Connection timed out
[1741607288.889550] [ohm:3122199:0]        ib_iface.c:1059 UCX  ERROR ibv_create_cq(cqe=256) failed: Connection timed out
[1741607288.901340] [ohm:3122224:0]        ib_iface.c:1059 UCX  ERROR ibv_create_cq(cqe=256) failed: Connection timed out
[1741607288.909113] [ohm:3122132:0]        ib_iface.c:1059 UCX  ERROR ibv_create_cq(cqe=256) failed: Connection timed out
[1741607288.909692] [ohm:3122148:0]        ib_iface.c:1059 UCX  ERROR ibv_create_cq(cqe=256) failed: Connection timed out
[1741607288.913803] [ohm:3122101:0]        ib_iface.c:1059 UCX  ERROR ibv_create_cq(cqe=256) failed: Connection timed out
[1741607288.918119] [ohm:3122202:0]        ib_iface.c:1059 UCX  ERROR ibv_create_cq(cqe=256) failed: Connection timed out
[1741607288.923724] [ohm:3122118:0]        ib_iface.c:1059 UCX  ERROR ibv_create_cq(cqe=256) failed: Connection timed out
[1741607288.933643] [ohm:3122072:0]        ib_iface.c:1059 UCX  ERROR ibv_create_cq(cqe=256) failed: Connection timed out
[1741607288.938553] [ohm:3122127:0]        ib_iface.c:1059 UCX  ERROR ibv_create_cq(cqe=256) failed: Connection timed out
[1741607288.941051] [ohm:3122107:0]        ib_iface.c:1059 UCX  ERROR ibv_create_cq(cqe=256) failed: Connection timed out
[1741607288.941800] [ohm:3122172:0]        ib_iface.c:1059 UCX  ERROR ibv_create_cq(cqe=256) failed: Connection timed out
[1741607288.945122] [ohm:3122195:0]        ib_iface.c:1059 UCX  ERROR ibv_create_cq(cqe=256) failed: Connection timed out
[1741607288.945799] [ohm:3122170:0]        ib_iface.c:1059 UCX  ERROR ibv_create_cq(cqe=256) failed: Connection timed out
[1741607288.949281] [ohm:3122182:0]        ib_iface.c:1059 UCX  ERROR ibv_create_cq(cqe=256) failed: Connection timed out
[1741607288.949777] [ohm:3122111:0]        ib_iface.c:1059 UCX  ERROR ibv_create_cq(cqe=256) failed: Connection timed out
[1741607288.957879] [ohm:3122138:0]        ib_iface.c:1059 UCX  ERROR ibv_create_cq(cqe=256) failed: Connection timed out
[1741607288.959825] [ohm:3122152:0]        ib_iface.c:1059 UCX  ERROR ibv_create_cq(cqe=256) failed: Connection timed out
[1741607288.960669] [ohm:3122106:0]        ib_iface.c:1059 UCX  ERROR ibv_create_cq(cqe=256) failed: Connection timed out
[1741607288.960964] [ohm:3122207:0]        ib_iface.c:1059 UCX  ERROR ibv_create_cq(cqe=256) failed: Connection timed out
[1741607288.961375] [ohm:3122140:0]        ib_iface.c:1059 UCX  ERROR ibv_create_cq(cqe=256) failed: Connection timed out
[1741607288.963616] [ohm:3122135:0]        ib_iface.c:1059 UCX  ERROR ibv_create_cq(cqe=256) failed: Connection timed out
[1741607288.964435] [ohm:3122164:0]        ib_iface.c:1059 UCX  ERROR ibv_create_cq(cqe=256) failed: Connection timed out
[1741607288.964799] [ohm:3122210:0]        ib_iface.c:1059 UCX  ERROR ibv_create_cq(cqe=256) failed: Connection timed out
[1741607288.965662] [ohm:3122109:0]        ib_iface.c:1059 UCX  ERROR ibv_create_cq(cqe=256) failed: Connection timed out
[1741607288.965975] [ohm:3122191:0]        ib_iface.c:1059 UCX  ERROR ibv_create_cq(cqe=256) failed: Connection timed out
[1741607288.967550] [ohm:3122218:0]        ib_iface.c:1059 UCX  ERROR ibv_create_cq(cqe=256) failed: Connection timed out
[1741607288.967562] [ohm:3122146:0]        ib_iface.c:1059 UCX  ERROR ibv_create_cq(cqe=256) failed: Connection timed out
[1741607288.968177] [ohm:3122184:0]        ib_iface.c:1059 UCX  ERROR ibv_create_cq(cqe=256) failed: Connection timed out

--------------------------------
SUGGESTED CITATIONS FOR THIS RUN
--------------------------------

Below you find a list of papers that are relevant to this ORCA run
We neither can nor want to force you to cite these papers, but we appreciate if you do
You receive ORCA, which is the product of decades of hard work by many enthusiastic individuals, for free
The only thing we kindly ask in return is that you cite our papers,
We deeply appreciate it, if you show your appreciation for ORCA by not just citing the generic ORCA reference.

Please note that relegating all ORCA citations to the supporting information does *not* help us.
SI sections are not indexed - citations you put there will not count into any citation statistics
But we need these citations in order to attract the funding resources that allow us to do what we are doing

Therefore, if you are a happy ORCA user, please consider citing a few of the papers listed below in the main body of your paper

In addition to the list printed below, the program has created the file orca.bibtex that contains the list in bibtex format
You can import this file easily into all common literature databanks and citation aid programs


List of essential papers. We consider these as the minimum necessary citations

  1. Neese,F.
     Software update: the ORCA program system, version 5.0
     WIRES Comput. Molec. Sci., 2022 12(1)e1606
     doi.org/10.1002/wcms.1606

List of papers to cite with high priority. The work reported in these papers was absolutely
necessary for this run to complete.
Our perspective: the developers of density functionals and basis sets usually get cited in chemistry papers
Good! But without the algorithms to do something with them, the functionals or basis sets would not do anything.
Hence, in our opinion, the algorithm design and method developments papers are equally worthy of getting cited

  1. Neese,F.; Olbrich,G.
     Efficient use of the resolution of the identity approximation in time-dependent density functional calculations with hybrid density functionals
     Chem. Phys. Lett., 2002 362 170-178
     doi.org/10.1016/s0009-2614(02)01053-9
  2. Neese,F.
     An improvement of the resolution of the identity approximation for the formation of the Coulomb matrix
     J. Comp. Chem., 2003 24(14)1740-1747
     doi.org/10.1002/jcc.10318
  3. Neese,F.; Wennmohs,F.; Hansen,A.; Becker,U.
     Efficient, approximate and parallel Hartree-Fock and hybrid DFT calculations. A 'chain-of-spheres' algorithm for the Hartree-Fock exchange
     Chem. Phys., 2009 356(1-3)98-109
     doi.org/10.1016/j.chemphys.2008.10.036
  4. Petrenko,T.; Kossmann,S.; Neese,F.
     Efficient time-dependent density functional theory approximations for hybrid density functionals: Analytical gradients and parallelization
     J. Chem. Phys., 2011 134 054116
     doi.org/10.1063/1.3533441
  5. Helmich-Paris,B.; de Souza,B.; Neese,F.; Izsák,R.
     An improved chain of spheres for exchange algorithm
     J. Chem. Phys., 2021 155 104109
     doi.org/doi: 10.1063/5.0058766.
  6. Neese,F.
     The SHARK Integral Generation and Digestion System
     J. Comp. Chem., 2022  1-16
     doi.org/10.1002/jcc.26942
  7. Lehtola,S.; Steigemann,C.; Oliveira,M.; Marques,M.
     Recent developments in Libxc - A comprehensive library of functionals for density functional theory
     Software X, 2018 7 
     doi.org/10.1016/j.softx.2017.11.002
  8. Grimme,S.; Antony,J.; Ehrlich,S.; Krieg,H.
     A consistent and accurate ab initio parametrization of density functional dispersion correction (DFT-D) for the 94 elements H-Pu
     J. Chem. Phys., 2010 132 154104-XXXX
     doi.org/10.1063/1.3382344
  9. Grimme,S.; Ehrlich,S.; Goerigk,L.
     Effect of the damping function in dispersion corrected density functional theory
     J. Comput. Chem., 2011 32(7)1456-1465
     doi.org/10.1002/jcc.21759

List of suggested additional citations. These are papers that are important in the 'surrounding' of 
of this run, or papers that preceded the highly important papers. If you like your results we are grateful for a citation.

  1. Izsak,R.; Neese,F.
     An overlap fitted chain of spheres exchange method
     J. Chem. Phys., 2011 135 144105
     doi.org/10.1063/1.3646921
  2. Izsak,R.; Hansen,A.; Neese,F.
     The resolution of identity and chain of spheres approximations for the LPNO-CCSD singles Fock term
     Molec. Phys., 2012 110 2413-2417
     doi.org/10.1080/00268976.2012.687466
  3. Neese,F.
     The ORCA program system
     WIRES Comput. Molec. Sci., 2012 2(1)73-78
     doi.org/10.1002/wcms.81
  4. Izsak,R.; Neese,F.; Klopper,W.
     Robust fitting techniques in the chain of spheres approximation to the Fock exchange: The role of the complementary space
     J. Chem. Phys., 2013 139 
     doi.org/10.1063/1.4819264
  5. Neese,F.
     Software update: the ORCA program system, version 4.0
     WIRES Comput. Molec. Sci., 2018 8(1)1-6
     doi.org/10.1002/wcms.1327
  6. Neese,F.; Wennmohs,F.; Becker,U.; Riplinger,C.
     The ORCA quantum chemistry program package
     J. Chem. Phys., 2020 152 Art. No. L224108
     doi.org/10.1063/5.0004608

List of optional additional citations

  1. Neese,F.
     Approximate second-order SCF convergence for spin unrestricted wavefunctions
     Chem. Phys. Lett., 2000 325(1-3)93-98
     doi.org/10.1016/s0009-2614(00)00662-x

Timings for individual modules:

Sum of individual times          ...       24.180 sec (=   0.403 min)
Startup calculation              ...        2.381 sec (=   0.040 min)   9.8 %
SCF iterations                   ...        9.835 sec (=   0.164 min)  40.7 %
Property integrals               ...        2.154 sec (=   0.036 min)   8.9 %
Property calculations            ...        1.992 sec (=   0.033 min)   8.2 %
CIS module                       ...        7.818 sec (=   0.130 min)  32.3 %
                             ****ORCA TERMINATED NORMALLY****
TOTAL RUN TIME: 0 days 0 hours 0 minutes 26 seconds 401 msec
