7
Properties=species:S:1:pos:R:3:momenta:R:3:forces:R:3 Coordinates=T from=T ORCA-job=T orca=T E=T -153.798269612488=T energy=-4183.614676135238 free_energy=-4183.614676135238 stress="-3.3372027644978265e-06 3.221438114250871e-06 9.77975639726941e-07 3.221438114250871e-06 6.347573240471706e-06 2.2089773429029627e-06 9.77975639726941e-07 2.2089773429029627e-06 -3.9412602147948275e-06" pbc="F F F"
O        0.56129594       1.18586029       0.05995269       0.85569112       1.43546568       0.61832580      -0.14397536      -1.06797612      -0.62104645
C        0.49896241      -0.26695260       0.12812430       0.08891934      -0.61373834       0.03035982      -1.45011208       1.14714650       0.46488447
C       -0.82513711      -0.87518597      -0.17374284      -1.12285614      -1.11472448      -0.91182143       0.10903326       0.51099835      -0.85709996
H        0.83199138      -0.42020140       1.12348412       0.27601544       0.31441497       0.18647802       0.30462171      -0.73511573       1.18513894
H        1.22022457      -0.74182037      -0.47634831      -0.05854933       0.06756786       0.11325786       1.32996347      -0.09097175      -0.91131876
H       -1.50895996      -0.17416854      -0.63495703      -0.00165617      -0.25830683      -0.00282124      -0.31660966      -0.22002996       0.28095591
H       -0.92310456      -1.92543058      -0.47253812      -0.03756426       0.16932114      -0.03377885       0.16707866       0.45594872       0.45848585
