
                                 *****************
                                 * O   R   C   A *
                                 *****************

                                            #,                                       
                                            ###                                      
                                            ####                                     
                                            #####                                    
                                            ######                                   
                                           ########,                                 
                                     ,,################,,,,,                         
                               ,,#################################,,                 
                          ,,##########################################,,             
                       ,#########################################, ''#####,          
                    ,#############################################,,   '####,        
                  ,##################################################,,,,####,       
                ,###########''''           ''''###############################       
              ,#####''   ,,,,##########,,,,          '''####'''          '####       
            ,##' ,,,,###########################,,,                        '##       
           ' ,,###''''                  '''############,,,                           
         ,,##''                                '''############,,,,        ,,,,,,###''
      ,#''                                            '''#######################'''  
     '                                                          ''''####''''         
             ,#######,   #######,   ,#######,      ##                                
            ,#'     '#,  ##    ##  ,#'     '#,    #''#        ,####,   ,####,        
            ##       ##  ##   ,#'  ##            #'  '#       #'       #'  '#        
            ##       ##  #######   ##           ,######,      #####,   #    #        
            '#,     ,#'  ##    ##  '#,     ,#' ,#      #,     #,   #   #,  ,#        
             '#######'   ##     ##  '#######'  #'      '#     '####' # '####'        



                #########################################################
                #                        -***-                          #
                #          Department of theory and spectroscopy        #
                #                                                       #
                #                      Frank Neese                      #
                #                                                       #
                #     Directorship, Architecture, Infrastructure        #
                #                    SHARK, DRIVERS                     #
                #        Core code/Algorithms in most modules           #
                #                                                       #
                #        Max Planck Institute fuer Kohlenforschung      #
                #                Kaiser Wilhelm Platz 1                 #
                #                 D-45470 Muelheim/Ruhr                 #
                #                      Germany                          #
                #                                                       #
                #                  All rights reserved                  #
                #                        -***-                          #
                #########################################################


                         Program Version 6.0.0  -   RELEASE  -


 With contributions from (in alphabetic order):
   Daniel Aravena         : Magnetic Suceptibility
   Michael Atanasov       : Ab Initio Ligand Field Theory (pilot matlab implementation)
   Alexander A. Auer      : GIAO ZORA, VPT2 properties, NMR spectrum
   Ute Becker             : All parallelization in ORCA, NUMFREQ, NUMCALC
   Giovanni Bistoni       : ED, misc. LED, open-shell LED, HFLD
   Martin Brehm           : Molecular dynamics
   Dmytro Bykov           : pre 5.0 version of the SCF Hessian
   Marcos Casanova-Páez   : Triplet and SCS-CIS(D). UHF-(DLPNO)-IP/EA/STEOM-CCSD. UHF-CVS-IP/STEOM-CCSD
   Vijay G. Chilkuri      : MRCI spin determinant printing, contributions to CSF-ICE
   Pauline Colinet        : FMM embedding
   Dipayan Datta          : RHF DLPNO-CCSD density
   Achintya Kumar Dutta   : EOM-CC, STEOM-CC
   Nicolas Foglia         : Exact transition moments, OPA infrastructure, MCD improvements
   Dmitry Ganyushin       : Spin-Orbit,Spin-Spin,Magnetic field MRCI
   Miquel Garcia          : C-PCM and meta-GGA Hessian, CCSD/C-PCM, Gaussian charge scheme
   Tiago L. C. Gouveia    : GS-ROHF, GS-ROCIS
   Yang Guo               : DLPNO-NEVPT2, F12-NEVPT2, CIM, IAO-localization
   Andreas Hansen         : Spin unrestricted coupled pair/coupled cluster methods
   Ingolf Harden          : AUTO-CI MPn and infrastructure 
   Benjamin Helmich-Paris : MC-RPA, TRAH-(SCF,CASSCF), AVAS, COSX integrals, SCF dyn. polar.
   Lee Huntington         : MR-EOM, pCC
   Robert Izsak           : Overlap fitted RIJCOSX, COSX-SCS-MP3, EOM
   Riya Kayal             : Wick's Theorem for AUTO-CI, AUTO-CI UHF-CCSDT
   Emily Kempfer          : AUTO-CI, RHF CISDT and CCSDT
   Christian Kollmar      : KDIIS, OOCD, Brueckner-CCSD(T), CCSD density, CASPT2, CASPT2-K, improved NEVPT2
   Axel Koslowski         : Symmetry handling
   Simone Kossmann        : Meta GGA functionals, TD-DFT gradient, OOMP2, (MP2 Hessian; deprecated post 5.0)
   Lucas Lang             : DCDCAS
   Marvin Lechner         : AUTO-CI (C++ implementation), FIC-MRCC
   Spencer Leger          : CASSCF response
   Dagmar Lenk            : GEPOL surface, SMD, ORCA-2-JSON
   Dimitrios Liakos       : Extrapolation schemes; Compound Job, initial MDCI parallelization
   Dimitrios Manganas     : Further ROCIS development; embedding schemes. LFT, Crystal Embedding
   Dimitrios Pantazis     : SARC Basis sets
   Anastasios Papadopoulos: AUTO-CI, single reference methods and gradients
   Taras Petrenko         : pre 6.0 DFT Hessian and TD-DFT gradient, (ASA, deprecated), ECA, 1-Electron XAS/XES, NRVS
   Peter Pinski           : DLPNO-MP2, DLPNO-MP2 Gradient
   Christoph Reimann      : Effective Core Potentials
   Marius Retegan         : Local ZFS, SOC
   Christoph Riplinger    : Optimizer, TS searches, QM/MM, DLPNO-CCSD(T), (RO)-DLPNO pert. Triples
   Michael Roemelt        : Original ROCIS implementation
   Masaaki Saitow         : Open-shell DLPNO-CCSD energy and density
   Barbara Sandhoefer     : DKH picture change effects
   Kantharuban Sivalingam : CASSCF convergence/infrastructure, NEVPT2 and variants, FIC-MRCI
   Bernardo de Souza      : ESD, SOC TD-DFT
   Georgi Stoychev        : AutoAux, RI-MP2 NMR, DLPNO-MP2 response, X2C
   Van Anh Tran           : RI-MP2 g-tensors
   Willem Van den Heuvel  : Paramagnetic NMR
   Zikuan Wang            : NOTCH, Electric field optimization 
   Frank Wennmohs         : Technical directorship and infrastructure
   Hang Xu                : AUTO-CI-Response properties 


 We gratefully acknowledge several colleagues who have allowed us to
 interface, adapt or use parts of their codes:
   Stefan Grimme, W. Hujo, H. Kruse, P. Pracht,  : VdW corrections, initial TS optimization,
                  C. Bannwarth, S. Ehlert,         DFT functionals, gCP, sTDA/sTD-DF
                  L. Wittmann, M. Mueller
   Ed Valeev, F. Pavosevic, A. Kumar             : LibInt (2-el integral package), F12 methods
   Garnet Chan, S. Sharma, J. Yang, R. Olivares  : DMRG
   Ulf Ekstrom                                   : XCFun DFT Library
   Mihaly Kallay                                 : mrcc  (arbitrary order and MRCC methods)
   Frank Weinhold                                : gennbo (NPA and NBO analysis)
   Simon Mueller                                 : openCOSMO-RS
   Christopher J. Cramer and Donald G. Truhlar   : smd solvation model
   Lars Goerigk                                  : TD-DFT with DH, B97 family of functionals
   V. Asgeirsson, H. Jonsson                     : NEB implementation
   FAccTs GmbH                                   : IRC, NEB, NEB-TS, DLPNO-Multilevel, CI-OPT
                                                   MM, QMMM, 2- and 3-layer-ONIOM, Crystal-QMMM,
                                                   LR-CPCM, SF, NACMEs, symmetry and pop. for TD-DFT,
                                                   nearIR, NL-DFT gradient (VV10), updates on ESD,
                                                   ML-optimized integration grids, MBIS, APM,
                                                   GOAT, DOCKER, SOLVATOR, interface openCOSMO-RS
   S Lehtola, MJT Oliveira, MAL Marques          : LibXC Library
   Liviu Ungur et al                             : ANISO software


 Your calculation uses the libint2 library for the computation of 2-el integrals
 For citations please refer to: http://libint.valeyev.net

 Your ORCA version has been built with support for libXC version: 6.2.2
 For citations please refer to: https://libxc.gitlab.io

 This ORCA versions uses:
   CBLAS   interface :  Fast vector & matrix operations
   LAPACKE interface :  Fast linear algebra routines
   SCALAPACK package :  Parallel linear algebra routines
   Shared memory     :  Shared parallel matrices
   BLAS/LAPACK       :  OpenBLAS 0.3.27  USE64BITINT DYNAMIC_ARCH NO_AFFINITY Zen SINGLE_THREADED
        Core in use  :  Zen
   Copyright (c) 2011-2014, The OpenBLAS Project


Your calculation utilizes the atom-pairwise dispersion correction
with the Becke-Johnson damping scheme (D3BJ)


Warning: RI is on but no J-basis has been assigned. Assigning Def2/J (nothing to worry about!)
================================================================================

----- Orbital basis set information -----
Your calculation utilizes the basis: def2-TZVPPD
   F. Weigend and R. Ahlrichs, Phys. Chem. Chem. Phys. 7, 3297 (2005).
   D. Rappoport and F. Furche, J. Chem. Phys. 133, 134105 (2010)
   D. Rappoport, J. Chem. Phys. 155, 124102 (2021).

----- AuxJ basis set information -----
Your calculation utilizes the auxiliary basis: def2/J
   F. Weigend, Phys. Chem. Chem. Phys. 8, 1057 (2006).

================================================================================
                                        WARNINGS
                       Please study these warnings very carefully!
================================================================================

Using LibXC functional ID 531 : wB97M-V exchange-correlation functional
[ 1]  N. Mardirossian and M. Head-Gordon.,  J. Chem. Phys. 144, 214110 (2016)
Using LibXC functional ID 531 : wB97M-V exchange-correlation functional
[ 1]  N. Mardirossian and M. Head-Gordon.,  J. Chem. Phys. 144, 214110 (2016)

WARNING: B97M-V or wB97M-V functional requested.
  ===> : libXC variant has now been activated.
         Any manually given DFX/HFX/RangeSep scaling parameters are IGNORED!

Your calculation utilizes LibXC
 by S Lehtola, C Steigemann, MJT Oliveira & MAL Marques
Please cite in your paper:
 S Lehtola, C Steigemann, MJT Oliveira & MAL Marques, SoftwareX, 7, (2018), 1.
   


WARNING: your system is open-shell and RHF/RKS was chosen
  ===> : WILL SWITCH to UHF/UKS

INFO   : Checking CIS options ...

WARNING: CIS/ROCIS methods need fully converged wavefunctions
  ===> : Setting SCFConvForced true
         You can overwrite this default with %scf ConvForced false 


================================================================================
                                       INPUT FILE
================================================================================
NAME = orca.inp
|  1> ! Engrad def2-TZVPPD wB97M-D3BJ 
|  2> %pal nprocs 8 end%pal nprocs 64 end 
|  3> %tddft 
|  4>  Iroot 1 Nroots 3 
|  5> sf true 
|  6> end 
|  7> *xyz 0 3 
|  8> O   3.41417677 0.84253249 0.09340232
|  9> O   -0.80317511 0.79943049 -2.76114012
| 10> O   1.20796485 -2.93883677 -0.67244184
| 11> O   -3.66701653 -1.44435553 0.04653963
| 12> N   0.24867533 -1.43084987 0.80374297
| 13> N   -2.2361931 0.04329875 0.93891354
| 14> N   1.98379222 -0.84179984 -0.54731484
| 15> N   -2.14861199 -0.35934823 -1.30264368
| 16> C   1.4901721 0.59104988 1.31990124
| 17> C   -0.59258558 1.23481124 -0.46733504
| 18> C   0.26754973 -0.17689477 1.45433691
| 19> C   -0.95447619 0.77786242 0.90831274
| 20> C   1.823527 1.65888079 2.37446197
| 21> C   0.24641165 2.49036966 -0.60017359
| 22> C   2.33317439 0.2368898 0.24907264
| 23> C   -1.10025 0.53942523 -1.59316789
| 24> C   1.12368747 -1.83184575 -0.24764266
| 25> C   -2.72482942 -0.69322479 -0.10265281
| 26> H   -0.09322577 -0.41317452 2.48791864
| 27> H   -1.18147058 1.58550553 1.58836569
| 28> H   1.93802703 1.39371613 3.39864322
| 29> H   2.68977247 2.09740519 2.02678503
| 30> H   0.96816523 2.36522248 2.53519878
| 31> H   -0.12797489 3.16366562 -1.32371756
| 32> H   0.2645861 3.05426873 0.38702355
| 33> H   1.20523867 2.32327207 -0.89106244
| 34> H   -0.56469685 -2.03187216 0.7798702
| 35> H   -2.62312959 -0.11435963 1.84130262
| 36> H   2.70099915 -1.09279297 -1.21462499
| 37> H   -2.51749608 -0.81067428 -2.06792371
| 38> *
| 39> 
| 40>                          ****END OF INPUT****
================================================================================

                     *******************************
                     * Energy+Gradient Calculation *
                     *******************************

---------------------------------
CARTESIAN COORDINATES (ANGSTROEM)
---------------------------------
  O      3.414177    0.842532    0.093402
  O     -0.803175    0.799430   -2.761140
  O      1.207965   -2.938837   -0.672442
  O     -3.667017   -1.444356    0.046540
  N      0.248675   -1.430850    0.803743
  N     -2.236193    0.043299    0.938914
  N      1.983792   -0.841800   -0.547315
  N     -2.148612   -0.359348   -1.302644
  C      1.490172    0.591050    1.319901
  C     -0.592586    1.234811   -0.467335
  C      0.267550   -0.176895    1.454337
  C     -0.954476    0.777862    0.908313
  C      1.823527    1.658881    2.374462
  C      0.246412    2.490370   -0.600174
  C      2.333174    0.236890    0.249073
  C     -1.100250    0.539425   -1.593168
  C      1.123687   -1.831846   -0.247643
  C     -2.724829   -0.693225   -0.102653
  H     -0.093226   -0.413175    2.487919
  H     -1.181471    1.585506    1.588366
  H      1.938027    1.393716    3.398643
  H      2.689772    2.097405    2.026785
  H      0.968165    2.365222    2.535199
  H     -0.127975    3.163666   -1.323718
  H      0.264586    3.054269    0.387024
  H      1.205239    2.323272   -0.891062
  H     -0.564697   -2.031872    0.779870
  H     -2.623130   -0.114360    1.841303
  H      2.700999   -1.092793   -1.214625
  H     -2.517496   -0.810674   -2.067924

----------------------------
CARTESIAN COORDINATES (A.U.)
----------------------------
  NO LB      ZA    FRAG     MASS         X           Y           Z
   0 O     8.0000    0    15.999    6.451859    1.592156    0.176505
   1 O     8.0000    0    15.999   -1.517781    1.510705   -5.217799
   2 O     8.0000    0    15.999    2.282723   -5.553597   -1.270731
   3 O     8.0000    0    15.999   -6.929657   -2.729436    0.087947
   4 N     7.0000    0    14.007    0.469928   -2.703914    1.518854
   5 N     7.0000    0    14.007   -4.225793    0.081823    1.774289
   6 N     7.0000    0    14.007    3.748824   -1.590771   -1.034275
   7 N     7.0000    0    14.007   -4.060288   -0.679070   -2.461640
   8 C     6.0000    0    12.011    2.816017    1.116922    2.494252
   9 C     6.0000    0    12.011   -1.119824    2.333455   -0.883135
  10 C     6.0000    0    12.011    0.505596   -0.334283    2.748298
  11 C     6.0000    0    12.011   -1.803699    1.469947    1.716462
  12 C     6.0000    0    12.011    3.445967    3.134830    4.487083
  13 C     6.0000    0    12.011    0.465651    4.706117   -1.134164
  14 C     6.0000    0    12.011    4.409061    0.447657    0.470679
  15 C     6.0000    0    12.011   -2.079171    1.019366   -3.010651
  16 C     6.0000    0    12.011    2.123462   -3.461687   -0.467977
  17 C     6.0000    0    12.011   -5.149181   -1.310005   -0.193986
  18 H     1.0000    0     1.008   -0.176171   -0.780787    4.701485
  19 H     1.0000    0     1.008   -2.232656    2.996171    3.001576
  20 H     1.0000    0     1.008    3.662340    2.633742    6.422505
  21 H     1.0000    0     1.008    5.082933    3.963521    3.830069
  22 H     1.0000    0     1.008    1.829567    4.469623    4.790831
  23 H     1.0000    0     1.008   -0.241837    5.978462   -2.501464
  24 H     1.0000    0     1.008    0.499995    5.771731    0.731369
  25 H     1.0000    0     1.008    2.277571    4.390348   -1.683864
  26 H     1.0000    0     1.008   -1.067122   -3.839682    1.473741
  27 H     1.0000    0     1.008   -4.956997   -0.216108    3.479558
  28 H     1.0000    0     1.008    5.104149   -2.065079   -2.295309
  29 H     1.0000    0     1.008   -4.757378   -1.531952   -3.907809

--------------------------------
INTERNAL COORDINATES (ANGSTROEM)
--------------------------------
 O      0   0   0     0.000000000000     0.00000000     0.00000000
 O      1   0   0     5.092772054972     0.00000000     0.00000000
 O      1   2   0     4.444394423747    59.01189690     0.00000000
 O      2   1   3     4.595566228553   100.23824893    51.25661378
 N      3   1   2     2.318055751493    62.75495651   286.45952035
 N      4   2   1     2.248711217539    61.50553813    39.20834834
 N      3   1   2     2.239448315982    11.95440968   359.56524370
 N      6   4   2     2.279116892980    61.13658195   357.36239629
 C      1   2   3     2.295503664575    66.70087872   285.73800857
 C      2   1   3     2.344236782548    51.36086452    94.25951651
 C      5   3   1     1.412810005116   149.89622407     3.50730101
 C      6   4   2     1.477605641443   150.76165584   332.17580033
 C      9   1   2     1.537363546779    96.23867393   227.83243494
 C     10   2   1     1.515912061548    96.76520786    63.78326450
 C      1   2   3     1.248840446993    49.37933521   318.27187789
 C      2   1   3     1.232889028075    70.75114953    67.82076046
 C      3   1   2     1.188690934797    35.04254982   303.55170992
 C      4   2   1     1.214154983096    30.60347108    31.75574075
 H     11   5   3     1.119945656829   103.49905765   218.47259154
 H     12   6   4     1.079947156589   100.16104229   161.88844776
 H     13   9   1     1.064128651355   120.69411205   242.41074643
 H     13   9   1     1.031292450423   104.25453477     6.38515035
 H     13   9   1     1.120891905002   111.75249878   131.09740389
 H     14  10   2     1.056886279412   113.05281183    46.45414409
 H     14  10   2     1.137044706687   110.09172826   165.42931606
 H     14  10   2     1.015818478824   114.28392528   287.64691530
 H      5   3   1     1.011618507849    86.05542933   171.48972028
 H      6   4   2     0.994425494334    90.43787544   177.41576849
 H      7   3  17     1.011279470789    88.64859237   182.83044562
 H      8   6   4     0.961989708667   148.27238344     3.92328674

---------------------------
INTERNAL COORDINATES (A.U.)
---------------------------
 O      0   0   0     0.000000000000     0.00000000     0.00000000
 O      1   0   0     9.623944446385     0.00000000     0.00000000
 O      1   2   0     8.398688292008    59.01189690     0.00000000
 O      2   1   3     8.684361602262   100.23824893    51.25661378
 N      3   1   2     4.380490533482    62.75495651   286.45952035
 N      4   2   1     4.249448355426    61.50553813    39.20834834
 N      3   1   2     4.231944008277    11.95440968   359.56524370
 N      6   4   2     4.306906754925    61.13658195   357.36239629
 C      1   2   3     4.337873265459    66.70087872   285.73800857
 C      2   1   3     4.429965512080    51.36086452    94.25951651
 C      5   3   1     2.669823988933   149.89622407     3.50730101
 C      6   4   2     2.792269996264   150.76165584   332.17580033
 C      9   1   2     2.905196071685    96.23867393   227.83243494
 C     10   2   1     2.864658639434    96.76520786    63.78326450
 C      1   2   3     2.359966429780    49.37933521   318.27187789
 C      2   1   3     2.329822616578    70.75114953    67.82076046
 C      3   1   2     2.246300324642    35.04254982   303.55170992
 C      4   2   1     2.294420402187    30.60347108    31.75574075
 H     11   5   3     2.116390576281   103.49905765   218.47259154
 H     12   6   4     2.040804365061   100.16104229   161.88844776
 H     13   9   1     2.010911722320   120.69411205   242.41074643
 H     13   9   1     1.948860295279   104.25453477     6.38515035
 H     13   9   1     2.118178726183   111.75249878   131.09740389
 H     14  10   2     1.997225622787   113.05281183    46.45414409
 H     14  10   2     2.148703097662   110.09172826   165.42931606
 H     14  10   2     1.919618726754   114.28392528   287.64691530
 H      5   3   1     1.911681931840    86.05542933   171.48972028
 H      6   4   2     1.879191844880    90.43787544   177.41576849
 H      7   3  17     1.911041244649    88.64859237   182.83044562
 H      8   6   4     1.817897093031   148.27238344     3.92328674

---------------------
BASIS SET INFORMATION
---------------------
There are 4 groups of distinct atoms

 Group   1 Type O   : 12s7p3d1f contracted to 6s4p3d1f pattern {621111/4111/111/1}
 Group   2 Type N   : 12s6p3d1f contracted to 6s3p3d1f pattern {621111/411/111/1}
 Group   3 Type C   : 12s6p3d1f contracted to 6s3p3d1f pattern {621111/411/111/1}
 Group   4 Type H   : 5s3p1d contracted to 3s3p1d pattern {311/111/1}

Atom   0O    basis set group =>   1
Atom   1O    basis set group =>   1
Atom   2O    basis set group =>   1
Atom   3O    basis set group =>   1
Atom   4N    basis set group =>   2
Atom   5N    basis set group =>   2
Atom   6N    basis set group =>   2
Atom   7N    basis set group =>   2
Atom   8C    basis set group =>   3
Atom   9C    basis set group =>   3
Atom  10C    basis set group =>   3
Atom  11C    basis set group =>   3
Atom  12C    basis set group =>   3
Atom  13C    basis set group =>   3
Atom  14C    basis set group =>   3
Atom  15C    basis set group =>   3
Atom  16C    basis set group =>   3
Atom  17C    basis set group =>   3
Atom  18H    basis set group =>   4
Atom  19H    basis set group =>   4
Atom  20H    basis set group =>   4
Atom  21H    basis set group =>   4
Atom  22H    basis set group =>   4
Atom  23H    basis set group =>   4
Atom  24H    basis set group =>   4
Atom  25H    basis set group =>   4
Atom  26H    basis set group =>   4
Atom  27H    basis set group =>   4
Atom  28H    basis set group =>   4
Atom  29H    basis set group =>   4
---------------------------------
AUXILIARY/J BASIS SET INFORMATION
---------------------------------
There are 4 groups of distinct atoms

 Group   1 Type O   : 12s5p4d2f1g contracted to 6s4p3d1f1g pattern {711111/2111/211/2/1}
 Group   2 Type N   : 12s5p4d2f1g contracted to 6s4p3d1f1g pattern {711111/2111/211/2/1}
 Group   3 Type C   : 12s5p4d2f1g contracted to 6s4p3d1f1g pattern {711111/2111/211/2/1}
 Group   4 Type H   : 5s2p1d contracted to 3s1p1d pattern {311/2/1}

Atom   0O    basis set group =>   1
Atom   1O    basis set group =>   1
Atom   2O    basis set group =>   1
Atom   3O    basis set group =>   1
Atom   4N    basis set group =>   2
Atom   5N    basis set group =>   2
Atom   6N    basis set group =>   2
Atom   7N    basis set group =>   2
Atom   8C    basis set group =>   3
Atom   9C    basis set group =>   3
Atom  10C    basis set group =>   3
Atom  11C    basis set group =>   3
Atom  12C    basis set group =>   3
Atom  13C    basis set group =>   3
Atom  14C    basis set group =>   3
Atom  15C    basis set group =>   3
Atom  16C    basis set group =>   3
Atom  17C    basis set group =>   3
Atom  18H    basis set group =>   4
Atom  19H    basis set group =>   4
Atom  20H    basis set group =>   4
Atom  21H    basis set group =>   4
Atom  22H    basis set group =>   4
Atom  23H    basis set group =>   4
Atom  24H    basis set group =>   4
Atom  25H    basis set group =>   4
Atom  26H    basis set group =>   4
Atom  27H    basis set group =>   4
Atom  28H    basis set group =>   4
Atom  29H    basis set group =>   4
[1741183274.184962] [ohm:89642:0]        ib_iface.c:1059 UCX  ERROR ibv_create_cq(cqe=256) failed: Connection timed out
[1741183274.188715] [ohm:89647:0]        ib_iface.c:1059 UCX  ERROR ibv_create_cq(cqe=256) failed: Connection timed out
[1741183274.216297] [ohm:89648:0]        ib_iface.c:1059 UCX  ERROR ibv_create_cq(cqe=256) failed: Connection timed out
[1741183274.219058] [ohm:89651:0]        ib_iface.c:1059 UCX  ERROR ibv_create_cq(cqe=256) failed: Connection timed out
[1741183274.229980] [ohm:89646:0]        ib_iface.c:1059 UCX  ERROR ibv_create_cq(cqe=256) failed: Connection timed out
[1741183274.233094] [ohm:89652:0]        ib_iface.c:1059 UCX  ERROR ibv_create_cq(cqe=256) failed: Connection timed out
[1741183274.240417] [ohm:89644:0]        ib_iface.c:1059 UCX  ERROR ibv_create_cq(cqe=256) failed: Connection timed out
[1741183274.260253] [ohm:89643:0]        ib_iface.c:1059 UCX  ERROR ibv_create_cq(cqe=256) failed: Connection timed out
[1741183274.315800] [ohm:89663:0]        ib_iface.c:1059 UCX  ERROR ibv_create_cq(cqe=256) failed: Connection timed out
[1741183274.317604] [ohm:89664:0]        ib_iface.c:1059 UCX  ERROR ibv_create_cq(cqe=256) failed: Connection timed out
[1741183274.322836] [ohm:89655:0]        ib_iface.c:1059 UCX  ERROR ibv_create_cq(cqe=256) failed: Connection timed out
[1741183274.344286] [ohm:89674:0]        ib_iface.c:1059 UCX  ERROR ibv_create_cq(cqe=256) failed: Connection timed out
[1741183274.346077] [ohm:89645:0]        ib_iface.c:1059 UCX  ERROR ibv_create_cq(cqe=256) failed: Connection timed out
[1741183274.354005] [ohm:89667:0]        ib_iface.c:1059 UCX  ERROR ibv_create_cq(cqe=256) failed: Connection timed out
[1741183274.375567] [ohm:89725:0]        ib_iface.c:1059 UCX  ERROR ibv_create_cq(cqe=256) failed: Connection timed out
[1741183274.375976] [ohm:89665:0]        ib_iface.c:1059 UCX  ERROR ibv_create_cq(cqe=256) failed: Connection timed out
[1741183274.376718] [ohm:89720:0]        ib_iface.c:1059 UCX  ERROR ibv_create_cq(cqe=256) failed: Connection timed out
[1741183274.380718] [ohm:89668:0]        ib_iface.c:1059 UCX  ERROR ibv_create_cq(cqe=256) failed: Connection timed out
[1741183274.382820] [ohm:89649:0]        ib_iface.c:1059 UCX  ERROR ibv_create_cq(cqe=256) failed: Connection timed out
[1741183274.396528] [ohm:89654:0]        ib_iface.c:1059 UCX  ERROR ibv_create_cq(cqe=256) failed: Connection timed out
[1741183274.403600] [ohm:89778:0]        ib_iface.c:1059 UCX  ERROR ibv_create_cq(cqe=256) failed: Connection timed out
[1741183274.432823] [ohm:89741:0]        ib_iface.c:1059 UCX  ERROR ibv_create_cq(cqe=256) failed: Connection timed out
[1741183274.438725] [ohm:89776:0]        ib_iface.c:1059 UCX  ERROR ibv_create_cq(cqe=256) failed: Connection timed out
[1741183274.439513] [ohm:89666:0]        ib_iface.c:1059 UCX  ERROR ibv_create_cq(cqe=256) failed: Connection timed out
[1741183274.444889] [ohm:89699:0]        ib_iface.c:1059 UCX  ERROR ibv_create_cq(cqe=256) failed: Connection timed out
[1741183274.446582] [ohm:89701:0]        ib_iface.c:1059 UCX  ERROR ibv_create_cq(cqe=256) failed: Connection timed out
[1741183274.447311] [ohm:89730:0]        ib_iface.c:1059 UCX  ERROR ibv_create_cq(cqe=256) failed: Connection timed out
[1741183274.452255] [ohm:89708:0]        ib_iface.c:1059 UCX  ERROR ibv_create_cq(cqe=256) failed: Connection timed out
[1741183274.455666] [ohm:89758:0]        ib_iface.c:1059 UCX  ERROR ibv_create_cq(cqe=256) failed: Connection timed out
[1741183274.467128] [ohm:89746:0]        ib_iface.c:1059 UCX  ERROR ibv_create_cq(cqe=256) failed: Connection timed out
[1741183274.467590] [ohm:89659:0]        ib_iface.c:1059 UCX  ERROR ibv_create_cq(cqe=256) failed: Connection timed out
[1741183274.468777] [ohm:89733:0]        ib_iface.c:1059 UCX  ERROR ibv_create_cq(cqe=256) failed: Connection timed out
[1741183274.469024] [ohm:89650:0]        ib_iface.c:1059 UCX  ERROR ibv_create_cq(cqe=256) failed: Connection timed out
[1741183274.472273] [ohm:89679:0]        ib_iface.c:1059 UCX  ERROR ibv_create_cq(cqe=256) failed: Connection timed out
[1741183274.476103] [ohm:89653:0]        ib_iface.c:1059 UCX  ERROR ibv_create_cq(cqe=256) failed: Connection timed out
[1741183274.477576] [ohm:89771:0]        ib_iface.c:1059 UCX  ERROR ibv_create_cq(cqe=256) failed: Connection timed out
[1741183274.478172] [ohm:89683:0]        ib_iface.c:1059 UCX  ERROR ibv_create_cq(cqe=256) failed: Connection timed out
[1741183274.482504] [ohm:89690:0]        ib_iface.c:1059 UCX  ERROR ibv_create_cq(cqe=256) failed: Connection timed out
[1741183274.485640] [ohm:89657:0]        ib_iface.c:1059 UCX  ERROR ibv_create_cq(cqe=256) failed: Connection timed out
[1741183274.487293] [ohm:89656:0]        ib_iface.c:1059 UCX  ERROR ibv_create_cq(cqe=256) failed: Connection timed out
[1741183274.503953] [ohm:89726:0]        ib_iface.c:1059 UCX  ERROR ibv_create_cq(cqe=256) failed: Connection timed out
[1741183274.506000] [ohm:89765:0]        ib_iface.c:1059 UCX  ERROR ibv_create_cq(cqe=256) failed: Connection timed out
[1741183274.506051] [ohm:89739:0]        ib_iface.c:1059 UCX  ERROR ibv_create_cq(cqe=256) failed: Connection timed out
[1741183274.506256] [ohm:89660:0]        ib_iface.c:1059 UCX  ERROR ibv_create_cq(cqe=256) failed: Connection timed out
[1741183274.516709] [ohm:89774:0]        ib_iface.c:1059 UCX  ERROR ibv_create_cq(cqe=256) failed: Connection timed out
[1741183274.527572] [ohm:89749:0]        ib_iface.c:1059 UCX  ERROR ibv_create_cq(cqe=256) failed: Connection timed out
[1741183274.532693] [ohm:89769:0]        ib_iface.c:1059 UCX  ERROR ibv_create_cq(cqe=256) failed: Connection timed out
[1741183274.533970] [ohm:89696:0]        ib_iface.c:1059 UCX  ERROR ibv_create_cq(cqe=256) failed: Connection timed out
[1741183274.537082] [ohm:89751:0]        ib_iface.c:1059 UCX  ERROR ibv_create_cq(cqe=256) failed: Connection timed out
[1741183274.540492] [ohm:89713:0]        ib_iface.c:1059 UCX  ERROR ibv_create_cq(cqe=256) failed: Connection timed out
[1741183274.541031] [ohm:89735:0]        ib_iface.c:1059 UCX  ERROR ibv_create_cq(cqe=256) failed: Connection timed out
[1741183274.541527] [ohm:89661:0]        ib_iface.c:1059 UCX  ERROR ibv_create_cq(cqe=256) failed: Connection timed out
[1741183274.544140] [ohm:89662:0]        ib_iface.c:1059 UCX  ERROR ibv_create_cq(cqe=256) failed: Connection timed out
[1741183274.546520] [ohm:89786:0]        ib_iface.c:1059 UCX  ERROR ibv_create_cq(cqe=256) failed: Connection timed out
[1741183274.546710] [ohm:89793:0]        ib_iface.c:1059 UCX  ERROR ibv_create_cq(cqe=256) failed: Connection timed out
[1741183274.551746] [ohm:89717:0]        ib_iface.c:1059 UCX  ERROR ibv_create_cq(cqe=256) failed: Connection timed out
[1741183274.554541] [ohm:89704:0]        ib_iface.c:1059 UCX  ERROR ibv_create_cq(cqe=256) failed: Connection timed out
[1741183274.555864] [ohm:89694:0]        ib_iface.c:1059 UCX  ERROR ibv_create_cq(cqe=256) failed: Connection timed out
[1741183274.556507] [ohm:89669:0]        ib_iface.c:1059 UCX  ERROR ibv_create_cq(cqe=256) failed: Connection timed out
[1741183274.557367] [ohm:89754:0]        ib_iface.c:1059 UCX  ERROR ibv_create_cq(cqe=256) failed: Connection timed out
[1741183274.557502] [ohm:89658:0]        ib_iface.c:1059 UCX  ERROR ibv_create_cq(cqe=256) failed: Connection timed out
[1741183274.557599] [ohm:89689:0]        ib_iface.c:1059 UCX  ERROR ibv_create_cq(cqe=256) failed: Connection timed out
[1741183274.557927] [ohm:89800:0]        ib_iface.c:1059 UCX  ERROR ibv_create_cq(cqe=256) failed: Connection timed out
[1741183274.558699] [ohm:89762:0]        ib_iface.c:1059 UCX  ERROR ibv_create_cq(cqe=256) failed: Connection timed out


           ************************************************************
           *        Program running with 64 parallel MPI-processes    *
           *              working on a common directory               *
           ************************************************************
------------------------------------------------------------------------------
                             ORCA STARTUP CALCULATIONS
                           -- RI-GTO INTEGRALS CHOSEN --
------------------------------------------------------------------------------
------------------------------------------------------------------------------
                   ___                                                        
                  /   \      - P O W E R E D   B Y -                         
                 /     \                                                     
                 |  |  |   _    _      __       _____    __    __             
                 |  |  |  | |  | |    /  \     |  _  \  |  |  /  |          
                  \  \/   | |  | |   /    \    | | | |  |  | /  /          
                 / \  \   | |__| |  /  /\  \   | |_| |  |  |/  /          
                |  |  |   |  __  | /  /__\  \  |    /   |      \           
                |  |  |   | |  | | |   __   |  |    \   |  |\   \          
                \     /   | |  | | |  |  |  |  | |\  \  |  | \   \       
                 \___/    |_|  |_| |__|  |__|  |_| \__\ |__|  \__/        
                                                                              
                      - O R C A' S   B I G   F R I E N D -                    
                                      &                                       
                       - I N T E G R A L  F E E D E R -                       
                                                                              
 v1 FN, 2020, v2 2021, v3 2022-2024                                           
------------------------------------------------------------------------------


----------------------
SHARK INTEGRAL PACKAGE
----------------------

Number of atoms                             ...     30
Number of basis functions                   ...    882
Number of shells                            ...    322
Maximum angular momentum                    ...      3
Integral batch strategy                     ... SHARK/LIBINT Hybrid
RI-J (if used) integral strategy            ... SPLIT-RIJ (Revised 2003 algorithm where possible)
Printlevel                                  ...      1
Contraction scheme used                     ... SEGMENTED contraction
Prescreening option                         ... SCHWARTZ
   Thresh                                   ... 2.500e-11
   Tcut                                     ... 2.500e-12
   Tpresel                                  ... 2.500e-12 
Coulomb Range Separation                    ... NOT USED
Exchange Range Separation                   ... Long Range
   Mu parameter                             ... 3.000e-01
   Scaling (regular/separated)              ... 1.500e-01 8.500e-01
Multipole approximations                    ... NOT USED
Finite Nucleus Model                        ... NOT USED
CABS basis                                  ... NOT available
Auxiliary Coulomb fitting basis             ... AVAILABLE
   # of basis functions in Aux-J            ...   1014
   # of shells in Aux-J                     ...    330
   Maximum angular momentum in Aux-J        ...      4
Auxiliary J/K fitting basis                 ... NOT available
Auxiliary Correlation fitting basis         ... NOT available
Auxiliary 'external' fitting basis          ... NOT available

Checking pre-screening integrals            ... done (  0.0 sec) Dimension = 322
Check shell pair data                       ... done (  0.0 sec)
Shell pair information
Shell pair cut-off parameter TPreSel        ...   2.5e-12
Total number of shell pairs                 ...     52003
Shell pairs after pre-screening             ...     44998
Total number of primitive shell pairs       ...    129718
Primitive shell pairs kept                  ...     84142
          la=0 lb=0:   8715 shell pairs
          la=1 lb=0:  11915 shell pairs
          la=1 lb=1:   4115 shell pairs
          la=2 lb=0:   8091 shell pairs
          la=2 lb=1:   5607 shell pairs
          la=2 lb=2:   1929 shell pairs
          la=3 lb=0:   2053 shell pairs
          la=3 lb=1:   1449 shell pairs
          la=3 lb=2:    985 shell pairs
          la=3 lb=3:    139 shell pairs

Calculating one electron integrals          ... done (  0.2 sec)
Calculating RI/J V-Matrix + Cholesky decomp.... done (  0.1 sec)
Calculating Nuclear repulsion               ... done (  0.0 sec) ENN=   1439.368474817772 Eh

Diagonalization of the overlap matrix:
Smallest eigenvalue                        ... 4.473e-07
Time for diagonalization                   ...    0.125 sec
Threshold for overlap eigenvalues          ... 1.000e-07
Number of eigenvalues below threshold      ... 0

IMPORTANT:
Smallest eigenvalue of S below the DiffSThresh (1.000e-06) while
Thresh>1e-12 and/or TCut>1e-13! In order to avoid SCF convergence issues,
Thresh will be set to at least 1e-12 and TCut to at least 1e-13.
This can be turned off by adding %SCF DiffSThresh -1 END to the input.

Time for construction of square roots      ...    0.139 sec
Total time needed                          ...    0.280 sec

-------------------
DFT GRID GENERATION
-------------------

General Integration Accuracy     IntAcc      ... 4.388
Radial Grid Type                 RadialGrid  ... OptM3 with GC (2021)
Angular Grid (max. ang.)         AngularGrid ... 4 (Lebedev-302)
Angular grid pruning method      GridPruning ... 4 (adaptive)
Weight generation scheme         WeightScheme... mBecke (2022)
Basis function cutoff            BFCut       ... 1.0000e-11
Integration weight cutoff        WCut        ... 1.0000e-14
Partially contracted basis set               ... off
Rotationally invariant grid construction     ... off
Angular grids for H and He will be reduced by one unit
Diffuse basis detected: some atoms will have their outermost
                        angular grid increased by 1.

Total number of grid points                  ...   151959
Total number of batches                      ...     2391
Average number of points per batch           ...       63
Average number of grid points per atom       ...     5065

--------------------
COSX GRID GENERATION
--------------------

GRIDX 1
-------
General Integration Accuracy     IntAcc      ... 3.816
Radial Grid Type                 RadialGrid  ... OptM3 with GC (2021)
Angular Grid (max. ang.)         AngularGrid ... 1 (Lebedev-50)
Angular grid pruning method      GridPruning ... 4 (adaptive)
Weight generation scheme         WeightScheme... mBecke (2022)
Basis function cutoff            BFCut       ... 1.0000e-11
Integration weight cutoff        WCut        ... 1.0000e-14
Partially contracted basis set               ... on
Rotationally invariant grid construction     ... off
Angular grids for H and He will be reduced by one unit
Diffuse basis detected: some atoms will have their outermost
                        angular grid increased by 1.

Total number of grid points                  ...    19042
Total number of batches                      ...      167
Average number of points per batch           ...      114
Average number of grid points per atom       ...      635
UseSFitting                                  ... on

GRIDX 2
-------
General Integration Accuracy     IntAcc      ... 4.020
Radial Grid Type                 RadialGrid  ... OptM3 with GC (2021)
Angular Grid (max. ang.)         AngularGrid ... 2 (Lebedev-110)
Angular grid pruning method      GridPruning ... 4 (adaptive)
Weight generation scheme         WeightScheme... mBecke (2022)
Basis function cutoff            BFCut       ... 1.0000e-11
Integration weight cutoff        WCut        ... 1.0000e-14
Partially contracted basis set               ... on
Rotationally invariant grid construction     ... off
Angular grids for H and He will be reduced by one unit
Diffuse basis detected: some atoms will have their outermost
                        angular grid increased by 1.

Total number of grid points                  ...    45837
Total number of batches                      ...      375
Average number of points per batch           ...      122
Average number of grid points per atom       ...     1528
UseSFitting                                  ... on

GRIDX 3
-------
General Integration Accuracy     IntAcc      ... 4.338
Radial Grid Type                 RadialGrid  ... OptM3 with GC (2021)
Angular Grid (max. ang.)         AngularGrid ... 3 (Lebedev-194)
Angular grid pruning method      GridPruning ... 4 (adaptive)
Weight generation scheme         WeightScheme... mBecke (2022)
Basis function cutoff            BFCut       ... 1.0000e-11
Integration weight cutoff        WCut        ... 1.0000e-14
Partially contracted basis set               ... on
Rotationally invariant grid construction     ... off
Angular grids for H and He will be reduced by one unit
Diffuse basis detected: some atoms will have their outermost
                        angular grid increased by 1.

Total number of grid points                  ...   100941
Total number of batches                      ...      805
Average number of points per batch           ...      125
Average number of grid points per atom       ...     3365
UseSFitting                                  ... on
Initializing property integral containers    ... done (  0.0 sec)

SHARK setup successfully completed in   4.2 seconds

Maximum memory used throughout the entire STARTUP-calculation: 80.1 MB
[1741183280.521267] [ohm:89978:0]        ib_iface.c:1059 UCX  ERROR ibv_create_cq(cqe=256) failed: Connection timed out
[1741183280.536774] [ohm:89979:0]        ib_iface.c:1059 UCX  ERROR ibv_create_cq(cqe=256) failed: Connection timed out
[1741183280.548481] [ohm:89986:0]        ib_iface.c:1059 UCX  ERROR ibv_create_cq(cqe=256) failed: Connection timed out
[1741183280.548508] [ohm:89998:0]        ib_iface.c:1059 UCX  ERROR ibv_create_cq(cqe=256) failed: Connection timed out
[1741183280.613481] [ohm:89990:0]        ib_iface.c:1059 UCX  ERROR ibv_create_cq(cqe=256) failed: Connection timed out
[1741183280.614775] [ohm:89989:0]        ib_iface.c:1059 UCX  ERROR ibv_create_cq(cqe=256) failed: Connection timed out
[1741183280.622461] [ohm:89992:0]        ib_iface.c:1059 UCX  ERROR ibv_create_cq(cqe=256) failed: Connection timed out
[1741183280.625624] [ohm:89977:0]        ib_iface.c:1059 UCX  ERROR ibv_create_cq(cqe=256) failed: Connection timed out
[1741183280.626845] [ohm:89988:0]        ib_iface.c:1059 UCX  ERROR ibv_create_cq(cqe=256) failed: Connection timed out
[1741183280.627073] [ohm:89985:0]        ib_iface.c:1059 UCX  ERROR ibv_create_cq(cqe=256) failed: Connection timed out
[1741183280.631670] [ohm:89980:0]        ib_iface.c:1059 UCX  ERROR ibv_create_cq(cqe=256) failed: Connection timed out
[1741183280.643169] [ohm:89984:0]        ib_iface.c:1059 UCX  ERROR ibv_create_cq(cqe=256) failed: Connection timed out
[1741183280.648963] [ohm:90006:0]        ib_iface.c:1059 UCX  ERROR ibv_create_cq(cqe=256) failed: Connection timed out
[1741183280.648965] [ohm:90009:0]        ib_iface.c:1059 UCX  ERROR ibv_create_cq(cqe=256) failed: Connection timed out
[1741183280.650865] [ohm:90008:0]        ib_iface.c:1059 UCX  ERROR ibv_create_cq(cqe=256) failed: Connection timed out
[1741183280.653583] [ohm:89999:0]        ib_iface.c:1059 UCX  ERROR ibv_create_cq(cqe=256) failed: Connection timed out
[1741183280.657552] [ohm:90001:0]        ib_iface.c:1059 UCX  ERROR ibv_create_cq(cqe=256) failed: Connection timed out
[1741183280.668550] [ohm:90019:0]        ib_iface.c:1059 UCX  ERROR ibv_create_cq(cqe=256) failed: Connection timed out
[1741183280.698258] [ohm:90011:0]        ib_iface.c:1059 UCX  ERROR ibv_create_cq(cqe=256) failed: Connection timed out
[1741183280.710673] [ohm:90033:0]        ib_iface.c:1059 UCX  ERROR ibv_create_cq(cqe=256) failed: Connection timed out
[1741183280.737568] [ohm:89981:0]        ib_iface.c:1059 UCX  ERROR ibv_create_cq(cqe=256) failed: Connection timed out
[1741183280.739924] [ohm:89982:0]        ib_iface.c:1059 UCX  ERROR ibv_create_cq(cqe=256) failed: Connection timed out
[1741183280.755891] [ohm:90065:0]        ib_iface.c:1059 UCX  ERROR ibv_create_cq(cqe=256) failed: Connection timed out
[1741183280.756940] [ohm:89995:0]        ib_iface.c:1059 UCX  ERROR ibv_create_cq(cqe=256) failed: Connection timed out
[1741183280.760289] [ohm:90004:0]        ib_iface.c:1059 UCX  ERROR ibv_create_cq(cqe=256) failed: Connection timed out
[1741183280.761148] [ohm:90005:0]        ib_iface.c:1059 UCX  ERROR ibv_create_cq(cqe=256) failed: Connection timed out
[1741183280.767233] [ohm:90102:0]        ib_iface.c:1059 UCX  ERROR ibv_create_cq(cqe=256) failed: Connection timed out
[1741183280.767498] [ohm:90085:0]        ib_iface.c:1059 UCX  ERROR ibv_create_cq(cqe=256) failed: Connection timed out
[1741183280.767870] [ohm:90039:0]        ib_iface.c:1059 UCX  ERROR ibv_create_cq(cqe=256) failed: Connection timed out
[1741183280.782166] [ohm:90052:0]        ib_iface.c:1059 UCX  ERROR ibv_create_cq(cqe=256) failed: Connection timed out
[1741183280.791137] [ohm:90074:0]        ib_iface.c:1059 UCX  ERROR ibv_create_cq(cqe=256) failed: Connection timed out
[1741183280.817766] [ohm:90080:0]        ib_iface.c:1059 UCX  ERROR ibv_create_cq(cqe=256) failed: Connection timed out
[1741183280.822430] [ohm:90105:0]        ib_iface.c:1059 UCX  ERROR ibv_create_cq(cqe=256) failed: Connection timed out
[1741183280.823431] [ohm:90000:0]        ib_iface.c:1059 UCX  ERROR ibv_create_cq(cqe=256) failed: Connection timed out
[1741183280.825832] [ohm:90126:0]        ib_iface.c:1059 UCX  ERROR ibv_create_cq(cqe=256) failed: Connection timed out
[1741183280.829740] [ohm:89997:0]        ib_iface.c:1059 UCX  ERROR ibv_create_cq(cqe=256) failed: Connection timed out
[1741183280.830366] [ohm:90120:0]        ib_iface.c:1059 UCX  ERROR ibv_create_cq(cqe=256) failed: Connection timed out
[1741183280.831811] [ohm:90057:0]        ib_iface.c:1059 UCX  ERROR ibv_create_cq(cqe=256) failed: Connection timed out
[1741183280.833102] [ohm:90100:0]        ib_iface.c:1059 UCX  ERROR ibv_create_cq(cqe=256) failed: Connection timed out
[1741183280.835296] [ohm:90078:0]        ib_iface.c:1059 UCX  ERROR ibv_create_cq(cqe=256) failed: Connection timed out
[1741183280.843136] [ohm:89994:0]        ib_iface.c:1059 UCX  ERROR ibv_create_cq(cqe=256) failed: Connection timed out
[1741183280.844876] [ohm:90072:0]        ib_iface.c:1059 UCX  ERROR ibv_create_cq(cqe=256) failed: Connection timed out
[1741183280.847278] [ohm:90111:0]        ib_iface.c:1059 UCX  ERROR ibv_create_cq(cqe=256) failed: Connection timed out
[1741183280.850829] [ohm:90017:0]        ib_iface.c:1059 UCX  ERROR ibv_create_cq(cqe=256) failed: Connection timed out
[1741183280.850820] [ohm:90064:0]        ib_iface.c:1059 UCX  ERROR ibv_create_cq(cqe=256) failed: Connection timed out
[1741183280.854793] [ohm:89987:0]        ib_iface.c:1059 UCX  ERROR ibv_create_cq(cqe=256) failed: Connection timed out
[1741183280.857293] [ohm:90067:0]        ib_iface.c:1059 UCX  ERROR ibv_create_cq(cqe=256) failed: Connection timed out
[1741183280.859298] [ohm:90048:0]        ib_iface.c:1059 UCX  ERROR ibv_create_cq(cqe=256) failed: Connection timed out
[1741183280.866387] [ohm:90095:0]        ib_iface.c:1059 UCX  ERROR ibv_create_cq(cqe=256) failed: Connection timed out
[1741183280.869038] [ohm:90087:0]        ib_iface.c:1059 UCX  ERROR ibv_create_cq(cqe=256) failed: Connection timed out
[1741183280.871736] [ohm:89993:0]        ib_iface.c:1059 UCX  ERROR ibv_create_cq(cqe=256) failed: Connection timed out
[1741183280.874210] [ohm:90059:0]        ib_iface.c:1059 UCX  ERROR ibv_create_cq(cqe=256) failed: Connection timed out
[1741183280.876958] [ohm:90035:0]        ib_iface.c:1059 UCX  ERROR ibv_create_cq(cqe=256) failed: Connection timed out
[1741183280.877807] [ohm:90038:0]        ib_iface.c:1059 UCX  ERROR ibv_create_cq(cqe=256) failed: Connection timed out
[1741183280.882701] [ohm:90092:0]        ib_iface.c:1059 UCX  ERROR ibv_create_cq(cqe=256) failed: Connection timed out
[1741183280.883520] [ohm:90030:0]        ib_iface.c:1059 UCX  ERROR ibv_create_cq(cqe=256) failed: Connection timed out
[1741183280.883841] [ohm:90025:0]        ib_iface.c:1059 UCX  ERROR ibv_create_cq(cqe=256) failed: Connection timed out
[1741183280.884142] [ohm:90003:0]        ib_iface.c:1059 UCX  ERROR ibv_create_cq(cqe=256) failed: Connection timed out
[1741183280.884993] [ohm:89996:0]        ib_iface.c:1059 UCX  ERROR ibv_create_cq(cqe=256) failed: Connection timed out
[1741183280.894968] [ohm:90108:0]        ib_iface.c:1059 UCX  ERROR ibv_create_cq(cqe=256) failed: Connection timed out
[1741183280.900769] [ohm:89983:0]        ib_iface.c:1059 UCX  ERROR ibv_create_cq(cqe=256) failed: Connection timed out
[1741183280.901983] [ohm:89991:0]        ib_iface.c:1059 UCX  ERROR ibv_create_cq(cqe=256) failed: Connection timed out
[1741183280.902432] [ohm:90046:0]        ib_iface.c:1059 UCX  ERROR ibv_create_cq(cqe=256) failed: Connection timed out
[1741183280.903659] [ohm:90002:0]        ib_iface.c:1059 UCX  ERROR ibv_create_cq(cqe=256) failed: Connection timed out


           ************************************************************
           *        Program running with 64 parallel MPI-processes    *
           *              working on a common directory               *
           ************************************************************
-------------------------------------------------------------------------------
                                 ORCA GUESS
                   Start orbitals & Density for SCF / CASSCF
-------------------------------------------------------------------------------

------------
SCF SETTINGS
------------
Hamiltonian:
 Density Functional     Method          .... DFT(GTOs)
  Functional kind                       .... Exchange-Correlation
  Functional name                       .... wB97M-V exchange-correlation functional
  Functional family                     .... Hybrid MGGA
  Functional refs                              
    [ 0] N. Mardirossian and M. Head-Gordon.,  J. Chem. Phys. 144, 214110 (2016), doi: 10.1063/1.4952647
  Fraction of HF Exchange (short range) .... 0.1500
  Fraction of HF Exchange (long range)  .... 1.0000
  Range separation parameter mu         .... 0.3000
  Functional external parameters        .... 17
    Parameter  0 _cx00      =  8.500000e-01 : u^00 coefficient for exchange
    Parameter  1 _cx01      =  1.007000e+00 : u^01 coefficient for exchange
    Parameter  2 _cx10      =  2.590000e-01 : u^10 coefficient for exchange
    Parameter  3 _css00     =  4.430000e-01 : u^00 coefficient for same-spin correlation
    Parameter  4 _css04     = -1.437000e+00 : u^04 coefficient for same-spin correlation
    Parameter  5 _css10     = -4.535000e+00 : u^10 coefficient for same-spin correlation
    Parameter  6 _css20     = -3.390000e+00 : u^20 coefficient for same-spin correlation
    Parameter  7 _css43     =  4.278000e+00 : u^43 coefficient for same-spin correlation
    Parameter  8 _cos00     =  1.000000e+00 : u^00 coefficient for opposite-spin correlation
    Parameter  9 _cos10     =  1.358000e+00 : u^10 coefficient for opposite-spin correlation
    Parameter 10 _cos20     =  2.924000e+00 : u^20 coefficient for opposite-spin correlation
    Parameter 11 _cos21     = -8.812000e+00 : u^21 coefficient for opposite-spin correlation
    Parameter 12 _cos60     = -1.390000e+00 : u^60 coefficient for opposite-spin correlation
    Parameter 13 _cos61     =  9.142000e+00 : u^61 coefficient for opposite-spin correlation
    Parameter 14 _alpha     =  1.000000e+00 : fraction of HF exchange
    Parameter 15 _beta      = -8.500000e-01 : fraction of short-range exchange
    Parameter 16 _omega     =  3.000000e-01 : range-separation constant
 Long-range corrected/Screened/Range-Separated Hybrid DFT is turned on
   Amount of maximum screened exact exchange              ....  0.850000
   Range separation parameter mu (erf(mu*r12)/r12)        ....  0.300000
 RI-approximation to the Coulomb term is turned on
   Number of AuxJ basis functions       .... 1014
   RIJ-COSX (HFX calculated with COS-X)).... on


General Settings:
 Integral files         IntName         .... orca
 Hartree-Fock type      HFTyp           .... UHF
 Total Charge           Charge          ....    0
 Multiplicity           Mult            ....    3
 Number of Electrons    NEL             ....  132
 Basis Dimension        Dim             ....  882
 Nuclear Repulsion      ENuc            ....   1439.3684748178 Eh

Convergence Acceleration:
 AO-DIIS                CNVDIIS         .... on
   Start iteration      DIISMaxIt       ....    12
   Startup error        DIISStart       ....  0.200000
   # of expansion vecs  DIISMaxEq       ....     5
   Bias factor          DIISBfac        ....   1.050
   Max. coefficient     DIISMaxC        ....  10.000
 MO-DIIS                CNVKDIIS        .... off
 Trust-Rad. Augm. Hess. CNVTRAH         .... auto
   Auto Start mean grad. ratio tolernc. ....  1.125000
   Auto Start start iteration           ....    50
   Auto Start num. interpolation iter.  ....    10
   Max. Number of Micro iterations      ....    24
   Max. Number of Macro iterations      .... Maxiter - #DIIS iter
   Number of Davidson start vectors     ....     2
   Converg. threshold    (grad. norm)   ....   1.000e-05
   Grad. Scal. Fac. for Micro threshold ....   0.100
   Minimum threshold for Micro iter.    ....   1.000e-02
   NR start threshold (gradient norm)   ....   1.000e-04
   Initial trust radius                 ....   0.400
   Minimum AH scaling param. (alpha)    ....   1.000
   Maximum AH scaling param. (alpha)    .... 1000.000
   Quad. conv. algorithm                .... NR
   White noise on init. David. guess    .... on
   Maximum white noise                  ....   0.010
   Pseudo random numbers                .... off
   Inactive MOs                         .... canonical
   Orbital update algorithm             .... Taylor
   Preconditioner                       .... Diag
   Full preconditioner red. dimension   ....   250
 SOSCF                  CNVSOSCF        .... on
   Start iteration      SOSCFMaxIt      ....   150
   Startup grad/error   SOSCFStart      ....  0.003300
   Hessian update       SOSCFHessUp     .... L-BFGS
 Level Shifting         CNVShift        .... on
   Level shift para.    LevelShift      ....    0.2500
   Turn off err/grad.   ShiftErr        ....    0.0010
 Zerner damping         CNVZerner       .... off
 Static damping         CNVDamp         .... on
   Fraction old density DampFac         ....    0.7000
   Max. Damping (<1)    DampMax         ....    0.9800
   Min. Damping (>=0)   DampMin         ....    0.0000
   Turn off err/grad.   DampErr         ....    0.1000

SCF Procedure:
 Maximum # iterations   MaxIter         ....   125
 SCF integral mode      SCFMode         .... Direct
   Integral package                     .... SHARK and LIBINT hybrid scheme
 Reset frequency        DirectResetFreq ....    20
 Integral Threshold     Thresh          ....  1.000e-12 Eh
 Primitive CutOff       TCut            ....  1.000e-13 Eh

Convergence Tolerance:
 Convergence Check Mode ConvCheckMode   .... Total+1el-Energy
 Convergence forced     ConvForced      .... 1
 Energy Change          TolE            ....  1.000e-08 Eh
 1-El. energy change                    ....  1.000e-05 Eh
 Orbital Gradient       TolG            ....  1.000e-05
 Orbital Rotation angle TolX            ....  1.000e-05
 DIIS Error             TolErr          ....  5.000e-07

------------------------------
INITIAL GUESS: MODEL POTENTIAL
------------------------------
Loading Hartree-Fock densities                     ... done
Calculating cut-offs                               ... done
Initializing the effective Hamiltonian             ... done
Setting up the integral package (SHARK)            ... done
Starting the Coulomb interaction                   ... done (   0.1 sec)
Making the grid                                    ... done (   0.2 sec)
Mapping shells                                     ... done
Starting the XC term evaluation                    ... done (   0.1 sec)
  promolecular density results
     # of electrons  =    131.998125563
     EX              =   -113.590768590
     EC              =     -4.500318964
     EX+EC           =   -118.091087554
Transforming the Hamiltonian                       ... done (   0.1 sec)
Diagonalizing the Hamiltonian                      ... done (   0.1 sec)
Back transforming the eigenvectors                 ... done (   0.1 sec)
Now organizing SCF variables                       ... done
                      ------------------
                      INITIAL GUESS DONE (   1.1 sec)
                      ------------------
             **** ENERGY FILE WAS UPDATED (orca.en.tmp) ****
Finished Guess after   3.5 sec
Maximum memory used throughout the entire GUESS-calculation: 72.5 MB
[1741183284.681978] [ohm:90312:0]        ib_iface.c:1059 UCX  ERROR ibv_create_cq(cqe=256) failed: Connection timed out
[1741183284.688399] [ohm:90313:0]        ib_iface.c:1059 UCX  ERROR ibv_create_cq(cqe=256) failed: Connection timed out
[1741183284.726906] [ohm:90308:0]        ib_iface.c:1059 UCX  ERROR ibv_create_cq(cqe=256) failed: Connection timed out
[1741183284.727261] [ohm:90307:0]        ib_iface.c:1059 UCX  ERROR ibv_create_cq(cqe=256) failed: Connection timed out
[1741183284.735678] [ohm:90306:0]        ib_iface.c:1059 UCX  ERROR ibv_create_cq(cqe=256) failed: Connection timed out
[1741183284.736251] [ohm:90319:0]        ib_iface.c:1059 UCX  ERROR ibv_create_cq(cqe=256) failed: Connection timed out
[1741183284.740217] [ohm:90322:0]        ib_iface.c:1059 UCX  ERROR ibv_create_cq(cqe=256) failed: Connection timed out
[1741183284.744807] [ohm:90310:0]        ib_iface.c:1059 UCX  ERROR ibv_create_cq(cqe=256) failed: Connection timed out
[1741183284.762643] [ohm:90309:0]        ib_iface.c:1059 UCX  ERROR ibv_create_cq(cqe=256) failed: Connection timed out
[1741183284.769965] [ohm:90356:0]        ib_iface.c:1059 UCX  ERROR ibv_create_cq(cqe=256) failed: Connection timed out
[1741183284.806296] [ohm:90416:0]        ib_iface.c:1059 UCX  ERROR ibv_create_cq(cqe=256) failed: Connection timed out
[1741183284.806561] [ohm:90338:0]        ib_iface.c:1059 UCX  ERROR ibv_create_cq(cqe=256) failed: Connection timed out
[1741183284.807187] [ohm:90334:0]        ib_iface.c:1059 UCX  ERROR ibv_create_cq(cqe=256) failed: Connection timed out
[1741183284.808335] [ohm:90366:0]        ib_iface.c:1059 UCX  ERROR ibv_create_cq(cqe=256) failed: Connection timed out
[1741183284.808711] [ohm:90409:0]        ib_iface.c:1059 UCX  ERROR ibv_create_cq(cqe=256) failed: Connection timed out
[1741183284.822966] [ohm:90363:0]        ib_iface.c:1059 UCX  ERROR ibv_create_cq(cqe=256) failed: Connection timed out
[1741183284.824230] [ohm:90354:0]        ib_iface.c:1059 UCX  ERROR ibv_create_cq(cqe=256) failed: Connection timed out
[1741183284.836892] [ohm:90317:0]        ib_iface.c:1059 UCX  ERROR ibv_create_cq(cqe=256) failed: Connection timed out
[1741183284.843707] [ohm:90320:0]        ib_iface.c:1059 UCX  ERROR ibv_create_cq(cqe=256) failed: Connection timed out
[1741183284.878479] [ohm:90326:0]        ib_iface.c:1059 UCX  ERROR ibv_create_cq(cqe=256) failed: Connection timed out
[1741183284.884041] [ohm:90428:0]        ib_iface.c:1059 UCX  ERROR ibv_create_cq(cqe=256) failed: Connection timed out
[1741183284.888901] [ohm:90327:0]        ib_iface.c:1059 UCX  ERROR ibv_create_cq(cqe=256) failed: Connection timed out
[1741183284.896328] [ohm:90417:0]        ib_iface.c:1059 UCX  ERROR ibv_create_cq(cqe=256) failed: Connection timed out
[1741183284.901348] [ohm:90311:0]        ib_iface.c:1059 UCX  ERROR ibv_create_cq(cqe=256) failed: Connection timed out
[1741183284.904586] [ohm:90420:0]        ib_iface.c:1059 UCX  ERROR ibv_create_cq(cqe=256) failed: Connection timed out
[1741183284.912490] [ohm:90323:0]        ib_iface.c:1059 UCX  ERROR ibv_create_cq(cqe=256) failed: Connection timed out
[1741183284.920387] [ohm:90398:0]        ib_iface.c:1059 UCX  ERROR ibv_create_cq(cqe=256) failed: Connection timed out
[1741183284.924595] [ohm:90372:0]        ib_iface.c:1059 UCX  ERROR ibv_create_cq(cqe=256) failed: Connection timed out
[1741183284.926478] [ohm:90330:0]        ib_iface.c:1059 UCX  ERROR ibv_create_cq(cqe=256) failed: Connection timed out
[1741183284.927129] [ohm:90331:0]        ib_iface.c:1059 UCX  ERROR ibv_create_cq(cqe=256) failed: Connection timed out
[1741183284.933188] [ohm:90424:0]        ib_iface.c:1059 UCX  ERROR ibv_create_cq(cqe=256) failed: Connection timed out
[1741183284.960191] [ohm:90321:0]        ib_iface.c:1059 UCX  ERROR ibv_create_cq(cqe=256) failed: Connection timed out
[1741183284.970680] [ohm:90333:0]        ib_iface.c:1059 UCX  ERROR ibv_create_cq(cqe=256) failed: Connection timed out
[1741183284.971556] [ohm:90332:0]        ib_iface.c:1059 UCX  ERROR ibv_create_cq(cqe=256) failed: Connection timed out
[1741183284.971719] [ohm:90395:0]        ib_iface.c:1059 UCX  ERROR ibv_create_cq(cqe=256) failed: Connection timed out
[1741183284.978260] [ohm:90335:0]        ib_iface.c:1059 UCX  ERROR ibv_create_cq(cqe=256) failed: Connection timed out
[1741183284.979477] [ohm:90324:0]        ib_iface.c:1059 UCX  ERROR ibv_create_cq(cqe=256) failed: Connection timed out
[1741183284.990672] [ohm:90328:0]        ib_iface.c:1059 UCX  ERROR ibv_create_cq(cqe=256) failed: Connection timed out
[1741183285.003012] [ohm:90358:0]        ib_iface.c:1059 UCX  ERROR ibv_create_cq(cqe=256) failed: Connection timed out
[1741183285.004122] [ohm:90380:0]        ib_iface.c:1059 UCX  ERROR ibv_create_cq(cqe=256) failed: Connection timed out
[1741183285.004303] [ohm:90347:0]        ib_iface.c:1059 UCX  ERROR ibv_create_cq(cqe=256) failed: Connection timed out
[1741183285.005503] [ohm:90403:0]        ib_iface.c:1059 UCX  ERROR ibv_create_cq(cqe=256) failed: Connection timed out
[1741183285.010170] [ohm:90316:0]        ib_iface.c:1059 UCX  ERROR ibv_create_cq(cqe=256) failed: Connection timed out
[1741183285.014157] [ohm:90393:0]        ib_iface.c:1059 UCX  ERROR ibv_create_cq(cqe=256) failed: Connection timed out
[1741183285.015290] [ohm:90402:0]        ib_iface.c:1059 UCX  ERROR ibv_create_cq(cqe=256) failed: Connection timed out
[1741183285.022788] [ohm:90315:0]        ib_iface.c:1059 UCX  ERROR ibv_create_cq(cqe=256) failed: Connection timed out
[1741183285.032231] [ohm:90450:0]        ib_iface.c:1059 UCX  ERROR ibv_create_cq(cqe=256) failed: Connection timed out
[1741183285.032784] [ohm:90314:0]        ib_iface.c:1059 UCX  ERROR ibv_create_cq(cqe=256) failed: Connection timed out
[1741183285.034108] [ohm:90441:0]        ib_iface.c:1059 UCX  ERROR ibv_create_cq(cqe=256) failed: Connection timed out
[1741183285.034460] [ohm:90345:0]        ib_iface.c:1059 UCX  ERROR ibv_create_cq(cqe=256) failed: Connection timed out
[1741183285.035436] [ohm:90383:0]        ib_iface.c:1059 UCX  ERROR ibv_create_cq(cqe=256) failed: Connection timed out
[1741183285.036083] [ohm:90438:0]        ib_iface.c:1059 UCX  ERROR ibv_create_cq(cqe=256) failed: Connection timed out
[1741183285.036699] [ohm:90444:0]        ib_iface.c:1059 UCX  ERROR ibv_create_cq(cqe=256) failed: Connection timed out
[1741183285.037441] [ohm:90425:0]        ib_iface.c:1059 UCX  ERROR ibv_create_cq(cqe=256) failed: Connection timed out
[1741183285.038380] [ohm:90432:0]        ib_iface.c:1059 UCX  ERROR ibv_create_cq(cqe=256) failed: Connection timed out
[1741183285.041901] [ohm:90329:0]        ib_iface.c:1059 UCX  ERROR ibv_create_cq(cqe=256) failed: Connection timed out
[1741183285.041977] [ohm:90325:0]        ib_iface.c:1059 UCX  ERROR ibv_create_cq(cqe=256) failed: Connection timed out
[1741183285.042757] [ohm:90446:0]        ib_iface.c:1059 UCX  ERROR ibv_create_cq(cqe=256) failed: Connection timed out
[1741183285.043966] [ohm:90388:0]        ib_iface.c:1059 UCX  ERROR ibv_create_cq(cqe=256) failed: Connection timed out
[1741183285.044035] [ohm:90392:0]        ib_iface.c:1059 UCX  ERROR ibv_create_cq(cqe=256) failed: Connection timed out
[1741183285.044140] [ohm:90318:0]        ib_iface.c:1059 UCX  ERROR ibv_create_cq(cqe=256) failed: Connection timed out
[1741183285.044881] [ohm:90370:0]        ib_iface.c:1059 UCX  ERROR ibv_create_cq(cqe=256) failed: Connection timed out
[1741183285.045137] [ohm:90341:0]        ib_iface.c:1059 UCX  ERROR ibv_create_cq(cqe=256) failed: Connection timed out
[1741183285.052824] [ohm:90434:0]        ib_iface.c:1059 UCX  ERROR ibv_create_cq(cqe=256) failed: Connection timed out


           ************************************************************
           *        Program running with 64 parallel MPI-processes    *
           *              working on a common directory               *
           ************************************************************

-------------------------------------------------------------------------------------------
                                      ORCA LEAN-SCF
                              memory conserving SCF solver
-------------------------------------------------------------------------------------------

----------------------------------------D-I-I-S--------------------------------------------
Iteration    Energy (Eh)           Delta-E    RMSDP     MaxDP     DIISErr   Damp  Time(sec)
-------------------------------------------------------------------------------------------
               ***  Starting incremental Fock matrix formation  ***
    1    -908.1055521374860291     0.00e+00  1.77e-03  3.06e-01  1.46e-01  0.700   7.8
    2    -908.3735235870831275    -2.68e-01  1.42e-03  2.03e-01  6.90e-02  0.700   6.5
                               ***Turning on AO-DIIS***
    3    -908.4916811177722593    -1.18e-01  9.98e-04  1.45e-01  2.81e-02  0.700   5.7
    4    -908.5645178887189104    -7.28e-02  2.34e-03  3.23e-01  1.73e-02  0.000   5.6
    5    -908.7285220004300754    -1.64e-01  2.77e-04  5.24e-02  3.87e-03  0.000   5.8
                              *** Initializing SOSCF ***
---------------------------------------S-O-S-C-F--------------------------------------
Iteration    Energy (Eh)           Delta-E    RMSDP     MaxDP     MaxGrad    Time(sec)
--------------------------------------------------------------------------------------
    6    -908.7300467220316023    -1.52e-03  1.39e-04  3.45e-02  2.27e-03     6.4
               *** Restarting incremental Fock matrix formation ***
    7    -908.7307944826420680    -7.48e-04  4.03e-04  5.76e-02  7.32e-03     7.3
    8    -908.7313644684913925    -5.70e-04  3.77e-04  9.30e-02  4.09e-03     6.5
    9    -908.7316149762909845    -2.51e-04  2.57e-04  3.40e-02  1.29e-03     6.6
   10    -908.7317176562360146    -1.03e-04  4.39e-05  1.08e-02  7.63e-04     6.4
   11    -908.7317378401930910    -2.02e-05  1.70e-05  2.48e-03  1.81e-04     6.2
   12    -908.7317413281007248    -3.49e-06  9.00e-06  1.81e-03  2.16e-04     6.1
   13    -908.7317433000066558    -1.97e-06  8.86e-06  1.35e-03  7.86e-05     6.0
   14    -908.7317437113429150    -4.11e-07  2.58e-06  5.54e-04  2.87e-05     5.9
   15    -908.7317437638484989    -5.25e-08  2.12e-06  4.12e-04  1.74e-05     5.7
   16    -908.7317438201052937    -5.63e-08  1.45e-06  2.84e-04  6.80e-06     5.6
   17    -908.7317438777158713    -5.76e-08  1.48e-06  4.11e-04  3.34e-06     5.4
   18    -908.7317438501149809     2.76e-08  2.00e-06  6.42e-04  1.37e-06     5.3
                  *** Gradient check signals convergence ***

               *****************************************************
               *                     SUCCESS                       *
               *           SCF CONVERGED AFTER  18 CYCLES          *
               *****************************************************

Recomputing exchange energy using gridx3       ... done (    7.820 sec)
Old exchange energy                            :    -35.052869676 Eh
New exchange energy                            :    -35.052853290 Eh
Exchange energy change after final integration :      0.000016386 Eh
Total energy after final integration           :   -908.731727464 Eh
             **** ENERGY FILE WAS UPDATED (orca.en.tmp) ****

----------------
TOTAL SCF ENERGY
----------------

Total Energy       :       -908.73172746378896 Eh          -24727.84744 eV

Components:
Nuclear Repulsion  :       1439.36847481777249 Eh           39167.20742 eV
Electronic Energy  :      -2348.10021866788748 Eh          -63895.05531 eV
One Electron Energy:      -4095.24194530028490 Eh         -111437.19869 eV
Two Electron Energy:       1747.14172663239742 Eh           47542.14338 eV

Virial components:
Potential Energy   :      -1814.81560059975686 Eh          -49383.64311 eV
Kinetic Energy     :        906.08387313596791 Eh           24655.79566 eV
Virial Ratio       :          2.00292230598770

DFT components:
N(Alpha)           :       66.999790070671 electrons
N(Beta)            :       64.999777920679 electrons
N(Total)           :      131.999567991350 electrons
E(XC)              :      -86.325620679251 Eh       

---------------
SCF CONVERGENCE
---------------

  Last Energy change         ...   -2.7601e-08  Tolerance :   1.0000e-08
  Last MAX-Density change    ...    6.4240e-04  Tolerance :   1.0000e-07
  Last RMS-Density change    ...    1.9954e-06  Tolerance :   5.0000e-09
  Last DIIS Error            ...    2.2653e-03  Tolerance :   5.0000e-07
  Last Orbital Gradient      ...    1.3713e-06  Tolerance :   1.0000e-05
  Last Orbital Rotation      ...    7.5051e-06  Tolerance :   1.0000e-05


----------------------
UHF SPIN CONTAMINATION
----------------------

Warning: in a DFT calculation there is little theoretical justification to 
         calculate <S**2> as in Hartree-Fock theory. We will do it anyways
         but you should keep in mind that the values have only limited relevance

Expectation value of <S**2>     :     2.017953
Ideal value S*(S+1) for S=1.0   :     2.000000
Deviation                       :     0.017953

----------------
ORBITAL ENERGIES
----------------
                 SPIN UP ORBITALS
  NO   OCC          E(Eh)            E(eV) 
   0   1.0000     -19.341129      -526.2989 
   1   1.0000     -19.339273      -526.2484 
   2   1.0000     -19.329905      -525.9934 
   3   1.0000     -19.320618      -525.7407 
   4   1.0000     -14.570124      -396.4732 
   5   1.0000     -14.561668      -396.2431 
   6   1.0000     -14.559849      -396.1936 
   7   1.0000     -14.556174      -396.0936 
   8   1.0000     -10.507868      -285.9336 
   9   1.0000     -10.506264      -285.8900 
  10   1.0000     -10.487958      -285.3918 
  11   1.0000     -10.485646      -285.3289 
  12   1.0000     -10.447904      -284.3019 
  13   1.0000     -10.447754      -284.2978 
  14   1.0000     -10.426484      -283.7191 
  15   1.0000     -10.423387      -283.6348 
  16   1.0000     -10.379694      -282.4458 
  17   1.0000     -10.369734      -282.1748 
  18   1.0000      -1.233167       -33.5562 
  19   1.0000      -1.219064       -33.1724 
  20   1.0000      -1.196338       -32.5540 
  21   1.0000      -1.193826       -32.4857 
  22   1.0000      -1.124105       -30.5884 
  23   1.0000      -1.104836       -30.0641 
  24   1.0000      -1.074068       -29.2269 
  25   1.0000      -1.058306       -28.7980 
  26   1.0000      -0.988181       -26.8898 
  27   1.0000      -0.957561       -26.0566 
  28   1.0000      -0.885517       -24.0961 
  29   1.0000      -0.857670       -23.3384 
  30   1.0000      -0.841997       -22.9119 
  31   1.0000      -0.809566       -22.0294 
  32   1.0000      -0.796544       -21.6751 
  33   1.0000      -0.792189       -21.5566 
  34   1.0000      -0.705914       -19.2089 
  35   1.0000      -0.704548       -19.1717 
  36   1.0000      -0.697524       -18.9806 
  37   1.0000      -0.681275       -18.5384 
  38   1.0000      -0.658604       -17.9215 
  39   1.0000      -0.634679       -17.2705 
  40   1.0000      -0.621450       -16.9105 
  41   1.0000      -0.603481       -16.4216 
  42   1.0000      -0.602020       -16.3818 
  43   1.0000      -0.591742       -16.1021 
  44   1.0000      -0.580818       -15.8049 
  45   1.0000      -0.574674       -15.6377 
  46   1.0000      -0.573290       -15.6000 
  47   1.0000      -0.568698       -15.4751 
  48   1.0000      -0.565834       -15.3971 
  49   1.0000      -0.557024       -15.1574 
  50   1.0000      -0.553480       -15.0610 
  51   1.0000      -0.543874       -14.7996 
  52   1.0000      -0.533881       -14.5276 
  53   1.0000      -0.524026       -14.2595 
  54   1.0000      -0.517088       -14.0707 
  55   1.0000      -0.509291       -13.8585 
  56   1.0000      -0.498723       -13.5710 
  57   1.0000      -0.428389       -11.6571 
  58   1.0000      -0.420088       -11.4312 
  59   1.0000      -0.414429       -11.2772 
  60   1.0000      -0.410721       -11.1763 
  61   1.0000      -0.404589       -11.0094 
  62   1.0000      -0.401344       -10.9211 
  63   1.0000      -0.396918       -10.8007 
  64   1.0000      -0.386981       -10.5303 
  65   1.0000      -0.353526        -9.6199 
  66   1.0000      -0.327220        -8.9041 
  67   0.0000       0.006536         0.1779 
  68   0.0000       0.030053         0.8178 
  69   0.0000       0.032397         0.8816 
  70   0.0000       0.033959         0.9241 
  71   0.0000       0.052848         1.4381 
  72   0.0000       0.055336         1.5058 
  73   0.0000       0.061052         1.6613 
  74   0.0000       0.061821         1.6822 
  75   0.0000       0.063779         1.7355 
  76   0.0000       0.064137         1.7452 
  77   0.0000       0.068296         1.8584 

                 SPIN DOWN ORBITALS
  NO   OCC          E(Eh)            E(eV) 
   0   1.0000     -19.335233      -526.1384 
   1   1.0000     -19.334205      -526.1105 
   2   1.0000     -19.329924      -525.9940 
   3   1.0000     -19.320436      -525.7358 
   4   1.0000     -14.569481      -396.4557 
   5   1.0000     -14.561032      -396.2258 
   6   1.0000     -14.559509      -396.1844 
   7   1.0000     -14.556076      -396.0910 
   8   1.0000     -10.507921      -285.9351 
   9   1.0000     -10.506321      -285.8915 
  10   1.0000     -10.489092      -285.4227 
  11   1.0000     -10.486730      -285.3584 
  12   1.0000     -10.447421      -284.2888 
  13   1.0000     -10.446738      -284.2702 
  14   1.0000     -10.415848      -283.4296 
  15   1.0000     -10.412346      -283.3343 
  16   1.0000     -10.380306      -282.4625 
  17   1.0000     -10.370154      -282.1862 
  18   1.0000      -1.232299       -33.5326 
  19   1.0000      -1.217419       -33.1277 
  20   1.0000      -1.189077       -32.3564 
  21   1.0000      -1.187623       -32.3169 
  22   1.0000      -1.120758       -30.4974 
  23   1.0000      -1.102184       -29.9919 
  24   1.0000      -1.071643       -29.1609 
  25   1.0000      -1.056695       -28.7541 
  26   1.0000      -0.974258       -26.5109 
  27   1.0000      -0.940213       -25.5845 
  28   1.0000      -0.880659       -23.9639 
  29   1.0000      -0.852852       -23.2073 
  30   1.0000      -0.833424       -22.6786 
  31   1.0000      -0.805168       -21.9097 
  32   1.0000      -0.794865       -21.6294 
  33   1.0000      -0.790228       -21.5032 
  34   1.0000      -0.700147       -19.0520 
  35   1.0000      -0.698843       -19.0165 
  36   1.0000      -0.691114       -18.8062 
  37   1.0000      -0.674613       -18.3572 
  38   1.0000      -0.645817       -17.5736 
  39   1.0000      -0.630552       -17.1582 
  40   1.0000      -0.617513       -16.8034 
  41   1.0000      -0.597957       -16.2712 
  42   1.0000      -0.596473       -16.2309 
  43   1.0000      -0.586963       -15.9721 
  44   1.0000      -0.576548       -15.6887 
  45   1.0000      -0.568568       -15.4715 
  46   1.0000      -0.563299       -15.3281 
  47   1.0000      -0.562120       -15.2961 
  48   1.0000      -0.557235       -15.1631 
  49   1.0000      -0.551091       -14.9960 
  50   1.0000      -0.542732       -14.7685 
  51   1.0000      -0.535229       -14.5643 
  52   1.0000      -0.527549       -14.3553 
  53   1.0000      -0.512704       -13.9514 
  54   1.0000      -0.506692       -13.7878 
  55   1.0000      -0.503735       -13.7073 
  56   1.0000      -0.493026       -13.4159 
  57   1.0000      -0.422161       -11.4876 
  58   1.0000      -0.415665       -11.3108 
  59   1.0000      -0.404931       -11.0187 
  60   1.0000      -0.397993       -10.8299 
  61   1.0000      -0.395527       -10.7628 
  62   1.0000      -0.392800       -10.6886 
  63   1.0000      -0.390892       -10.6367 
  64   1.0000      -0.369917       -10.0660 
  65   0.0000      -0.072707        -1.9785 
  66   0.0000      -0.061398        -1.6707 
  67   0.0000       0.006105         0.1661 
  68   0.0000       0.029919         0.8141 
  69   0.0000       0.032393         0.8815 
  70   0.0000       0.033845         0.9210 
  71   0.0000       0.053517         1.4563 
  72   0.0000       0.056403         1.5348 
  73   0.0000       0.061506         1.6737 
  74   0.0000       0.063298         1.7224 
  75   0.0000       0.064120         1.7448 
*Only the first 10 virtual orbitals were printed.

                    ********************************
                    * MULLIKEN POPULATION ANALYSIS *
                    ********************************

--------------------------------------------
MULLIKEN ATOMIC CHARGES AND SPIN POPULATIONS
--------------------------------------------
   0 O :   -0.689705    0.216226
   1 O :   -0.664975    0.189007
   2 O :   -0.615241   -0.001087
   3 O :   -0.655326    0.006593
   4 N :   -0.224514    0.027432
   5 N :   -0.257961    0.026292
   6 N :    0.036779    0.030624
   7 N :    0.091884    0.024743
   8 C :   -0.112817    0.379878
   9 C :    0.064848    0.376933
  10 C :    0.441871    0.141902
  11 C :    0.590672    0.196669
  12 C :   -1.398961    0.009781
  13 C :   -1.500033    0.030132
  14 C :    0.572818    0.144364
  15 C :    0.329159    0.124741
  16 C :    0.408755   -0.013857
  17 C :    0.503316   -0.002916
  18 H :    0.476579    0.006198
  19 H :    0.542017    0.029506
  20 H :    0.304477    0.012840
  21 H :    0.339796    0.001217
  22 H :    0.305915    0.012081
  23 H :    0.395192    0.024179
  24 H :    0.315429    0.001726
  25 H :    0.296238    0.004373
  26 H :    0.071630    0.001744
  27 H :    0.029199   -0.001840
  28 H :    0.065345    0.001567
  29 H :   -0.062384   -0.001046
Sum of atomic charges         :    0.0000000
Sum of atomic spin populations:    2.0000000

-----------------------------------------------------
MULLIKEN REDUCED ORBITAL CHARGES AND SPIN POPULATIONS
-----------------------------------------------------
CHARGE
  0 O s       :     4.114091  s :     4.114091
      pz      :     1.675489  p :     4.547645
      px      :     1.324219
      py      :     1.547938
      dz2     :     0.001788  d :     0.026195
      dxz     :     0.005407
      dyz     :     0.002954
      dx2y2   :     0.008138
      dxy     :     0.007909
      f0      :     0.000195  f :     0.001774
      f+1     :     0.000238
      f-1     :     0.000097
      f+2     :     0.000090
      f-2     :     0.000249
      f+3     :     0.000486
      f-3     :     0.000419

  1 O s       :     4.099588  s :     4.099588
      pz      :     1.343453  p :     4.534034
      px      :     1.602230
      py      :     1.588351
      dz2     :     0.007954  d :     0.029518
[...]
[1741183574.336126] [ohm:91511:0]        ib_iface.c:1059 UCX  ERROR ibv_create_cq(cqe=256) failed: Connection timed out
[1741183574.338245] [ohm:91514:0]        ib_iface.c:1059 UCX  ERROR ibv_create_cq(cqe=256) failed: Connection timed out
[1741183574.339187] [ohm:91504:0]        ib_iface.c:1059 UCX  ERROR ibv_create_cq(cqe=256) failed: Connection timed out
[1741183574.339772] [ohm:91435:0]        ib_iface.c:1059 UCX  ERROR ibv_create_cq(cqe=256) failed: Connection timed out
[1741183574.343792] [ohm:91420:0]        ib_iface.c:1059 UCX  ERROR ibv_create_cq(cqe=256) failed: Connection timed out
[1741183574.348031] [ohm:91425:0]        ib_iface.c:1059 UCX  ERROR ibv_create_cq(cqe=256) failed: Connection timed out
[1741183574.348098] [ohm:91415:0]        ib_iface.c:1059 UCX  ERROR ibv_create_cq(cqe=256) failed: Connection timed out
[1741183574.348512] [ohm:91488:0]        ib_iface.c:1059 UCX  ERROR ibv_create_cq(cqe=256) failed: Connection timed out
[1741183574.349343] [ohm:91537:0]        ib_iface.c:1059 UCX  ERROR ibv_create_cq(cqe=256) failed: Connection timed out
[1741183574.349832] [ohm:91527:0]        ib_iface.c:1059 UCX  ERROR ibv_create_cq(cqe=256) failed: Connection timed out
[1741183574.350054] [ohm:91518:0]        ib_iface.c:1059 UCX  ERROR ibv_create_cq(cqe=256) failed: Connection timed out


           ************************************************************
           *        Program running with 64 parallel MPI-processes    *
           *              working on a common directory               *
           ************************************************************

------------------------------------------------------------------------------
                              ORCA PROPERTY CALCULATIONS
------------------------------------------------------------------------------

GBWName                                 ... orca.gbw
Number of atoms                         ...     30
Number of basis functions               ...    882
Max core memory                         ...   1024 MB

Electric properties:
Dipole moment                           ... YES
Quadrupole moment                       ...  NO
Static polarizability (Dipole/Dipole)   ...  NO
Static polarizability (Dipole/Quad.)    ...  NO
Static polarizability (Quad./Quad.)     ...  NO
Static polarizability (Velocity)        ...  NO

Atomic electric properties:
Dipole moment                           ...  NO
Quadrupole moment                       ...  NO
Static polarizability                   ...  NO

Choice of electric origin               ... Center of mass
Position of electric origin             ...    -0.015487    -0.078843    -0.037432

General magnetic properties:
Magnetizability                         ...  NO

EPR properties:
g-Tensor (aka g-matrix)                 ...  NO
Zero-Field splitting spin-orbit         ...  NO
Zero-field splitting spin-spin          ...  NO
Hyperfine couplings                     ...  NO (   0 nuclei)
Quadrupole couplings                    ...  NO (   0 nuclei)
Contact density                         ...  NO (   0 nuclei)

NMR properties:
Chemical shifts                         ...  NO (   0 nuclei)
Spin-rotation constants                 ...  NO (   0 nuclei)
Spin-spin couplings                     ...  NO (   0 nuclei,    0 pairs)

Choice of magnetic origin               ... GIAO
Position of magnetic origin             ...     0.000000     0.000000     0.000000

Properties with geometric perturbations:
SCF Hessian                             ...  NO
IR spectrum                             ...  NO
VCD spectrum                            ...  NO
X-ray spectroscopy properties:
SCF XES/XAS/RIXS spectra                ...  NO


-------------
DIPOLE MOMENT
-------------

Method             : SCF
Type of density    : Electron Density
Multiplicity       :   3
Irrep              :   0
Energy             :  -908.7317274637889568 Eh
Relativity type    : 
Basis              : AO
                                X                 Y                 Z
Electronic contribution:     -2.689573152      -9.639046988      -6.980622063
Nuclear contribution   :      2.577741271      11.226264215       9.132807781
                        -----------------------------------------
Total Dipole Moment    :     -0.111831881       1.587217227       2.152185718
                        -----------------------------------------
Magnitude (a.u.)       :      2.676502991
Magnitude (Debye)      :      6.803129949



--------------------
Rotational spectrum 
--------------------
 
Rotational constants in cm-1:             0.020968             0.012678             0.011792 
Rotational constants in MHz :           628.615238           380.068825           353.513743 

Dipole components along the rotational axes: 
x,y,z [a.u.] :     0.670108    -1.871787     1.791936 
x,y,z [Debye]:     1.703279    -4.757705     4.554740 

 

-------------
DIPOLE MOMENT
-------------

Method             : TDA/CIS
Type of density    : Electron Density
Level              : Relaxed density
State              :   1
Multiplicity       :   3
Irrep              :   0
Energy             :     0.0000000000000000 Eh
Relativity type    : 
Basis              : AO
                                X                 Y                 Z
Electronic contribution:     -2.893475487      -9.663466147      -6.899448734
Nuclear contribution   :      2.577741271      11.226264215       9.132807781
                        -----------------------------------------
Total Dipole Moment    :     -0.315734216       1.562798069       2.233359047
                        -----------------------------------------
Magnitude (a.u.)       :      2.744069702
Magnitude (Debye)      :      6.974870882



--------------------
Rotational spectrum 
--------------------
 
Rotational constants in cm-1:             0.020968             0.012678             0.011792 
Rotational constants in MHz :           628.615238           380.068825           353.513743 

Dipole components along the rotational axes: 
x,y,z [a.u.] :     0.488538    -1.905769     1.912928 
x,y,z [Debye]:     1.241764    -4.844080     4.862277 

 

Dipole moment calculation done in   0.2 sec 

Maximum memory used throughout the entire PROP-calculation: 81.6 MB
[1741183576.769276] [ohm:91735:0]        ib_iface.c:1059 UCX  ERROR ibv_create_cq(cqe=256) failed: Connection timed out
[1741183576.772657] [ohm:91741:0]        ib_iface.c:1059 UCX  ERROR ibv_create_cq(cqe=256) failed: Connection timed out
[1741183576.777322] [ohm:91733:0]        ib_iface.c:1059 UCX  ERROR ibv_create_cq(cqe=256) failed: Connection timed out
[1741183576.788304] [ohm:91738:0]        ib_iface.c:1059 UCX  ERROR ibv_create_cq(cqe=256) failed: Connection timed out
[1741183576.797014] [ohm:91779:0]        ib_iface.c:1059 UCX  ERROR ibv_create_cq(cqe=256) failed: Connection timed out
[1741183576.797116] [ohm:91732:0]        ib_iface.c:1059 UCX  ERROR ibv_create_cq(cqe=256) failed: Connection timed out
[1741183576.800244] [ohm:91734:0]        ib_iface.c:1059 UCX  ERROR ibv_create_cq(cqe=256) failed: Connection timed out
[1741183576.804231] [ohm:91859:0]        ib_iface.c:1059 UCX  ERROR ibv_create_cq(cqe=256) failed: Connection timed out
[1741183576.842142] [ohm:91807:0]        ib_iface.c:1059 UCX  ERROR ibv_create_cq(cqe=256) failed: Connection timed out
[1741183576.842928] [ohm:91853:0]        ib_iface.c:1059 UCX  ERROR ibv_create_cq(cqe=256) failed: Connection timed out
[1741183576.851176] [ohm:91856:0]        ib_iface.c:1059 UCX  ERROR ibv_create_cq(cqe=256) failed: Connection timed out
[1741183576.856579] [ohm:91869:0]        ib_iface.c:1059 UCX  ERROR ibv_create_cq(cqe=256) failed: Connection timed out
[1741183576.863702] [ohm:91810:0]        ib_iface.c:1059 UCX  ERROR ibv_create_cq(cqe=256) failed: Connection timed out
[1741183576.870813] [ohm:91837:0]        ib_iface.c:1059 UCX  ERROR ibv_create_cq(cqe=256) failed: Connection timed out
[1741183576.879697] [ohm:91742:0]        ib_iface.c:1059 UCX  ERROR ibv_create_cq(cqe=256) failed: Connection timed out
[1741183576.882043] [ohm:91781:0]        ib_iface.c:1059 UCX  ERROR ibv_create_cq(cqe=256) failed: Connection timed out
[1741183576.884616] [ohm:91775:0]        ib_iface.c:1059 UCX  ERROR ibv_create_cq(cqe=256) failed: Connection timed out
[1741183576.890826] [ohm:91736:0]        ib_iface.c:1059 UCX  ERROR ibv_create_cq(cqe=256) failed: Connection timed out
[1741183576.896317] [ohm:91750:0]        ib_iface.c:1059 UCX  ERROR ibv_create_cq(cqe=256) failed: Connection timed out
[1741183576.899898] [ohm:91762:0]        ib_iface.c:1059 UCX  ERROR ibv_create_cq(cqe=256) failed: Connection timed out
[1741183576.942700] [ohm:91821:0]        ib_iface.c:1059 UCX  ERROR ibv_create_cq(cqe=256) failed: Connection timed out
[1741183576.953372] [ohm:91863:0]        ib_iface.c:1059 UCX  ERROR ibv_create_cq(cqe=256) failed: Connection timed out
[1741183576.956940] [ohm:91745:0]        ib_iface.c:1059 UCX  ERROR ibv_create_cq(cqe=256) failed: Connection timed out
[1741183576.965421] [ohm:91816:0]        ib_iface.c:1059 UCX  ERROR ibv_create_cq(cqe=256) failed: Connection timed out
[1741183576.970689] [ohm:91793:0]        ib_iface.c:1059 UCX  ERROR ibv_create_cq(cqe=256) failed: Connection timed out
[1741183576.976721] [ohm:91753:0]        ib_iface.c:1059 UCX  ERROR ibv_create_cq(cqe=256) failed: Connection timed out
[1741183577.019593] [ohm:91755:0]        ib_iface.c:1059 UCX  ERROR ibv_create_cq(cqe=256) failed: Connection timed out
[1741183577.021858] [ohm:91739:0]        ib_iface.c:1059 UCX  ERROR ibv_create_cq(cqe=256) failed: Connection timed out
[1741183577.024627] [ohm:91803:0]        ib_iface.c:1059 UCX  ERROR ibv_create_cq(cqe=256) failed: Connection timed out
[1741183577.025357] [ohm:91785:0]        ib_iface.c:1059 UCX  ERROR ibv_create_cq(cqe=256) failed: Connection timed out
[1741183577.025434] [ohm:91737:0]        ib_iface.c:1059 UCX  ERROR ibv_create_cq(cqe=256) failed: Connection timed out
[1741183577.026592] [ohm:91740:0]        ib_iface.c:1059 UCX  ERROR ibv_create_cq(cqe=256) failed: Connection timed out
[1741183577.033349] [ohm:91812:0]        ib_iface.c:1059 UCX  ERROR ibv_create_cq(cqe=256) failed: Connection timed out
[1741183577.033555] [ohm:91832:0]        ib_iface.c:1059 UCX  ERROR ibv_create_cq(cqe=256) failed: Connection timed out
[1741183577.049000] [ohm:91744:0]        ib_iface.c:1059 UCX  ERROR ibv_create_cq(cqe=256) failed: Connection timed out
[1741183577.050672] [ohm:91770:0]        ib_iface.c:1059 UCX  ERROR ibv_create_cq(cqe=256) failed: Connection timed out
[1741183577.052618] [ohm:91786:0]        ib_iface.c:1059 UCX  ERROR ibv_create_cq(cqe=256) failed: Connection timed out
[1741183577.054037] [ohm:91758:0]        ib_iface.c:1059 UCX  ERROR ibv_create_cq(cqe=256) failed: Connection timed out
[1741183577.054034] [ohm:91760:0]        ib_iface.c:1059 UCX  ERROR ibv_create_cq(cqe=256) failed: Connection timed out
[1741183577.057088] [ohm:91756:0]        ib_iface.c:1059 UCX  ERROR ibv_create_cq(cqe=256) failed: Connection timed out
[1741183577.059021] [ohm:91746:0]        ib_iface.c:1059 UCX  ERROR ibv_create_cq(cqe=256) failed: Connection timed out
[1741183577.060612] [ohm:91752:0]        ib_iface.c:1059 UCX  ERROR ibv_create_cq(cqe=256) failed: Connection timed out
[1741183577.063602] [ohm:91754:0]        ib_iface.c:1059 UCX  ERROR ibv_create_cq(cqe=256) failed: Connection timed out
[1741183577.073189] [ohm:91748:0]        ib_iface.c:1059 UCX  ERROR ibv_create_cq(cqe=256) failed: Connection timed out
[1741183577.079093] [ohm:91819:0]        ib_iface.c:1059 UCX  ERROR ibv_create_cq(cqe=256) failed: Connection timed out
[1741183577.080278] [ohm:91751:0]        ib_iface.c:1059 UCX  ERROR ibv_create_cq(cqe=256) failed: Connection timed out
[1741183577.080352] [ohm:91749:0]        ib_iface.c:1059 UCX  ERROR ibv_create_cq(cqe=256) failed: Connection timed out
[1741183577.082961] [ohm:91766:0]        ib_iface.c:1059 UCX  ERROR ibv_create_cq(cqe=256) failed: Connection timed out
[1741183577.085540] [ohm:91759:0]        ib_iface.c:1059 UCX  ERROR ibv_create_cq(cqe=256) failed: Connection timed out
[1741183577.085529] [ohm:91866:0]        ib_iface.c:1059 UCX  ERROR ibv_create_cq(cqe=256) failed: Connection timed out
[1741183577.087996] [ohm:91815:0]        ib_iface.c:1059 UCX  ERROR ibv_create_cq(cqe=256) failed: Connection timed out
[1741183577.089739] [ohm:91871:0]        ib_iface.c:1059 UCX  ERROR ibv_create_cq(cqe=256) failed: Connection timed out
[1741183577.093061] [ohm:91877:0]        ib_iface.c:1059 UCX  ERROR ibv_create_cq(cqe=256) failed: Connection timed out
[1741183577.095589] [ohm:91791:0]        ib_iface.c:1059 UCX  ERROR ibv_create_cq(cqe=256) failed: Connection timed out
[1741183577.095871] [ohm:91747:0]        ib_iface.c:1059 UCX  ERROR ibv_create_cq(cqe=256) failed: Connection timed out
[1741183577.100589] [ohm:91841:0]        ib_iface.c:1059 UCX  ERROR ibv_create_cq(cqe=256) failed: Connection timed out
[1741183577.102555] [ohm:91743:0]        ib_iface.c:1059 UCX  ERROR ibv_create_cq(cqe=256) failed: Connection timed out
[1741183577.103077] [ohm:91845:0]        ib_iface.c:1059 UCX  ERROR ibv_create_cq(cqe=256) failed: Connection timed out
[1741183577.107353] [ohm:91860:0]        ib_iface.c:1059 UCX  ERROR ibv_create_cq(cqe=256) failed: Connection timed out
[1741183577.109874] [ohm:91757:0]        ib_iface.c:1059 UCX  ERROR ibv_create_cq(cqe=256) failed: Connection timed out
[1741183577.111935] [ohm:91798:0]        ib_iface.c:1059 UCX  ERROR ibv_create_cq(cqe=256) failed: Connection timed out
[1741183577.113632] [ohm:91852:0]        ib_iface.c:1059 UCX  ERROR ibv_create_cq(cqe=256) failed: Connection timed out
[1741183577.118270] [ohm:91827:0]        ib_iface.c:1059 UCX  ERROR ibv_create_cq(cqe=256) failed: Connection timed out
[1741183577.118748] [ohm:91848:0]        ib_iface.c:1059 UCX  ERROR ibv_create_cq(cqe=256) failed: Connection timed out

--------------------------------
SUGGESTED CITATIONS FOR THIS RUN
--------------------------------

Below you find a list of papers that are relevant to this ORCA run
We neither can nor want to force you to cite these papers, but we appreciate if you do
You receive ORCA, which is the product of decades of hard work by many enthusiastic individuals, for free
The only thing we kindly ask in return is that you cite our papers,
We deeply appreciate it, if you show your appreciation for ORCA by not just citing the generic ORCA reference.

Please note that relegating all ORCA citations to the supporting information does *not* help us.
SI sections are not indexed - citations you put there will not count into any citation statistics
But we need these citations in order to attract the funding resources that allow us to do what we are doing

Therefore, if you are a happy ORCA user, please consider citing a few of the papers listed below in the main body of your paper

In addition to the list printed below, the program has created the file orca.bibtex that contains the list in bibtex format
You can import this file easily into all common literature databanks and citation aid programs


List of essential papers. We consider these as the minimum necessary citations

  1. Neese,F.
     Software update: the ORCA program system, version 5.0
     WIRES Comput. Molec. Sci., 2022 12(1)e1606
     doi.org/10.1002/wcms.1606

List of papers to cite with high priority. The work reported in these papers was absolutely
necessary for this run to complete.
Our perspective: the developers of density functionals and basis sets usually get cited in chemistry papers
Good! But without the algorithms to do something with them, the functionals or basis sets would not do anything.
Hence, in our opinion, the algorithm design and method developments papers are equally worthy of getting cited

  1. Neese,F.; Olbrich,G.
     Efficient use of the resolution of the identity approximation in time-dependent density functional calculations with hybrid density functionals
     Chem. Phys. Lett., 2002 362 170-178
     doi.org/10.1016/s0009-2614(02)01053-9
  2. Neese,F.
     An improvement of the resolution of the identity approximation for the formation of the Coulomb matrix
     J. Comp. Chem., 2003 24(14)1740-1747
     doi.org/10.1002/jcc.10318
  3. Neese,F.; Wennmohs,F.; Hansen,A.; Becker,U.
     Efficient, approximate and parallel Hartree-Fock and hybrid DFT calculations. A 'chain-of-spheres' algorithm for the Hartree-Fock exchange
     Chem. Phys., 2009 356(1-3)98-109
     doi.org/10.1016/j.chemphys.2008.10.036
  4. Petrenko,T.; Kossmann,S.; Neese,F.
     Efficient time-dependent density functional theory approximations for hybrid density functionals: Analytical gradients and parallelization
     J. Chem. Phys., 2011 134 054116
     doi.org/10.1063/1.3533441
  5. Helmich-Paris,B.; de Souza,B.; Neese,F.; Izsák,R.
     An improved chain of spheres for exchange algorithm
     J. Chem. Phys., 2021 155 104109
     doi.org/doi: 10.1063/5.0058766.
  6. Neese,F.
     The SHARK Integral Generation and Digestion System
     J. Comp. Chem., 2022  1-16
     doi.org/10.1002/jcc.26942
  7. Lehtola,S.; Steigemann,C.; Oliveira,M.; Marques,M.
     Recent developments in Libxc - A comprehensive library of functionals for density functional theory
     Software X, 2018 7 
     doi.org/10.1016/j.softx.2017.11.002
  8. Grimme,S.; Antony,J.; Ehrlich,S.; Krieg,H.
     A consistent and accurate ab initio parametrization of density functional dispersion correction (DFT-D) for the 94 elements H-Pu
     J. Chem. Phys., 2010 132 154104-XXXX
     doi.org/10.1063/1.3382344
  9. Grimme,S.; Ehrlich,S.; Goerigk,L.
     Effect of the damping function in dispersion corrected density functional theory
     J. Comput. Chem., 2011 32(7)1456-1465
     doi.org/10.1002/jcc.21759

List of suggested additional citations. These are papers that are important in the 'surrounding' of 
of this run, or papers that preceded the highly important papers. If you like your results we are grateful for a citation.

  1. Izsak,R.; Neese,F.
     An overlap fitted chain of spheres exchange method
     J. Chem. Phys., 2011 135 144105
     doi.org/10.1063/1.3646921
  2. Izsak,R.; Hansen,A.; Neese,F.
     The resolution of identity and chain of spheres approximations for the LPNO-CCSD singles Fock term
     Molec. Phys., 2012 110 2413-2417
     doi.org/10.1080/00268976.2012.687466
  3. Neese,F.
     The ORCA program system
     WIRES Comput. Molec. Sci., 2012 2(1)73-78
     doi.org/10.1002/wcms.81
  4. Izsak,R.; Neese,F.; Klopper,W.
     Robust fitting techniques in the chain of spheres approximation to the Fock exchange: The role of the complementary space
     J. Chem. Phys., 2013 139 
     doi.org/10.1063/1.4819264
  5. Neese,F.
     Software update: the ORCA program system, version 4.0
     WIRES Comput. Molec. Sci., 2018 8(1)1-6
     doi.org/10.1002/wcms.1327
  6. Neese,F.; Wennmohs,F.; Becker,U.; Riplinger,C.
     The ORCA quantum chemistry program package
     J. Chem. Phys., 2020 152 Art. No. L224108
     doi.org/10.1063/5.0004608

List of optional additional citations

  1. Neese,F.
     Approximate second-order SCF convergence for spin unrestricted wavefunctions
     Chem. Phys. Lett., 2000 325(1-3)93-98
     doi.org/10.1016/s0009-2614(00)00662-x

Timings for individual modules:

Sum of individual times          ...      302.511 sec (=   5.042 min)
Startup calculation              ...        6.338 sec (=   0.106 min)   2.1 %
SCF iterations                   ...      128.333 sec (=   2.139 min)  42.4 %
Property integrals               ...        4.260 sec (=   0.071 min)   1.4 %
Property calculations            ...        2.948 sec (=   0.049 min)   1.0 %
CIS module                       ...      160.632 sec (=   2.677 min)  53.1 %
                             ****ORCA TERMINATED NORMALLY****
TOTAL RUN TIME: 0 days 0 hours 5 minutes 4 seconds 585 msec
