7
Properties=species:S:1:pos:R:3:momenta:R:3:forces:R:3 Coordinates=T from=T ORCA-job=T orca=T E=T -153.876068333117=T energy=-4182.945767453417 free_energy=-4182.945767453417 stress="-2.548566953762404e-07 5.2711776549167786e-06 -5.487354189428773e-06 5.2711776549167786e-06 2.681246813419422e-05 1.1880597241634622e-06 -5.487354189428773e-06 1.1880597241634622e-06 -1.4050631053791391e-06" pbc="F F F"
O        0.44559883       1.31965713       0.00172126       3.01305580       1.41342971      -0.44641504      -0.57753000      -2.59123979      -0.07817190
C        0.41954825      -0.29170894      -0.02277354      -2.67706054       1.59038849       0.02400220      -0.28541450      -0.22942640      -1.46661844
C       -0.85029190      -1.20047109       0.02450141       0.19384770      -1.72978927       0.40655549      -0.31579215       2.95762916      -0.74288332
H        0.89120937      -0.58946511       0.86172968      -0.36015040       0.09757538      -0.11378793       1.33054868       0.35202453       1.08765905
H        1.04304011      -0.56921778      -0.91134178      -0.15751384       0.15144713       0.01137209      -0.49690194       0.60237770       0.83308722
H       -1.44708018      -1.24873289      -0.88389945       0.08520607      -0.76364653      -0.01751543       0.34964910      -0.48300853       0.10544386
H       -1.46496165      -0.94647406       0.87542052      -0.09738481      -0.75940492       0.13578862      -0.00455919      -0.60835667       0.26148353
