30
Properties=species:S:1:pos:R:3:momenta:R:3:forces:R:3 Coordinates=T from=T ORCA-job=T orca=T E=T -908.770417928441=T energy=-24729.118000983937 free_energy=-24729.118000983937 stress="3.98863410866829e-06 8.07301746674233e-08 -1.7465991791879911e-06 8.07301746674233e-08 2.1660405680038114e-07 2.3252714139946136e-07 -1.7465991791879911e-06 2.3252714139946136e-07 1.424526218281063e-06" pbc="F F F"
O        3.20367070       0.39413202      -0.91503961       0.24489004      -0.05653724      -0.04444781      -0.34293692       0.00300540       0.37980173
O       -0.64275586       1.53594249      -2.31016284      -0.12001035       0.06553901      -0.05174623      -0.07047006      -0.06827220       0.29984415
O        0.40934181      -3.08527786      -0.35054718      -0.04868650      -0.35876527       0.15544138       0.04456819       0.24389838       0.03639425
O       -3.00951747      -1.77720217      -0.41520551      -0.16958936      -0.18031085       0.22926345      -0.06330097      -0.06413248      -0.06772736
N        0.33596101      -1.43804757       1.21158367      -0.08388503       0.06464934      -0.11499779       0.08339736       0.15907746      -0.25431181
N       -2.14965066      -0.18762261       0.96244538       0.48977875      -0.47943035      -0.24029245       0.23186740      -0.17806076       0.09874570
N        1.54886954      -1.15747960      -0.76510883      -0.05177478       0.08564090       0.02321495       0.14589457       0.12712341       0.07289246
N       -1.48550987      -0.29337797      -1.25750363       0.12579941       0.01452824      -0.33392877      -0.29905278      -0.33530485       0.19848414
C        1.74496489       0.50196293       0.96162948      -1.18669646      -0.07537743       0.37334933      -1.77304526      -0.04007431       0.16568081
C       -0.86401006       1.61663070       0.04806946       0.06908367      -0.10725252       0.09006128      -0.61507749      -0.19981562       0.13114994
C        0.39432328      -0.03459079       1.55253453       0.69756067       0.23228234      -0.30312699       1.01729212      -0.19692936      -0.57186114
C       -1.06688521       0.72165966       1.22493854       0.70524420       0.19124917      -0.48855935       1.09993229       0.41323168      -0.37349099
C        2.48247313       1.57620135       1.64842735      -0.23254535       0.13852265       0.08105881       0.29150803      -0.03528680      -0.00473721
C       -0.68984821       3.07308404       0.19808026      -0.07580362       0.08722442       0.28140456       0.08759785      -0.04502550      -0.10038646
C        2.24428454      -0.04599928      -0.28921657      -0.05747685       0.13292713       0.39848724       0.11994484      -0.07616835      -0.03318278
C       -0.97231179       0.99890639      -1.25775533      -0.25223259      -0.07659288       0.34694896       0.12719211       0.36165672      -0.37201701
C        0.72786820      -1.96908501       0.00668895      -0.07624523      -0.05786918       0.27042061      -0.03770902      -0.29732769      -0.06687088
C       -2.27659914      -0.83562111      -0.24567491       0.01855450      -0.01430739      -0.44551255       0.07931627       0.09930151       0.13433488
H        0.51195742       0.04013916       2.62236626       0.04688200       0.08993912      -0.08691421      -0.06420640       0.02313969       0.29509702
H       -1.32205070       1.30319075       2.11112286       0.01717724      -0.02014566       0.00755661       0.12464549      -0.03685734      -0.09869909
H        3.47712773       1.73416712       1.19738886      -0.01693138       0.00690795      -0.00110210      -0.48531663      -0.07144685       0.15883195
H        1.92416888       2.51249992       1.61980587      -0.01221294      -0.00002101       0.07259096       0.04910508       0.08905562      -0.08104132
H        2.58258578       1.34309358       2.71270360      -0.02612278      -0.01588428      -0.02694217       0.07891513      -0.02284641      -0.04289386
H       -1.56783115       3.54269177       0.65584395       0.02122235       0.12270275      -0.07278545      -0.03627904      -0.15408757       0.00316423
H        0.14096639       3.29496509       0.85606716      -0.03926158       0.05895755       0.01351087       0.15686179       0.12880206       0.08933528
H       -0.52285343       3.53538343      -0.76501937       0.03321956       0.00463984      -0.05325272       0.09329050       0.03909086      -0.10798011
H       -0.30875752      -2.02946322       1.69458865      -0.06206216       0.10907300      -0.05769112      -0.15751977      -0.07874071       0.06140144
H       -2.70837339      -0.57251024       1.71144595       0.00685104       0.04395006       0.01691583       0.19546090       0.05560628      -0.14506125
H        1.91421188      -1.56016674      -1.62173463       0.02351772       0.04102380      -0.01419452      -0.15858186       0.01575442       0.21720910
H       -1.59609858      -0.76434845      -2.14289059       0.01175580      -0.04726319      -0.02473061       0.07670629       0.14163330      -0.02210583
