
                                 *****************
                                 * O   R   C   A *
                                 *****************

                                            #,                                       
                                            ###                                      
                                            ####                                     
                                            #####                                    
                                            ######                                   
                                           ########,                                 
                                     ,,################,,,,,                         
                               ,,#################################,,                 
                          ,,##########################################,,             
                       ,#########################################, ''#####,          
                    ,#############################################,,   '####,        
                  ,##################################################,,,,####,       
                ,###########''''           ''''###############################       
              ,#####''   ,,,,##########,,,,          '''####'''          '####       
            ,##' ,,,,###########################,,,                        '##       
           ' ,,###''''                  '''############,,,                           
         ,,##''                                '''############,,,,        ,,,,,,###''
      ,#''                                            '''#######################'''  
     '                                                          ''''####''''         
             ,#######,   #######,   ,#######,      ##                                
            ,#'     '#,  ##    ##  ,#'     '#,    #''#        ,####,   ,####,        
            ##       ##  ##   ,#'  ##            #'  '#       #'       #'  '#        
            ##       ##  #######   ##           ,######,      #####,   #    #        
            '#,     ,#'  ##    ##  '#,     ,#' ,#      #,     #,   #   #,  ,#        
             '#######'   ##     ##  '#######'  #'      '#     '####' # '####'        



                #########################################################
                #                        -***-                          #
                #          Department of theory and spectroscopy        #
                #                                                       #
                #                      Frank Neese                      #
                #                                                       #
                #     Directorship, Architecture, Infrastructure        #
                #                    SHARK, DRIVERS                     #
                #        Core code/Algorithms in most modules           #
                #                                                       #
                #        Max Planck Institute fuer Kohlenforschung      #
                #                Kaiser Wilhelm Platz 1                 #
                #                 D-45470 Muelheim/Ruhr                 #
                #                      Germany                          #
                #                                                       #
                #                  All rights reserved                  #
                #                        -***-                          #
                #########################################################


                         Program Version 6.0.0  -   RELEASE  -


 With contributions from (in alphabetic order):
   Daniel Aravena         : Magnetic Suceptibility
   Michael Atanasov       : Ab Initio Ligand Field Theory (pilot matlab implementation)
   Alexander A. Auer      : GIAO ZORA, VPT2 properties, NMR spectrum
   Ute Becker             : All parallelization in ORCA, NUMFREQ, NUMCALC
   Giovanni Bistoni       : ED, misc. LED, open-shell LED, HFLD
   Martin Brehm           : Molecular dynamics
   Dmytro Bykov           : pre 5.0 version of the SCF Hessian
   Marcos Casanova-Páez   : Triplet and SCS-CIS(D). UHF-(DLPNO)-IP/EA/STEOM-CCSD. UHF-CVS-IP/STEOM-CCSD
   Vijay G. Chilkuri      : MRCI spin determinant printing, contributions to CSF-ICE
   Pauline Colinet        : FMM embedding
   Dipayan Datta          : RHF DLPNO-CCSD density
   Achintya Kumar Dutta   : EOM-CC, STEOM-CC
   Nicolas Foglia         : Exact transition moments, OPA infrastructure, MCD improvements
   Dmitry Ganyushin       : Spin-Orbit,Spin-Spin,Magnetic field MRCI
   Miquel Garcia          : C-PCM and meta-GGA Hessian, CCSD/C-PCM, Gaussian charge scheme
   Tiago L. C. Gouveia    : GS-ROHF, GS-ROCIS
   Yang Guo               : DLPNO-NEVPT2, F12-NEVPT2, CIM, IAO-localization
   Andreas Hansen         : Spin unrestricted coupled pair/coupled cluster methods
   Ingolf Harden          : AUTO-CI MPn and infrastructure 
   Benjamin Helmich-Paris : MC-RPA, TRAH-(SCF,CASSCF), AVAS, COSX integrals, SCF dyn. polar.
   Lee Huntington         : MR-EOM, pCC
   Robert Izsak           : Overlap fitted RIJCOSX, COSX-SCS-MP3, EOM
   Riya Kayal             : Wick's Theorem for AUTO-CI, AUTO-CI UHF-CCSDT
   Emily Kempfer          : AUTO-CI, RHF CISDT and CCSDT
   Christian Kollmar      : KDIIS, OOCD, Brueckner-CCSD(T), CCSD density, CASPT2, CASPT2-K, improved NEVPT2
   Axel Koslowski         : Symmetry handling
   Simone Kossmann        : Meta GGA functionals, TD-DFT gradient, OOMP2, (MP2 Hessian; deprecated post 5.0)
   Lucas Lang             : DCDCAS
   Marvin Lechner         : AUTO-CI (C++ implementation), FIC-MRCC
   Spencer Leger          : CASSCF response
   Dagmar Lenk            : GEPOL surface, SMD, ORCA-2-JSON
   Dimitrios Liakos       : Extrapolation schemes; Compound Job, initial MDCI parallelization
   Dimitrios Manganas     : Further ROCIS development; embedding schemes. LFT, Crystal Embedding
   Dimitrios Pantazis     : SARC Basis sets
   Anastasios Papadopoulos: AUTO-CI, single reference methods and gradients
   Taras Petrenko         : pre 6.0 DFT Hessian and TD-DFT gradient, (ASA, deprecated), ECA, 1-Electron XAS/XES, NRVS
   Peter Pinski           : DLPNO-MP2, DLPNO-MP2 Gradient
   Christoph Reimann      : Effective Core Potentials
   Marius Retegan         : Local ZFS, SOC
   Christoph Riplinger    : Optimizer, TS searches, QM/MM, DLPNO-CCSD(T), (RO)-DLPNO pert. Triples
   Michael Roemelt        : Original ROCIS implementation
   Masaaki Saitow         : Open-shell DLPNO-CCSD energy and density
   Barbara Sandhoefer     : DKH picture change effects
   Kantharuban Sivalingam : CASSCF convergence/infrastructure, NEVPT2 and variants, FIC-MRCI
   Bernardo de Souza      : ESD, SOC TD-DFT
   Georgi Stoychev        : AutoAux, RI-MP2 NMR, DLPNO-MP2 response, X2C
   Van Anh Tran           : RI-MP2 g-tensors
   Willem Van den Heuvel  : Paramagnetic NMR
   Zikuan Wang            : NOTCH, Electric field optimization 
   Frank Wennmohs         : Technical directorship and infrastructure
   Hang Xu                : AUTO-CI-Response properties 


 We gratefully acknowledge several colleagues who have allowed us to
 interface, adapt or use parts of their codes:
   Stefan Grimme, W. Hujo, H. Kruse, P. Pracht,  : VdW corrections, initial TS optimization,
                  C. Bannwarth, S. Ehlert,         DFT functionals, gCP, sTDA/sTD-DF
                  L. Wittmann, M. Mueller
   Ed Valeev, F. Pavosevic, A. Kumar             : LibInt (2-el integral package), F12 methods
   Garnet Chan, S. Sharma, J. Yang, R. Olivares  : DMRG
   Ulf Ekstrom                                   : XCFun DFT Library
   Mihaly Kallay                                 : mrcc  (arbitrary order and MRCC methods)
   Frank Weinhold                                : gennbo (NPA and NBO analysis)
   Simon Mueller                                 : openCOSMO-RS
   Christopher J. Cramer and Donald G. Truhlar   : smd solvation model
   Lars Goerigk                                  : TD-DFT with DH, B97 family of functionals
   V. Asgeirsson, H. Jonsson                     : NEB implementation
   FAccTs GmbH                                   : IRC, NEB, NEB-TS, DLPNO-Multilevel, CI-OPT
                                                   MM, QMMM, 2- and 3-layer-ONIOM, Crystal-QMMM,
                                                   LR-CPCM, SF, NACMEs, symmetry and pop. for TD-DFT,
                                                   nearIR, NL-DFT gradient (VV10), updates on ESD,
                                                   ML-optimized integration grids, MBIS, APM,
                                                   GOAT, DOCKER, SOLVATOR, interface openCOSMO-RS
   S Lehtola, MJT Oliveira, MAL Marques          : LibXC Library
   Liviu Ungur et al                             : ANISO software


 Your calculation uses the libint2 library for the computation of 2-el integrals
 For citations please refer to: http://libint.valeyev.net

 Your ORCA version has been built with support for libXC version: 6.2.2
 For citations please refer to: https://libxc.gitlab.io

 This ORCA versions uses:
   CBLAS   interface :  Fast vector & matrix operations
   LAPACKE interface :  Fast linear algebra routines
   SCALAPACK package :  Parallel linear algebra routines
   Shared memory     :  Shared parallel matrices
   BLAS/LAPACK       :  OpenBLAS 0.3.27  USE64BITINT DYNAMIC_ARCH NO_AFFINITY Zen SINGLE_THREADED
        Core in use  :  Zen
   Copyright (c) 2011-2014, The OpenBLAS Project


Your calculation utilizes the atom-pairwise dispersion correction
with the Becke-Johnson damping scheme (D3BJ)


Warning: RI is on but no J-basis has been assigned. Assigning Def2/J (nothing to worry about!)
================================================================================

----- Orbital basis set information -----
Your calculation utilizes the basis: def2-TZVPPD
   F. Weigend and R. Ahlrichs, Phys. Chem. Chem. Phys. 7, 3297 (2005).
   D. Rappoport and F. Furche, J. Chem. Phys. 133, 134105 (2010)
   D. Rappoport, J. Chem. Phys. 155, 124102 (2021).

----- AuxJ basis set information -----
Your calculation utilizes the auxiliary basis: def2/J
   F. Weigend, Phys. Chem. Chem. Phys. 8, 1057 (2006).

================================================================================
                                        WARNINGS
                       Please study these warnings very carefully!
================================================================================

Using LibXC functional ID 531 : wB97M-V exchange-correlation functional
[ 1]  N. Mardirossian and M. Head-Gordon.,  J. Chem. Phys. 144, 214110 (2016)
Using LibXC functional ID 531 : wB97M-V exchange-correlation functional
[ 1]  N. Mardirossian and M. Head-Gordon.,  J. Chem. Phys. 144, 214110 (2016)

WARNING: B97M-V or wB97M-V functional requested.
  ===> : libXC variant has now been activated.
         Any manually given DFX/HFX/RangeSep scaling parameters are IGNORED!

Your calculation utilizes LibXC
 by S Lehtola, C Steigemann, MJT Oliveira & MAL Marques
Please cite in your paper:
 S Lehtola, C Steigemann, MJT Oliveira & MAL Marques, SoftwareX, 7, (2018), 1.
   


WARNING: your system is open-shell and RHF/RKS was chosen
  ===> : WILL SWITCH to UHF/UKS

INFO   : Checking CIS options ...

WARNING: CIS/ROCIS methods need fully converged wavefunctions
  ===> : Setting SCFConvForced true
         You can overwrite this default with %scf ConvForced false 


================================================================================
                                       INPUT FILE
================================================================================
NAME = orca.inp
|  1> ! EnGrad wB97M-D3BJ def2-TZVPPD 
|  2> %pal nprocs 8 end%pal nprocs 16 end 
|  3> %tddft 
|  4>  sf true 
|  5>  nroots 2 Iroot 2 end 
|  6> *xyz 0 3 
|  7> O   0.10142311354043 0.85029632419646 -0.00011795847636
|  8> C   0.68475267010725 -0.38594946419725 0.00022596142531
|  9> C   -0.72828629316232 -0.53869724110421 -0.00030485115806
| 10> H   1.23530562560209 -0.65239181490036 0.90206241439989
| 11> H   1.23480170925822 -0.65288726641827 -0.90186690838093
| 12> H   -1.26328449065015 -0.66972977374006 -0.92601160905983
| 13> H   -1.26251233469552 -0.66904076383633 0.92601295124998
| 14> *
| 15> 
| 16>                          ****END OF INPUT****
================================================================================

                     *******************************
                     * Energy+Gradient Calculation *
                     *******************************

---------------------------------
CARTESIAN COORDINATES (ANGSTROEM)
---------------------------------
  O      0.101423    0.850296   -0.000118
  C      0.684753   -0.385949    0.000226
  C     -0.728286   -0.538697   -0.000305
  H      1.235306   -0.652392    0.902062
  H      1.234802   -0.652887   -0.901867
  H     -1.263284   -0.669730   -0.926012
  H     -1.262512   -0.669041    0.926013

----------------------------
CARTESIAN COORDINATES (A.U.)
----------------------------
  NO LB      ZA    FRAG     MASS         X           Y           Z
   0 O     8.0000    0    15.999    0.191662    1.606827   -0.000223
   1 C     6.0000    0    12.011    1.293995   -0.729339    0.000427
   2 C     6.0000    0    12.011   -1.376262   -1.017990   -0.000576
   3 H     1.0000    0     1.008    2.334389   -1.232842    1.704651
   4 H     1.0000    0     1.008    2.333437   -1.233778   -1.704281
   5 H     1.0000    0     1.008   -2.387262   -1.265606   -1.749908
   6 H     1.0000    0     1.008   -2.385803   -1.264304    1.749911

--------------------------------
INTERNAL COORDINATES (ANGSTROEM)
--------------------------------
 O      0   0   0     0.000000000000     0.00000000     0.00000000
 C      1   0   0     1.366959084672     0.00000000     0.00000000
 C      2   1   0     1.421271007525    70.90909647     0.00000000
 H      2   1   3     1.089683013984   115.90911618   246.90427619
 H      2   1   3     1.089762029748   115.89419159   113.01318135
 H      3   2   1     1.077184105689   120.47625818    94.48829196
 H      3   2   1     1.077242576409   120.37984229   265.53793741

---------------------------
INTERNAL COORDINATES (A.U.)
---------------------------
 O      0   0   0     0.000000000000     0.00000000     0.00000000
 C      1   0   0     2.583178306305     0.00000000     0.00000000
 C      2   1   0     2.685812966304    70.90909647     0.00000000
 H      2   1   3     2.059202469216   115.90911618   246.90427619
 H      2   1   3     2.059351787370   115.89419159   113.01318135
 H      3   2   1     2.035582955565   120.47625818    94.48829196
 H      3   2   1     2.035693449213   120.37984229   265.53793741

---------------------
BASIS SET INFORMATION
---------------------
There are 3 groups of distinct atoms

 Group   1 Type O   : 12s7p3d1f contracted to 6s4p3d1f pattern {621111/4111/111/1}
 Group   2 Type C   : 12s6p3d1f contracted to 6s3p3d1f pattern {621111/411/111/1}
 Group   3 Type H   : 5s3p1d contracted to 3s3p1d pattern {311/111/1}

Atom   0O    basis set group =>   1
Atom   1C    basis set group =>   2
Atom   2C    basis set group =>   2
Atom   3H    basis set group =>   3
Atom   4H    basis set group =>   3
Atom   5H    basis set group =>   3
Atom   6H    basis set group =>   3
---------------------------------
AUXILIARY/J BASIS SET INFORMATION
---------------------------------
There are 3 groups of distinct atoms

 Group   1 Type O   : 12s5p4d2f1g contracted to 6s4p3d1f1g pattern {711111/2111/211/2/1}
 Group   2 Type C   : 12s5p4d2f1g contracted to 6s4p3d1f1g pattern {711111/2111/211/2/1}
 Group   3 Type H   : 5s2p1d contracted to 3s1p1d pattern {311/2/1}

Atom   0O    basis set group =>   1
Atom   1C    basis set group =>   2
Atom   2C    basis set group =>   2
Atom   3H    basis set group =>   3
Atom   4H    basis set group =>   3
Atom   5H    basis set group =>   3
Atom   6H    basis set group =>   3
[1740999324.447516] [ohm:3201981:0]        ib_iface.c:1059 UCX  ERROR ibv_create_cq(cqe=256) failed: Connection timed out
[1740999324.447695] [ohm:3201976:0]        ib_iface.c:1059 UCX  ERROR ibv_create_cq(cqe=256) failed: Connection timed out
[1740999324.448071] [ohm:3201972:0]        ib_iface.c:1059 UCX  ERROR ibv_create_cq(cqe=256) failed: Connection timed out
[1740999324.449519] [ohm:3201974:0]        ib_iface.c:1059 UCX  ERROR ibv_create_cq(cqe=256) failed: Connection timed out
[1740999324.449514] [ohm:3201978:0]        ib_iface.c:1059 UCX  ERROR ibv_create_cq(cqe=256) failed: Connection timed out
[1740999324.454191] [ohm:3201973:0]        ib_iface.c:1059 UCX  ERROR ibv_create_cq(cqe=256) failed: Connection timed out
[1740999324.454503] [ohm:3201971:0]        ib_iface.c:1059 UCX  ERROR ibv_create_cq(cqe=256) failed: Connection timed out
[1740999324.454502] [ohm:3201979:0]        ib_iface.c:1059 UCX  ERROR ibv_create_cq(cqe=256) failed: Connection timed out
[1740999324.454610] [ohm:3201975:0]        ib_iface.c:1059 UCX  ERROR ibv_create_cq(cqe=256) failed: Connection timed out
[1740999324.454612] [ohm:3201977:0]        ib_iface.c:1059 UCX  ERROR ibv_create_cq(cqe=256) failed: Connection timed out
[1740999324.456530] [ohm:3201985:0]        ib_iface.c:1059 UCX  ERROR ibv_create_cq(cqe=256) failed: Connection timed out
[1740999324.456527] [ohm:3201994:0]        ib_iface.c:1059 UCX  ERROR ibv_create_cq(cqe=256) failed: Connection timed out
[1740999324.461418] [ohm:3201983:0]        ib_iface.c:1059 UCX  ERROR ibv_create_cq(cqe=256) failed: Connection timed out
[1740999324.463170] [ohm:3201997:0]        ib_iface.c:1059 UCX  ERROR ibv_create_cq(cqe=256) failed: Connection timed out
[1740999324.468215] [ohm:3201989:0]        ib_iface.c:1059 UCX  ERROR ibv_create_cq(cqe=256) failed: Connection timed out
[1740999324.468609] [ohm:3201999:0]        ib_iface.c:1059 UCX  ERROR ibv_create_cq(cqe=256) failed: Connection timed out


           ************************************************************
           *        Program running with 16 parallel MPI-processes    *
           *              working on a common directory               *
           ************************************************************
------------------------------------------------------------------------------
                             ORCA STARTUP CALCULATIONS
                           -- RI-GTO INTEGRALS CHOSEN --
------------------------------------------------------------------------------
------------------------------------------------------------------------------
                   ___                                                        
                  /   \      - P O W E R E D   B Y -                         
                 /     \                                                     
                 |  |  |   _    _      __       _____    __    __             
                 |  |  |  | |  | |    /  \     |  _  \  |  |  /  |          
                  \  \/   | |  | |   /    \    | | | |  |  | /  /          
                 / \  \   | |__| |  /  /\  \   | |_| |  |  |/  /          
                |  |  |   |  __  | /  /__\  \  |    /   |      \           
                |  |  |   | |  | | |   __   |  |    \   |  |\   \          
                \     /   | |  | | |  |  |  |  | |\  \  |  | \   \       
                 \___/    |_|  |_| |__|  |__|  |_| \__\ |__|  \__/        
                                                                              
                      - O R C A' S   B I G   F R I E N D -                    
                                      &                                       
                       - I N T E G R A L  F E E D E R -                       
                                                                              
 v1 FN, 2020, v2 2021, v3 2022-2024                                           
------------------------------------------------------------------------------


----------------------
SHARK INTEGRAL PACKAGE
----------------------

Number of atoms                             ...      7
Number of basis functions                   ...    182
Number of shells                            ...     68
Maximum angular momentum                    ...      3
Integral batch strategy                     ... SHARK/LIBINT Hybrid
RI-J (if used) integral strategy            ... SPLIT-RIJ (Revised 2003 algorithm where possible)
Printlevel                                  ...      1
Contraction scheme used                     ... SEGMENTED contraction
Prescreening option                         ... SCHWARTZ
   Thresh                                   ... 2.500e-11
   Tcut                                     ... 2.500e-12
   Tpresel                                  ... 2.500e-12 
Coulomb Range Separation                    ... NOT USED
Exchange Range Separation                   ... Long Range
   Mu parameter                             ... 3.000e-01
   Scaling (regular/separated)              ... 1.500e-01 8.500e-01
Multipole approximations                    ... NOT USED
Finite Nucleus Model                        ... NOT USED
CABS basis                                  ... NOT available
Auxiliary Coulomb fitting basis             ... AVAILABLE
   # of basis functions in Aux-J            ...    191
   # of shells in Aux-J                     ...     65
   Maximum angular momentum in Aux-J        ...      4
Auxiliary J/K fitting basis                 ... NOT available
Auxiliary Correlation fitting basis         ... NOT available
Auxiliary 'external' fitting basis          ... NOT available

Checking pre-screening integrals            ... done (  0.0 sec) Dimension = 68
Check shell pair data                       ... done (  0.0 sec)
Shell pair information
Shell pair cut-off parameter TPreSel        ...   2.5e-12
Total number of shell pairs                 ...      2346
Shell pairs after pre-screening             ...      2342
Total number of primitive shell pairs       ...      5434
Primitive shell pairs kept                  ...      4922
          la=0 lb=0:    461 shell pairs
          la=1 lb=0:    660 shell pairs
          la=1 lb=1:    253 shell pairs
          la=2 lb=0:    390 shell pairs
          la=2 lb=1:    286 shell pairs
          la=2 lb=2:     91 shell pairs
          la=3 lb=0:     90 shell pairs
          la=3 lb=1:     66 shell pairs
          la=3 lb=2:     39 shell pairs
          la=3 lb=3:      6 shell pairs

Calculating one electron integrals          ... done (  0.0 sec)
Calculating RI/J V-Matrix + Cholesky decomp.... done (  0.0 sec)
Calculating Nuclear repulsion               ... done (  0.0 sec) ENN=     74.437984847890 Eh

Diagonalization of the overlap matrix:
Smallest eigenvalue                        ... 9.178e-06
Time for diagonalization                   ...    0.003 sec
Threshold for overlap eigenvalues          ... 1.000e-07
Number of eigenvalues below threshold      ... 0
Time for construction of square roots      ...    0.001 sec
Total time needed                          ...    0.005 sec

-------------------
DFT GRID GENERATION
-------------------

General Integration Accuracy     IntAcc      ... 4.388
Radial Grid Type                 RadialGrid  ... OptM3 with GC (2021)
Angular Grid (max. ang.)         AngularGrid ... 4 (Lebedev-302)
Angular grid pruning method      GridPruning ... 4 (adaptive)
Weight generation scheme         WeightScheme... mBecke (2022)
Basis function cutoff            BFCut       ... 1.0000e-11
Integration weight cutoff        WCut        ... 1.0000e-14
Partially contracted basis set               ... off
Rotationally invariant grid construction     ... off
Angular grids for H and He will be reduced by one unit
Diffuse basis detected: some atoms will have their outermost
                        angular grid increased by 1.

Total number of grid points                  ...    33059
Total number of batches                      ...      519
Average number of points per batch           ...       63
Average number of grid points per atom       ...     4723

--------------------
COSX GRID GENERATION
--------------------

GRIDX 1
-------
General Integration Accuracy     IntAcc      ... 3.816
Radial Grid Type                 RadialGrid  ... OptM3 with GC (2021)
Angular Grid (max. ang.)         AngularGrid ... 1 (Lebedev-50)
Angular grid pruning method      GridPruning ... 4 (adaptive)
Weight generation scheme         WeightScheme... mBecke (2022)
Basis function cutoff            BFCut       ... 1.0000e-11
Integration weight cutoff        WCut        ... 1.0000e-14
Partially contracted basis set               ... on
Rotationally invariant grid construction     ... off
Angular grids for H and He will be reduced by one unit
Diffuse basis detected: some atoms will have their outermost
                        angular grid increased by 1.

Total number of grid points                  ...     4172
Total number of batches                      ...       36
Average number of points per batch           ...      115
Average number of grid points per atom       ...      596
UseSFitting                                  ... on

GRIDX 2
-------
General Integration Accuracy     IntAcc      ... 4.020
Radial Grid Type                 RadialGrid  ... OptM3 with GC (2021)
Angular Grid (max. ang.)         AngularGrid ... 2 (Lebedev-110)
Angular grid pruning method      GridPruning ... 4 (adaptive)
Weight generation scheme         WeightScheme... mBecke (2022)
Basis function cutoff            BFCut       ... 1.0000e-11
Integration weight cutoff        WCut        ... 1.0000e-14
Partially contracted basis set               ... on
Rotationally invariant grid construction     ... off
Angular grids for H and He will be reduced by one unit
Diffuse basis detected: some atoms will have their outermost
                        angular grid increased by 1.

Total number of grid points                  ...    10244
Total number of batches                      ...       83
Average number of points per batch           ...      123
Average number of grid points per atom       ...     1463
UseSFitting                                  ... on

GRIDX 3
-------
General Integration Accuracy     IntAcc      ... 4.338
Radial Grid Type                 RadialGrid  ... OptM3 with GC (2021)
Angular Grid (max. ang.)         AngularGrid ... 3 (Lebedev-194)
Angular grid pruning method      GridPruning ... 4 (adaptive)
Weight generation scheme         WeightScheme... mBecke (2022)
Basis function cutoff            BFCut       ... 1.0000e-11
Integration weight cutoff        WCut        ... 1.0000e-14
Partially contracted basis set               ... on
Rotationally invariant grid construction     ... off
Angular grids for H and He will be reduced by one unit
Diffuse basis detected: some atoms will have their outermost
                        angular grid increased by 1.

Total number of grid points                  ...    23023
Total number of batches                      ...      184
Average number of points per batch           ...      125
Average number of grid points per atom       ...     3289
UseSFitting                                  ... on
Initializing property integral containers    ... done (  0.0 sec)

SHARK setup successfully completed in   0.4 seconds

Maximum memory used throughout the entire STARTUP-calculation: 13.8 MB
[1740999325.457529] [ohm:3202059:0]        ib_iface.c:1059 UCX  ERROR ibv_create_cq(cqe=256) failed: Connection timed out
[1740999325.457662] [ohm:3202057:0]        ib_iface.c:1059 UCX  ERROR ibv_create_cq(cqe=256) failed: Connection timed out
[1740999325.457692] [ohm:3202061:0]        ib_iface.c:1059 UCX  ERROR ibv_create_cq(cqe=256) failed: Connection timed out
[1740999325.469992] [ohm:3202056:0]        ib_iface.c:1059 UCX  ERROR ibv_create_cq(cqe=256) failed: Connection timed out
[1740999325.470019] [ohm:3202060:0]        ib_iface.c:1059 UCX  ERROR ibv_create_cq(cqe=256) failed: Connection timed out
[1740999325.470612] [ohm:3202058:0]        ib_iface.c:1059 UCX  ERROR ibv_create_cq(cqe=256) failed: Connection timed out
[1740999325.474700] [ohm:3202063:0]        ib_iface.c:1059 UCX  ERROR ibv_create_cq(cqe=256) failed: Connection timed out
[1740999325.477940] [ohm:3202062:0]        ib_iface.c:1059 UCX  ERROR ibv_create_cq(cqe=256) failed: Connection timed out
[1740999325.487266] [ohm:3202073:0]        ib_iface.c:1059 UCX  ERROR ibv_create_cq(cqe=256) failed: Connection timed out
[1740999325.491158] [ohm:3202082:0]        ib_iface.c:1059 UCX  ERROR ibv_create_cq(cqe=256) failed: Connection timed out
[1740999325.494463] [ohm:3202069:0]        ib_iface.c:1059 UCX  ERROR ibv_create_cq(cqe=256) failed: Connection timed out
[1740999325.498844] [ohm:3202066:0]        ib_iface.c:1059 UCX  ERROR ibv_create_cq(cqe=256) failed: Connection timed out
[1740999325.499025] [ohm:3202064:0]        ib_iface.c:1059 UCX  ERROR ibv_create_cq(cqe=256) failed: Connection timed out
[1740999325.499014] [ohm:3202077:0]        ib_iface.c:1059 UCX  ERROR ibv_create_cq(cqe=256) failed: Connection timed out
[1740999325.506862] [ohm:3202085:0]        ib_iface.c:1059 UCX  ERROR ibv_create_cq(cqe=256) failed: Connection timed out
[1740999325.508370] [ohm:3202088:0]        ib_iface.c:1059 UCX  ERROR ibv_create_cq(cqe=256) failed: Connection timed out


           ************************************************************
           *        Program running with 16 parallel MPI-processes    *
           *              working on a common directory               *
           ************************************************************
-------------------------------------------------------------------------------
                                 ORCA GUESS
                   Start orbitals & Density for SCF / CASSCF
-------------------------------------------------------------------------------

------------
SCF SETTINGS
------------
Hamiltonian:
 Density Functional     Method          .... DFT(GTOs)
  Functional kind                       .... Exchange-Correlation
  Functional name                       .... wB97M-V exchange-correlation functional
  Functional family                     .... Hybrid MGGA
  Functional refs                              
    [ 0] N. Mardirossian and M. Head-Gordon.,  J. Chem. Phys. 144, 214110 (2016), doi: 10.1063/1.4952647
  Fraction of HF Exchange (short range) .... 0.1500
  Fraction of HF Exchange (long range)  .... 1.0000
  Range separation parameter mu         .... 0.3000
  Functional external parameters        .... 17
    Parameter  0 _cx00      =  8.500000e-01 : u^00 coefficient for exchange
    Parameter  1 _cx01      =  1.007000e+00 : u^01 coefficient for exchange
    Parameter  2 _cx10      =  2.590000e-01 : u^10 coefficient for exchange
    Parameter  3 _css00     =  4.430000e-01 : u^00 coefficient for same-spin correlation
    Parameter  4 _css04     = -1.437000e+00 : u^04 coefficient for same-spin correlation
    Parameter  5 _css10     = -4.535000e+00 : u^10 coefficient for same-spin correlation
    Parameter  6 _css20     = -3.390000e+00 : u^20 coefficient for same-spin correlation
    Parameter  7 _css43     =  4.278000e+00 : u^43 coefficient for same-spin correlation
    Parameter  8 _cos00     =  1.000000e+00 : u^00 coefficient for opposite-spin correlation
    Parameter  9 _cos10     =  1.358000e+00 : u^10 coefficient for opposite-spin correlation
    Parameter 10 _cos20     =  2.924000e+00 : u^20 coefficient for opposite-spin correlation
    Parameter 11 _cos21     = -8.812000e+00 : u^21 coefficient for opposite-spin correlation
    Parameter 12 _cos60     = -1.390000e+00 : u^60 coefficient for opposite-spin correlation
    Parameter 13 _cos61     =  9.142000e+00 : u^61 coefficient for opposite-spin correlation
    Parameter 14 _alpha     =  1.000000e+00 : fraction of HF exchange
    Parameter 15 _beta      = -8.500000e-01 : fraction of short-range exchange
    Parameter 16 _omega     =  3.000000e-01 : range-separation constant
 Long-range corrected/Screened/Range-Separated Hybrid DFT is turned on
   Amount of maximum screened exact exchange              ....  0.850000
   Range separation parameter mu (erf(mu*r12)/r12)        ....  0.300000
 RI-approximation to the Coulomb term is turned on
   Number of AuxJ basis functions       .... 191
   RIJ-COSX (HFX calculated with COS-X)).... on


General Settings:
 Integral files         IntName         .... orca
 Hartree-Fock type      HFTyp           .... UHF
 Total Charge           Charge          ....    0
 Multiplicity           Mult            ....    3
 Number of Electrons    NEL             ....   24
 Basis Dimension        Dim             ....  182
 Nuclear Repulsion      ENuc            ....     74.4379848479 Eh

Convergence Acceleration:
 AO-DIIS                CNVDIIS         .... on
   Start iteration      DIISMaxIt       ....    12
   Startup error        DIISStart       ....  0.200000
   # of expansion vecs  DIISMaxEq       ....     5
   Bias factor          DIISBfac        ....   1.050
   Max. coefficient     DIISMaxC        ....  10.000
 MO-DIIS                CNVKDIIS        .... off
 Trust-Rad. Augm. Hess. CNVTRAH         .... auto
   Auto Start mean grad. ratio tolernc. ....  1.125000
   Auto Start start iteration           ....    50
   Auto Start num. interpolation iter.  ....    10
   Max. Number of Micro iterations      ....    24
   Max. Number of Macro iterations      .... Maxiter - #DIIS iter
   Number of Davidson start vectors     ....     2
   Converg. threshold    (grad. norm)   ....   1.000e-05
   Grad. Scal. Fac. for Micro threshold ....   0.100
   Minimum threshold for Micro iter.    ....   1.000e-02
   NR start threshold (gradient norm)   ....   1.000e-04
   Initial trust radius                 ....   0.400
   Minimum AH scaling param. (alpha)    ....   1.000
   Maximum AH scaling param. (alpha)    .... 1000.000
   Quad. conv. algorithm                .... NR
   White noise on init. David. guess    .... on
   Maximum white noise                  ....   0.010
   Pseudo random numbers                .... off
   Inactive MOs                         .... canonical
   Orbital update algorithm             .... Taylor
   Preconditioner                       .... Diag
   Full preconditioner red. dimension   ....   250
 SOSCF                  CNVSOSCF        .... on
   Start iteration      SOSCFMaxIt      ....   150
   Startup grad/error   SOSCFStart      ....  0.003300
   Hessian update       SOSCFHessUp     .... L-BFGS
 Level Shifting         CNVShift        .... on
   Level shift para.    LevelShift      ....    0.2500
   Turn off err/grad.   ShiftErr        ....    0.0010
 Zerner damping         CNVZerner       .... off
 Static damping         CNVDamp         .... on
   Fraction old density DampFac         ....    0.7000
   Max. Damping (<1)    DampMax         ....    0.9800
   Min. Damping (>=0)   DampMin         ....    0.0000
   Turn off err/grad.   DampErr         ....    0.1000

SCF Procedure:
 Maximum # iterations   MaxIter         ....   125
 SCF integral mode      SCFMode         .... Direct
   Integral package                     .... SHARK and LIBINT hybrid scheme
 Reset frequency        DirectResetFreq ....    20
 Integral Threshold     Thresh          ....  2.500e-11 Eh
 Primitive CutOff       TCut            ....  2.500e-12 Eh

Convergence Tolerance:
 Convergence Check Mode ConvCheckMode   .... Total+1el-Energy
 Convergence forced     ConvForced      .... 1
 Energy Change          TolE            ....  1.000e-08 Eh
 1-El. energy change                    ....  1.000e-05 Eh
 Orbital Gradient       TolG            ....  1.000e-05
 Orbital Rotation angle TolX            ....  1.000e-05
 DIIS Error             TolErr          ....  5.000e-07

------------------------------
INITIAL GUESS: MODEL POTENTIAL
------------------------------
Loading Hartree-Fock densities                     ... done
Calculating cut-offs                               ... done
Initializing the effective Hamiltonian             ... done
Setting up the integral package (SHARK)            ... done
Starting the Coulomb interaction                   ... done (   0.0 sec)
Making the grid                                    ... done (   0.0 sec)
Mapping shells                                     ... done
Starting the XC term evaluation                    ... done (   0.0 sec)
  promolecular density results
     # of electrons  =     23.997301759
     EX              =    -19.533399136
     EC              =     -0.780305964
     EX+EC           =    -20.313705100
Transforming the Hamiltonian                       ... done (   0.0 sec)
Diagonalizing the Hamiltonian                      ... done (   0.0 sec)
Back transforming the eigenvectors                 ... done (   0.0 sec)
Now organizing SCF variables                       ... done
                      ------------------
                      INITIAL GUESS DONE (   0.1 sec)
                      ------------------
             **** ENERGY FILE WAS UPDATED (orca.en.tmp) ****
Finished Guess after   0.5 sec
Maximum memory used throughout the entire GUESS-calculation: 9.7 MB
[1740999326.251458] [ohm:3202147:0]        ib_iface.c:1059 UCX  ERROR ibv_create_cq(cqe=256) failed: Connection timed out
[1740999326.251527] [ohm:3202141:0]        ib_iface.c:1059 UCX  ERROR ibv_create_cq(cqe=256) failed: Connection timed out
[1740999326.251650] [ohm:3202145:0]        ib_iface.c:1059 UCX  ERROR ibv_create_cq(cqe=256) failed: Connection timed out
[1740999326.255869] [ohm:3202143:0]        ib_iface.c:1059 UCX  ERROR ibv_create_cq(cqe=256) failed: Connection timed out
[1740999326.259562] [ohm:3202142:0]        ib_iface.c:1059 UCX  ERROR ibv_create_cq(cqe=256) failed: Connection timed out
[1740999326.259607] [ohm:3202146:0]        ib_iface.c:1059 UCX  ERROR ibv_create_cq(cqe=256) failed: Connection timed out
[1740999326.260029] [ohm:3202140:0]        ib_iface.c:1059 UCX  ERROR ibv_create_cq(cqe=256) failed: Connection timed out
[1740999326.260028] [ohm:3202144:0]        ib_iface.c:1059 UCX  ERROR ibv_create_cq(cqe=256) failed: Connection timed out
[1740999326.260380] [ohm:3202157:0]        ib_iface.c:1059 UCX  ERROR ibv_create_cq(cqe=256) failed: Connection timed out
[1740999326.264498] [ohm:3202165:0]        ib_iface.c:1059 UCX  ERROR ibv_create_cq(cqe=256) failed: Connection timed out
[1740999326.265650] [ohm:3202150:0]        ib_iface.c:1059 UCX  ERROR ibv_create_cq(cqe=256) failed: Connection timed out
[1740999326.267191] [ohm:3202148:0]        ib_iface.c:1059 UCX  ERROR ibv_create_cq(cqe=256) failed: Connection timed out
[1740999326.267180] [ohm:3202152:0]        ib_iface.c:1059 UCX  ERROR ibv_create_cq(cqe=256) failed: Connection timed out
[1740999326.272742] [ohm:3202172:0]        ib_iface.c:1059 UCX  ERROR ibv_create_cq(cqe=256) failed: Connection timed out
[1740999326.273986] [ohm:3202162:0]        ib_iface.c:1059 UCX  ERROR ibv_create_cq(cqe=256) failed: Connection timed out
[1740999326.273980] [ohm:3202168:0]        ib_iface.c:1059 UCX  ERROR ibv_create_cq(cqe=256) failed: Connection timed out


           ************************************************************
           *        Program running with 16 parallel MPI-processes    *
           *              working on a common directory               *
           ************************************************************

-------------------------------------------------------------------------------------------
                                      ORCA LEAN-SCF
                              memory conserving SCF solver
-------------------------------------------------------------------------------------------

----------------------------------------D-I-I-S--------------------------------------------
Iteration    Energy (Eh)           Delta-E    RMSDP     MaxDP     DIISErr   Damp  Time(sec)
-------------------------------------------------------------------------------------------
               ***  Starting incremental Fock matrix formation  ***
    1    -153.5705063958305345     0.00e+00  1.16e-03  5.69e-02  1.03e-01  0.700   0.4
    2    -153.6079735268404534    -3.75e-02  1.19e-03  7.94e-02  6.07e-02  0.700   0.3
                               ***Turning on AO-DIIS***
    3    -153.6278591498863761    -1.99e-02  9.22e-04  6.23e-02  2.98e-02  0.700   0.3
    4    -153.6399184839229406    -1.21e-02  2.31e-03  1.61e-01  2.41e-02  0.000   0.3
    5    -153.6672987982909149    -2.74e-02  4.64e-04  4.19e-02  9.47e-03  0.000   0.3
    6    -153.6678743614725136    -5.76e-04  4.19e-04  4.06e-02  6.51e-03  0.000   0.3
    7    -153.6682226215580727    -3.48e-04  2.76e-04  2.53e-02  3.67e-03  0.000   0.3
                              *** Initializing SOSCF ***
---------------------------------------S-O-S-C-F--------------------------------------
Iteration    Energy (Eh)           Delta-E    RMSDP     MaxDP     MaxGrad    Time(sec)
--------------------------------------------------------------------------------------
    8    -153.6683531680341730    -1.31e-04  1.65e-04  1.21e-02  1.97e-03     0.3
               *** Restarting incremental Fock matrix formation ***
    9    -153.6684065228683949    -5.34e-05  1.57e-04  1.31e-02  1.25e-03     0.4
   10    -153.6684229125411321    -1.64e-05  3.02e-04  2.79e-02  7.06e-04     0.4
   11    -153.6684326191723358    -9.71e-06  4.70e-05  2.17e-03  4.29e-04     0.4
   12    -153.6684341024360947    -1.48e-06  1.57e-05  1.48e-03  8.96e-05     0.3
   13    -153.6684342783988200    -1.76e-07  9.71e-06  5.18e-04  3.95e-05     0.3
   14    -153.6684343414469822    -6.30e-08  1.24e-05  7.18e-04  2.06e-05     0.3
   15    -153.6684343638687551    -2.24e-08  6.46e-06  4.02e-04  1.02e-05     0.3
   16    -153.6684343705796323    -6.71e-09  2.74e-06  2.18e-04  4.63e-06     0.3
                 **** Energy Check signals convergence ****

               *****************************************************
               *                     SUCCESS                       *
               *           SCF CONVERGED AFTER  16 CYCLES          *
               *****************************************************

Recomputing exchange energy using gridx3       ... done (    0.425 sec)
Old exchange energy                            :     -6.193047934 Eh
New exchange energy                            :     -6.193046378 Eh
Exchange energy change after final integration :      0.000001556 Eh
Total energy after final integration           :   -153.668432814 Eh
             **** ENERGY FILE WAS UPDATED (orca.en.tmp) ****

----------------
TOTAL SCF ENERGY
----------------

Total Energy       :       -153.66843281430559 Eh           -4181.53064 eV

Components:
Nuclear Repulsion  :         74.43798484789004 Eh            2025.56055 eV
Electronic Energy  :       -228.10641921846963 Eh           -6207.09123 eV
One Electron Energy:       -354.71205608610603 Eh           -9652.20575 eV
Two Electron Energy:        126.60563686763639 Eh            3445.11453 eV

Virial components:
Potential Energy   :       -307.41455819019529 Eh           -8365.17541 eV
Kinetic Energy     :        153.74612537588970 Eh            4183.64476 eV
Virial Ratio       :          1.99949466979155

DFT components:
N(Alpha)           :       12.999885211844 electrons
N(Beta)            :       10.999999922162 electrons
N(Total)           :       23.999885134006 electrons
E(XC)              :      -14.750446153358 Eh       

---------------
SCF CONVERGENCE
---------------

  Last Energy change         ...    6.7109e-09  Tolerance :   1.0000e-08
  Last MAX-Density change    ...    2.1822e-04  Tolerance :   1.0000e-07
  Last RMS-Density change    ...    2.7410e-06  Tolerance :   5.0000e-09
  Last DIIS Error            ...    1.9730e-03  Tolerance :   5.0000e-07
  Last Orbital Gradient      ...    4.6293e-06  Tolerance :   1.0000e-05
  Last Orbital Rotation      ...    3.1847e-05  Tolerance :   1.0000e-05


----------------------
UHF SPIN CONTAMINATION
----------------------

Warning: in a DFT calculation there is little theoretical justification to 
         calculate <S**2> as in Hartree-Fock theory. We will do it anyways
         but you should keep in mind that the values have only limited relevance

Expectation value of <S**2>     :     2.006448
Ideal value S*(S+1) for S=1.0   :     2.000000
Deviation                       :     0.006448

----------------
ORBITAL ENERGIES
----------------
                 SPIN UP ORBITALS
  NO   OCC          E(Eh)            E(eV) 
   0   1.0000     -19.450063      -529.2631 
   1   1.0000     -10.415989      -283.4335 
   2   1.0000     -10.346795      -281.5506 
   3   1.0000      -1.271612       -34.6023 
   4   1.0000      -0.860120       -23.4051 
   5   1.0000      -0.765489       -20.8300 
   6   1.0000      -0.674278       -18.3480 
   7   1.0000      -0.637793       -17.3552 
   8   1.0000      -0.560008       -15.2386 
   9   1.0000      -0.500001       -13.6057 
  10   1.0000      -0.486901       -13.2492 
  11   1.0000      -0.465272       -12.6607 
  12   1.0000      -0.174572        -4.7503 
  13   0.0000       0.038307         1.0424 
  14   0.0000       0.062454         1.6995 
  15   0.0000       0.071239         1.9385 
  16   0.0000       0.086846         2.3632 
  17   0.0000       0.111592         3.0366 
  18   0.0000       0.131847         3.5877 
  19   0.0000       0.132303         3.6002 
  20   0.0000       0.143974         3.9177 
  21   0.0000       0.161966         4.4073 
  22   0.0000       0.199203         5.4206 
  23   0.0000       0.203837         5.5467 

                 SPIN DOWN ORBITALS
  NO   OCC          E(Eh)            E(eV) 
   0   1.0000     -19.417330      -528.3724 
   1   1.0000     -10.416491      -283.4471 
   2   1.0000     -10.336509      -281.2707 
   3   1.0000      -1.204749       -32.7829 
   4   1.0000      -0.825729       -22.4692 
   5   1.0000      -0.746307       -20.3081 
   6   1.0000      -0.621703       -16.9174 
   7   1.0000      -0.603666       -16.4266 
   8   1.0000      -0.523739       -14.2517 
   9   1.0000      -0.475504       -12.9391 
  10   1.0000      -0.425877       -11.5887 
  11   0.0000      -0.103637        -2.8201 
  12   0.0000       0.033989         0.9249 
  13   0.0000       0.058195         1.5836 
  14   0.0000       0.060058         1.6343 
  15   0.0000       0.065817         1.7910 
  16   0.0000       0.106212         2.8902 
  17   0.0000       0.109084         2.9683 
  18   0.0000       0.130784         3.5588 
  19   0.0000       0.145704         3.9648 
  20   0.0000       0.146510         3.9867 
  21   0.0000       0.168423         4.5830 
*Only the first 10 virtual orbitals were printed.

                    ********************************
                    * MULLIKEN POPULATION ANALYSIS *
                    ********************************

--------------------------------------------
MULLIKEN ATOMIC CHARGES AND SPIN POPULATIONS
--------------------------------------------
   0 O :   -0.223080    1.191003
   1 C :    0.129772   -0.141805
   2 C :   -0.644635    0.741896
   3 H :    0.178322    0.059390
   4 H :    0.178356    0.059622
   5 H :    0.190652    0.044885
   6 H :    0.190613    0.045008
Sum of atomic charges         :   -0.0000000
Sum of atomic spin populations:    2.0000000

-----------------------------------------------------
MULLIKEN REDUCED ORBITAL CHARGES AND SPIN POPULATIONS
-----------------------------------------------------
CHARGE
  0 O s       :     4.035124  s :     4.035124
      pz      :     1.067466  p :     4.149611
      px      :     1.636092
      py      :     1.446053
      dz2     :     0.005409  d :     0.036660
      dxz     :    -0.001273
      dyz     :     0.008332
      dx2y2   :     0.008146
      dxy     :     0.016047
      f0      :     0.000163  f :     0.001685
      f+1     :     0.000074
      f-1     :     0.000257
      f+2     :     0.000093
      f-2     :     0.000163
      f+3     :     0.000483
      f-3     :     0.000451

  1 C s       :     3.196107  s :     3.196107
      pz      :     1.081486  p :     2.578340
      px      :     0.915564
      py      :     0.581290
      dz2     :     0.010781  d :     0.083472
      dxz     :     0.001398
      dyz     :     0.018396
      dx2y2   :     0.035080
      dxy     :     0.017817
      f0      :     0.001223  f :     0.012309
      f+1     :     0.000834
      f-1     :     0.000851
      f+2     :     0.001033
      f-2     :     0.001161
      f+3     :     0.003605
      f-3     :     0.003602

  2 C s       :     3.553188  s :     3.553188
      pz      :     1.191387  p :     3.027514
      px      :     0.831858
      py      :     1.004270
      dz2     :     0.020124  d :     0.056298
      dxz     :    -0.025420
      dyz     :    -0.002718
      dx2y2   :     0.033963
      dxy     :     0.030348
      f0      :     0.000754  f :     0.007634
      f+1     :     0.000624
      f-1     :     0.000712
      f+2     :     0.000834
      f-2     :     0.000549
      f+3     :     0.002403
      f-3     :     0.001758

  3 H s       :     0.770299  s :     0.770299
      pz      :     0.017436  p :     0.048832
      px      :     0.017792
      py      :     0.013604
      dz2     :     0.000754  d :     0.002548
      dxz     :     0.000613
      dyz     :     0.000513
      dx2y2   :     0.000337
      dxy     :     0.000331

  4 H s       :     0.770257  s :     0.770257
      pz      :     0.017407  p :     0.048838
      px      :     0.017772
      py      :     0.013658
      dz2     :     0.000754  d :     0.002549
      dxz     :     0.000613
      dyz     :     0.000513
      dx2y2   :     0.000338
      dxy     :     0.000331

  5 H s       :     0.711640  s :     0.711640
      pz      :     0.016528  p :     0.095327
      px      :     0.011642
      py      :     0.067156
      dz2     :     0.000660  d :     0.002381
      dxz     :     0.000487
      dyz     :     0.000713
      dx2y2   :     0.000240
      dxy     :     0.000282

  6 H s       :     0.711589  s :     0.711589
      pz      :     0.016476  p :     0.095415
      px      :     0.011657
      py      :     0.067282
      dz2     :     0.000660  d :     0.002383
      dxz     :     0.000489
      dyz     :     0.000714
      dx2y2   :     0.000239
      dxy     :     0.000281


SPIN
  0 O s       :     0.086062  s :     0.086062
      pz      :     0.867425  p :     1.099792
      px      :     0.083097
      py      :     0.149270
      dz2     :     0.001317  d :     0.005263
      dxz     :    -0.000880
      dyz     :    -0.005196
      dx2y2   :     0.003134
      dxy     :     0.006889
      f0      :    -0.000058  f :    -0.000113
      f+1     :    -0.000032
      f-1     :    -0.000098
      f+2     :    -0.000001
      f-2     :    -0.000000
      f+3     :     0.000060
      f-3     :     0.000016

  1 C s       :    -0.030716  s :    -0.030716
      pz      :     0.007148  p :    -0.137752
      px      :    -0.012950
      py      :    -0.131950
      dz2     :     0.015785  d :     0.023106
      dxz     :     0.001866
      dyz     :     0.018904
      dx2y2   :     0.001717
      dxy     :    -0.015165
      f0      :     0.000620  f :     0.003557
      f+1     :     0.000013
      f-1     :     0.000002
      f+2     :     0.000658
      f-2     :     0.000508
      f+3     :     0.001819
      f-3     :    -0.000064

  2 C s       :     0.112741  s :     0.112741
      pz      :     0.023578  p :     0.606731
      px      :     0.041696
      py      :     0.541456
      dz2     :     0.008966  d :     0.021234
      dxz     :    -0.006066
      dyz     :    -0.002700
      dx2y2   :     0.014228
      dxy     :     0.006805
      f0      :     0.000067  f :     0.001191
      f+1     :    -0.000103
      f-1     :     0.000478
      f+2     :     0.000165
      f-2     :     0.000197
      f+3     :     0.000332
      f-3     :     0.000056

  3 H s       :     0.046746  s :     0.046746
      pz      :     0.001818  p :     0.012675
      px      :     0.002982
      py      :     0.007876
      dz2     :    -0.000006  d :    -0.000031
      dxz     :     0.000009
      dyz     :    -0.000033
      dx2y2   :     0.000007
      dxy     :    -0.000008

  4 H s       :     0.046936  s :     0.046936
      pz      :     0.001818  p :     0.012717
      px      :     0.002976
      py      :     0.007924
      dz2     :    -0.000006  d :    -0.000031
      dxz     :     0.000009
      dyz     :    -0.000033
      dx2y2   :     0.000007
      dxy     :    -0.000008

  5 H s       :    -0.014130  s :    -0.014130
      pz      :    -0.001759  p :     0.058390
      px      :     0.001358
      py      :     0.058792
      dz2     :     0.000031  d :     0.000624
      dxz     :     0.000006
      dyz     :     0.000438
      dx2y2   :     0.000013
      dxy     :     0.000136

  6 H s       :    -0.014101  s :    -0.014101
      pz      :    -0.001785  p :     0.058485
      px      :     0.001357
      py      :     0.058913
      dz2     :     0.000031  d :     0.000624
      dxz     :     0.000006
      dyz     :     0.000438
      dx2y2   :     0.000013
      dxy     :     0.000136



                     *******************************
                     * LOEWDIN POPULATION ANALYSIS *
                     *******************************

-------------------------------------------
LOEWDIN ATOMIC CHARGES AND SPIN POPULATIONS
-------------------------------------------
   0 O :    0.122453    1.093579
   1 C :   -0.095621    0.140725
   2 C :    0.024482    0.476806
   3 H :    0.032080    0.044606
   4 H :    0.032133    0.044714
   5 H :   -0.057784    0.099816
   6 H :   -0.057743    0.099754

----------------------------------------------------
LOEWDIN REDUCED ORBITAL CHARGES AND SPIN POPULATIONS
----------------------------------------------------
CHARGE
  0 O s       :     3.438426  s :     3.438426
      pz      :     0.993322  p :     4.028618
      px      :     1.523204
      py      :     1.512092
      dz2     :     0.035654  d :     0.404394
      dxz     :     0.043574
      dyz     :     0.080243
      dx2y2   :     0.106349
      dxy     :     0.138573
      f0      :     0.000612  f :     0.006108
      f+1     :     0.000261
      f-1     :     0.000925
      f+2     :     0.000254
      f-2     :     0.000735
      f+3     :     0.001260
      f-3     :     0.002061

  1 C s       :     2.644339  s :     2.644339
      pz      :     0.902259  p :     2.571374
      px      :     0.934541
      py      :     0.734574
      dz2     :     0.097014  d :     0.785561
      dxz     :     0.207195
      dyz     :     0.068047
      dx2y2   :     0.220887
      dxy     :     0.192418
      f0      :     0.007975  f :     0.094347
      f+1     :     0.007764
      f-1     :     0.009664
      f+2     :     0.008177
      f-2     :     0.006762
      f+3     :     0.026526
      f-3     :     0.027480

  2 C s       :     2.678176  s :     2.678176
      pz      :     0.930751  p :     2.610164
      px      :     0.889665
      py      :     0.789749
      dz2     :     0.099973  d :     0.630393
      dxz     :     0.189002
      dyz     :     0.028774
      dx2y2   :     0.176206
      dxy     :     0.136437
      f0      :     0.005206  f :     0.056786
      f+1     :     0.006904
      f-1     :     0.006473
      f+2     :     0.005441
      f-2     :     0.001906
      f+3     :     0.018131
      f-3     :     0.012725

  3 H s       :     0.680746  s :     0.680746
      pz      :     0.112832  p :     0.257432
      px      :     0.081982
      py      :     0.062618
      dz2     :     0.009168  d :     0.029742
      dxz     :     0.008421
      dyz     :     0.005875
      dx2y2   :     0.003462
      dxy     :     0.002815

  4 H s       :     0.680653  s :     0.680653
      pz      :     0.112833  p :     0.257473
      px      :     0.081995
      py      :     0.062645
      dz2     :     0.009167  d :     0.029741
      dxz     :     0.008420
      dyz     :     0.005880
      dx2y2   :     0.003462
      dxy     :     0.002812

  5 H s       :     0.702637  s :     0.702637
      pz      :     0.116669  p :     0.323719
      px      :     0.077105
      py      :     0.129945
      dz2     :     0.009156  d :     0.031429
      dxz     :     0.008654
      dyz     :     0.008163
      dx2y2   :     0.002724
      dxy     :     0.002731

  6 H s       :     0.702606  s :     0.702606
      pz      :     0.116710  p :     0.323710
      px      :     0.077113
      py      :     0.129887
      dz2     :     0.009166  d :     0.031426
      dxz     :     0.008655
      dyz     :     0.008168
      dx2y2   :     0.002717
      dxy     :     0.002721


SPIN
  0 O s       :     0.071064  s :     0.071064
      pz      :     0.768861  p :     0.982004
      px      :     0.090675
      py      :     0.122467
      dz2     :     0.006598  d :     0.039845
      dxz     :    -0.000761
      dyz     :     0.012005
      dx2y2   :     0.000884
      dxy     :     0.021120
      f0      :     0.000131  f :     0.000665
      f+1     :     0.000092
      f-1     :     0.000173
      f+2     :     0.000026
      f-2     :     0.000017
      f+3     :     0.000218
      f-3     :     0.000008

  1 C s       :    -0.001366  s :    -0.001366
      pz      :     0.009897  p :     0.009164
      px      :     0.002776
      py      :    -0.003509
      dz2     :     0.004711  d :     0.107972
      dxz     :     0.021166
      dyz     :     0.067095
      dx2y2   :     0.007000
      dxy     :     0.007999
      f0      :     0.003960  f :     0.024956
      f+1     :     0.000333
      f-1     :     0.000503
      f+2     :     0.005250
      f-2     :     0.002819
      f+3     :     0.011988
      f-3     :     0.000103

  2 C s       :     0.021036  s :     0.021036
      pz      :     0.016252  p :     0.368419
      px      :     0.014011
      py      :     0.338157
      dz2     :     0.007543  d :     0.077951
      dxz     :    -0.001832
      dyz     :     0.021711
      dx2y2   :     0.028064
      dxy     :     0.022465
      f0      :     0.000479  f :     0.009401
      f+1     :     0.000050
      f-1     :     0.001095
      f+2     :     0.001460
      f-2     :     0.000764
      f+3     :     0.005731
      f-3     :    -0.000177

  3 H s       :     0.030701  s :     0.030701
      pz      :     0.001077  p :     0.014348
      px      :    -0.000737
      py      :     0.014007
      dz2     :    -0.000083  d :    -0.000443
      dxz     :    -0.000004
      dyz     :    -0.000272
      dx2y2   :     0.000064
      dxy     :    -0.000148

  4 H s       :     0.030798  s :     0.030798
      pz      :     0.001075  p :     0.014360
      px      :    -0.000731
      py      :     0.014016
      dz2     :    -0.000083  d :    -0.000444
      dxz     :    -0.000005
      dyz     :    -0.000272
      dx2y2   :     0.000064
      dxy     :    -0.000148

  5 H s       :    -0.000185  s :    -0.000185
      pz      :     0.002484  p :     0.093391
      px      :     0.000850
      py      :     0.090057
      dz2     :     0.000326  d :     0.006610
      dxz     :     0.000336
      dyz     :     0.004664
      dx2y2   :     0.000059
      dxy     :     0.001224

  6 H s       :    -0.000176  s :    -0.000176
      pz      :     0.002481  p :     0.093325
      px      :     0.000845
      py      :     0.090000
      dz2     :     0.000325  d :     0.006605
      dxz     :     0.000337
      dyz     :     0.004667
      dx2y2   :     0.000059
      dxy     :     0.001219



                      *****************************
                      * MAYER POPULATION ANALYSIS *
                      *****************************

  NA   - Mulliken gross atomic population
  ZA   - Total nuclear charge
  QA   - Mulliken gross atomic charge
  VA   - Mayer's total valence
  BVA  - Mayer's bonded valence
  FA   - Mayer's free valence

  ATOM       NA         ZA         QA         VA         BVA        FA
  0 O      8.2231     8.0000    -0.2231     2.2469     1.3761     0.8708
  1 C      5.8702     6.0000     0.1298     3.1539     3.1395     0.0144
  2 C      6.6446     6.0000    -0.6446     3.4930     3.1354     0.3576
  3 H      0.8217     1.0000     0.1783     1.0560     1.0542     0.0018
  4 H      0.8216     1.0000     0.1784     1.0558     1.0540     0.0018
  5 H      0.8093     1.0000     0.1907     1.0926     1.0877     0.0049
  6 H      0.8094     1.0000     0.1906     1.0926     1.0877     0.0049

  Mayer bond orders larger than 0.100000
B(  0-O ,  1-C ) :   0.7424 B(  0-O ,  2-C ) :   0.4796 B(  1-C ,  2-C ) :   0.5520 
B(  1-C ,  3-H ) :   0.9963 B(  1-C ,  4-H ) :   0.9960 B(  2-C ,  5-H ) :   1.0720 
B(  2-C ,  6-H ) :   1.0722 

-------
TIMINGS
-------

Total SCF time: 0 days 0 hours 0 min 6 sec 

Total time                  ....       6.061 sec
Sum of individual times     ....       6.040 sec  ( 99.7%)

SCF preparation             ....       0.415 sec  (  6.8%)
Fock matrix formation       ....       5.014 sec  ( 82.7%)
  Startup                   ....       0.033 sec  (  0.7% of F)
  Split-RI-J                ....       0.215 sec  (  4.3% of F)
  Chain of spheres X        ....       3.170 sec  ( 63.2% of F)
  XC integration            ....       1.479 sec  ( 29.5% of F)
    XC Preparation          ....       0.000 sec  (  0.0% of XC)
    Basis function eval.    ....       0.102 sec  (  6.9% of XC)
    Density eval.           ....       0.443 sec  ( 29.9% of XC)
    XC-Functional eval.     ....       0.040 sec  (  2.7% of XC)
    XC-Potential eval.      ....       0.755 sec  ( 51.0% of XC)
Diagonalization             ....       0.000 sec  (  0.0%)
Density matrix formation    ....       0.075 sec  (  1.2%)
Total Energy calculation    ....       0.049 sec  (  0.8%)
Population analysis         ....       0.024 sec  (  0.4%)
Orbital Transformation      ....       0.048 sec  (  0.8%)
Orbital Orthonormalization  ....       0.000 sec  (  0.0%)
DIIS solution               ....       0.278 sec  (  4.6%)
SOSCF solution              ....       0.133 sec  (  2.2%)
Finished LeanSCF after   6.1 sec

Maximum memory used throughout the entire LEANSCF-calculation: 14.8 MB
[1740999332.588977] [ohm:3202245:0]        ib_iface.c:1059 UCX  ERROR ibv_create_cq(cqe=256) failed: Connection timed out
[1740999332.588937] [ohm:3202241:0]        ib_iface.c:1059 UCX  ERROR ibv_create_cq(cqe=256) failed: Connection timed out
[1740999332.589097] [ohm:3202243:0]        ib_iface.c:1059 UCX  ERROR ibv_create_cq(cqe=256) failed: Connection timed out
[1740999332.600408] [ohm:3202242:0]        ib_iface.c:1059 UCX  ERROR ibv_create_cq(cqe=256) failed: Connection timed out
[1740999332.600391] [ohm:3202244:0]        ib_iface.c:1059 UCX  ERROR ibv_create_cq(cqe=256) failed: Connection timed out
[1740999332.600390] [ohm:3202246:0]        ib_iface.c:1059 UCX  ERROR ibv_create_cq(cqe=256) failed: Connection timed out
[1740999332.602335] [ohm:3202247:0]        ib_iface.c:1059 UCX  ERROR ibv_create_cq(cqe=256) failed: Connection timed out
[1740999332.607680] [ohm:3202248:0]        ib_iface.c:1059 UCX  ERROR ibv_create_cq(cqe=256) failed: Connection timed out
[1740999332.607672] [ohm:3202251:0]        ib_iface.c:1059 UCX  ERROR ibv_create_cq(cqe=256) failed: Connection timed out
[1740999332.607709] [ohm:3202254:0]        ib_iface.c:1059 UCX  ERROR ibv_create_cq(cqe=256) failed: Connection timed out
[1740999332.609138] [ohm:3202249:0]        ib_iface.c:1059 UCX  ERROR ibv_create_cq(cqe=256) failed: Connection timed out
[1740999332.609130] [ohm:3202253:0]        ib_iface.c:1059 UCX  ERROR ibv_create_cq(cqe=256) failed: Connection timed out
[1740999332.630849] [ohm:3202256:0]        ib_iface.c:1059 UCX  ERROR ibv_create_cq(cqe=256) failed: Connection timed out
[1740999332.634948] [ohm:3202269:0]        ib_iface.c:1059 UCX  ERROR ibv_create_cq(cqe=256) failed: Connection timed out
[1740999332.634975] [ohm:3202260:0]        ib_iface.c:1059 UCX  ERROR ibv_create_cq(cqe=256) failed: Connection timed out
[1740999332.636650] [ohm:3202266:0]        ib_iface.c:1059 UCX  ERROR ibv_create_cq(cqe=256) failed: Connection timed out


           ************************************************************
           *        Program running with 16 parallel MPI-processes    *
           *              working on a common directory               *
           ************************************************************

------------------------------------------------------------------------------
                         ORCA PROPERTY INTEGRAL CALCULATIONS
------------------------------------------------------------------------------

GBWName                                   ... orca.gbw
Number of atoms                           ...      7
Number of basis functions                 ...    182
Max core memory                           ...   1024 MB

Dipole integrals                          ... YES
Quadrupole integrals                      ...  NO
Linear momentum integrals                 ... YES
Angular momentum integrals                ... YES
Higher moments length integrals           ...  NO
Higher moments velocity integrals         ...  NO
Kinetic energy integrals                  ...  NO
GIAO right hand sides                     ...  NO
GIAO dipole derivative integrals          ...  NO
SOC integrals                             ...  NO
EPR diamagnetic integrals (GIAO)          ...  NO
EPR gauge integrals                       ...  NO
Field gradient integrals                  ...  NO (   0 nuclei)
Spin-dipole/Fermi contact integrals       ...  NO (   0 nuclei)
Contact density integrals                 ...  NO (   0 nuclei)
Nucleus-orbit integrals                   ...  NO (   0 nuclei)
Geometric perturbations                   ...  NO (   7 nuclei)

Choice of electric origin   ... Center of mass
Position of electric origin ... (  0.0448, -0.0072, -0.0001) 
Choice of magnetic origin   ... GIAO
Position of magnetic origin ... (  0.0000,  0.0000,  0.0000) 

Calculating integrals                     ... Electric Dipole (Length)     done (  0.0 sec)
Calculating integrals                     ... Linear Momentum              done (  0.0 sec)
Calculating integrals                     ... Angular Momentum  (ElOri)    done (  0.0 sec)

Property integrals calculated in   0.0 sec

Maximum memory used throughout the entire PROPINT-calculation: 10.4 MB
[1740999333.272150] [ohm:3202341:0]        ib_iface.c:1059 UCX  ERROR ibv_create_cq(cqe=256) failed: Connection timed out
[1740999333.279996] [ohm:3202338:0]        ib_iface.c:1059 UCX  ERROR ibv_create_cq(cqe=256) failed: Connection timed out
[1740999333.280086] [ohm:3202336:0]        ib_iface.c:1059 UCX  ERROR ibv_create_cq(cqe=256) failed: Connection timed out
[1740999333.280086] [ohm:3202340:0]        ib_iface.c:1059 UCX  ERROR ibv_create_cq(cqe=256) failed: Connection timed out
[1740999333.281048] [ohm:3202337:0]        ib_iface.c:1059 UCX  ERROR ibv_create_cq(cqe=256) failed: Connection timed out
[1740999333.291062] [ohm:3202339:0]        ib_iface.c:1059 UCX  ERROR ibv_create_cq(cqe=256) failed: Connection timed out
[1740999333.296818] [ohm:3202346:0]        ib_iface.c:1059 UCX  ERROR ibv_create_cq(cqe=256) failed: Connection timed out
[1740999333.297532] [ohm:3202343:0]        ib_iface.c:1059 UCX  ERROR ibv_create_cq(cqe=256) failed: Connection timed out
[1740999333.300040] [ohm:3202344:0]        ib_iface.c:1059 UCX  ERROR ibv_create_cq(cqe=256) failed: Connection timed out
[1740999333.300249] [ohm:3202342:0]        ib_iface.c:1059 UCX  ERROR ibv_create_cq(cqe=256) failed: Connection timed out
[1740999333.304324] [ohm:3202349:0]        ib_iface.c:1059 UCX  ERROR ibv_create_cq(cqe=256) failed: Connection timed out
[1740999333.304649] [ohm:3202364:0]        ib_iface.c:1059 UCX  ERROR ibv_create_cq(cqe=256) failed: Connection timed out
[1740999333.305437] [ohm:3202351:0]        ib_iface.c:1059 UCX  ERROR ibv_create_cq(cqe=256) failed: Connection timed out
[1740999333.305712] [ohm:3202348:0]        ib_iface.c:1059 UCX  ERROR ibv_create_cq(cqe=256) failed: Connection timed out
[1740999333.307217] [ohm:3202355:0]        ib_iface.c:1059 UCX  ERROR ibv_create_cq(cqe=256) failed: Connection timed out
[1740999333.309710] [ohm:3202360:0]        ib_iface.c:1059 UCX  ERROR ibv_create_cq(cqe=256) failed: Connection timed out


           ************************************************************
           *        Program running with 16 parallel MPI-processes    *
           *              working on a common directory               *
           ************************************************************
------------------------------------------------------------------------------
                        ORCA TD-DFT/TDA CALCULATION
------------------------------------------------------------------------------

Input orbitals are from        ... orca.gbw
CI-vector output               ... orca.cis
Solver                         ... FN-2001
Tamm-Dancoff approximation     ... operative
CIS-Integral strategy          ... AO-integrals
Integral handling              ... AO integral Direct
Max. core memory used          ... 512 MB
Reference state                ... UHF
Follow IRoot                   ... off
Number of operators            ... 2
Orbital ranges used for CIS calculation:
 Operator 0:  Orbitals   3... 12  to  11...181

-------------------
XC-INTEGRATION GRID
-------------------

General Integration Accuracy     IntAcc      ... 3.467
Radial Grid Type                 RadialGrid  ... OptM3 with GC (2021)
Angular Grid (max. ang.)         AngularGrid ... 1 (Lebedev-50)
Angular grid pruning method      GridPruning ... 4 (adaptive)
Weight generation scheme         WeightScheme... mBecke (2022)
Basis function cutoff            BFCut       ... 1.0000e-11
Integration weight cutoff        WCut        ... 1.0000e-14
Partially contracted basis set               ... off
Rotationally invariant grid construction     ... off
Angular grids for H and He will be reduced by one unit
Diffuse basis detected: some atoms will have their outermost
                        angular grid increased by 1.

Total number of grid points                  ...     4741
Total number of batches                      ...       77
Average number of points per batch           ...       61
Average number of grid points per atom       ...      677

---------------------
COSX-INTEGRATION GRID
---------------------

General Integration Accuracy     IntAcc      ... 3.067
Radial Grid Type                 RadialGrid  ... OptM3 with GC (2021)
Angular Grid (max. ang.)         AngularGrid ... 1 (Lebedev-50)
Angular grid pruning method      GridPruning ... 4 (adaptive)
Weight generation scheme         WeightScheme... mBecke (2022)
Basis function cutoff            BFCut       ... 1.0000e-11
Integration weight cutoff        WCut        ... 1.0000e-14
Partially contracted basis set               ... on
Rotationally invariant grid construction     ... off
Angular grids for H and He will be reduced by one unit
Diffuse basis detected: some atoms will have their outermost
                        angular grid increased by 1.

Total number of grid points                  ...     2157
Total number of batches                      ...       22
Average number of points per batch           ...       98
Average number of grid points per atom       ...      308

---------------
TD-DFT XC SETUP
---------------

DFT calculation                         ... on
Name of the grid file                   ... orca.grid_cis.tmp
RI-approximation                        ... on
Aux-basis dimension                     ... 0
Functional (TD-DFT)
  Functional kind                       .... Exchange-Correlation
  Functional name                       .... wB97M-V exchange-correlation functional
  Functional family                     .... Hybrid MGGA
  Functional refs                              
    [ 0] N. Mardirossian and M. Head-Gordon.,  J. Chem. Phys. 144, 214110 (2016), doi: 10.1063/1.4952647
  Fraction of HF Exchange (short range) .... 0.1500
  Fraction of HF Exchange (long range)  .... 1.0000
  Range separation parameter mu         .... 0.3000
  Functional external parameters        .... 17
    Parameter  0 _cx00      =  8.500000e-01 : u^00 coefficient for exchange
    Parameter  1 _cx01      =  1.007000e+00 : u^01 coefficient for exchange
    Parameter  2 _cx10      =  2.590000e-01 : u^10 coefficient for exchange
    Parameter  3 _css00     =  4.430000e-01 : u^00 coefficient for same-spin correlation
    Parameter  4 _css04     = -1.437000e+00 : u^04 coefficient for same-spin correlation
    Parameter  5 _css10     = -4.535000e+00 : u^10 coefficient for same-spin correlation
    Parameter  6 _css20     = -3.390000e+00 : u^20 coefficient for same-spin correlation
    Parameter  7 _css43     =  4.278000e+00 : u^43 coefficient for same-spin correlation
    Parameter  8 _cos00     =  1.000000e+00 : u^00 coefficient for opposite-spin correlation
    Parameter  9 _cos10     =  1.358000e+00 : u^10 coefficient for opposite-spin correlation
    Parameter 10 _cos20     =  2.924000e+00 : u^20 coefficient for opposite-spin correlation
    Parameter 11 _cos21     = -8.812000e+00 : u^21 coefficient for opposite-spin correlation
    Parameter 12 _cos60     = -1.390000e+00 : u^60 coefficient for opposite-spin correlation
    Parameter 13 _cos61     =  9.142000e+00 : u^61 coefficient for opposite-spin correlation
    Parameter 14 _alpha     =  1.000000e+00 : fraction of HF exchange
    Parameter 15 _beta      = -8.500000e-01 : fraction of short-range exchange
    Parameter 16 _omega     =  3.000000e-01 : range-separation constant
Hybrid DFT                              ... on
   Exchange mixing (TD-DFT)             ...  0.150
   GGA exch. scaling (TD-DFT)           ...  0.000
   GGA corr. scaling (TD-DFT)           ...  1.000
Range-Separated Exchange                ... on
   Range Range separation parameter mu  .... 0.300
   Max. amount of RS exchange (TD-DFT)  ...  0.850

Building densities             ... done
Calculating rho(r) on the grid ... done
Building xc-kernel on the grid ... done
                    *** TD-DFT CALCULATION INITIALIZED ***

------------------------
DAVIDSON-DIAGONALIZATION
------------------------

Dimension of the eigenvalue problem            ...   1710
Number of roots to be determined               ...      2
Maximum size of the expansion space            ...     20
Maximum number of iterations                   ...    100
Convergence tolerance for the residual         ...    2.500e-07
Convergence tolerance for the energies         ...    2.500e-07
Orthogonality tolerance                        ...    1.000e-14
Level Shift                                    ...    0.000e+00
Constructing the preconditioner                ... o.k.
Building the initial guess                     ... o.k.
Number of trial vectors determined             ...     20


                       ****Iteration    0****
   Time for iteration     :  TOTAL=0.2 TRAFO=0.0 RIJ=0.0 COSX=0.2
   Size of expansion space: 6
   Lowest Energy          :    -0.180078690367
   Maximum Energy change  :     0.180078690367 (vector 0)
   Maximum residual norm  :     0.002365143717

                       ****Iteration    1****
   Time for iteration     :  TOTAL=0.1 TRAFO=0.0 COSX=0.1
   Size of expansion space: 8
   Lowest Energy          :    -0.184079590555
   Maximum Energy change  :     0.010064418525 (vector 1)
   Maximum residual norm  :     0.000387523123

                       ****Iteration    2****
   Time for iteration     :  TOTAL=0.1 TRAFO=0.0 COSX=0.1
   Size of expansion space: 10
   Lowest Energy          :    -0.184129109342
   Maximum Energy change  :     0.003333513950 (vector 1)
   Maximum residual norm  :     0.000269733814

                       ****Iteration    3****
   Time for iteration     :  TOTAL=0.1 TRAFO=0.0 COSX=0.1
   Size of expansion space: 12
   Lowest Energy          :    -0.184130123413
   Maximum Energy change  :     0.001476954855 (vector 1)
   Maximum residual norm  :     0.000219153114

                       ****Iteration    4****
   Time for iteration     :  TOTAL=0.1 TRAFO=0.0 COSX=0.1
   Size of expansion space: 14
   Lowest Energy          :    -0.184130139422
   Maximum Energy change  :     0.004621794884 (vector 1)
   Maximum residual norm  :     0.001954794355

                       ****Iteration    5****
   Time for iteration     :  TOTAL=0.1 TRAFO=0.0 COSX=0.1
   Size of expansion space: 16
   Lowest Energy          :    -0.184130139626
   Maximum Energy change  :     0.013807349853 (vector 1)
   Maximum residual norm  :     0.003422750479

                       ****Iteration    6****
   Time for iteration     :  TOTAL=0.1 TRAFO=0.0 COSX=0.1
   Size of expansion space: 18
   Lowest Energy          :    -0.184130139629
   Maximum Energy change  :     0.005700530891 (vector 1)
   Maximum residual norm  :     0.000469216612

                       ****Iteration    7****
   Time for iteration     :  TOTAL=0.1 TRAFO=0.0 COSX=0.1
   Size of expansion space: 20
   Lowest Energy          :    -0.184130139629
   Maximum Energy change  :     0.000505949537 (vector 1)
   Maximum residual norm  :     0.000033873028
   Rebuilding the expansion space

                       ****Iteration    8****
   Time for iteration     :  TOTAL=0.2 TRAFO=0.0 RIJ=0.0 COSX=0.1
   Size of expansion space: 4
   Lowest Energy          :    -0.184134904288
   Maximum Energy change  :     0.000026945377 (vector 1)
   Maximum residual norm  :     0.000004170767

                       ****Iteration    9****
   Time for iteration     :  TOTAL=0.1 TRAFO=0.0 COSX=0.1
   Size of expansion space: 6
   Lowest Energy          :    -0.184134904289
   Maximum Energy change  :     0.000002782991 (vector 1)
   Maximum residual norm  :     0.000000241831

      *** CONVERGENCE OF RESIDUAL NORM REACHED ***

Storing the converged CI vectors               ... orca.cis3

                 *** DAVIDSON DONE ***

Total time for solving the CIS problem:     1.440sec

---------------------
SF-TDA EXCITED STATES
---------------------

the weight of the individual excitations are printed if larger than 1.0e-02

UHF/UKS reference: multiplicity estimated based on rounded <S**2> value, RELEVANCE IS LIMITED!

(SPIN-FLIP GROUND STATE)
STATE  1:  E=  -0.184135 au     -5.011 eV   -40412.9 cm**-1 <S**2> =   0.035019 Mult 1
    12a ->  11b  :     0.979005 (c= -0.98944659)

STATE  2:  E=   0.021904 au      0.596 eV     4807.4 cm**-1 <S**2> =   1.066191 Mult 3
    12a ->  14b  :     0.539415 (c=  0.73444865)
    12a ->  16b  :     0.042377 (c=  0.20585632)
    12a ->  17b  :     0.187077 (c=  0.43252380)
    12a ->  20b  :     0.108647 (c= -0.32961699)
    12a ->  21b  :     0.060206 (c=  0.24536820)
    12a ->  25b  :     0.026996 (c=  0.16430377)


-----------------------------
TD-DFT/TDA-EXCITATION SPECTRA
-----------------------------

Center of mass = (  0.0448, -0.0072, -0.0001)
Generating CIS-Spin-flip transition densities           ... done

UHF/UKS reference: multiplicity estimated based on rounded <S**2> value, use it judiciously!

----------------------------------------------------------------------------------------------------
          SPIN FLIP ABSORPTION SPECTRUM VIA TRANSITION ELECTRIC DIPOLE MOMENTS    
----------------------------------------------------------------------------------------------------
     Transition      Energy     Energy  Wavelength fosc(D2)      D2        DX        DY        DZ   
                      (eV)      (cm-1)    (nm)                 (au**2)    (au)      (au)      (au)  
[...]
      f+3     :    -0.008490
      f-3     :     0.000164
  2 C s       :    -0.035517  s :    -0.035517
      pz      :     0.003501  p :    -0.286869
      px      :    -0.009336
      py      :    -0.281034
      dz2     :    -0.009338  d :    -0.053804
      dxz     :    -0.002608
      dyz     :     0.020429
      dx2y2   :    -0.037598
      dxy     :    -0.024689
      f0      :     0.000498  f :    -0.002197
      f+1     :    -0.000037
      f-1     :    -0.000916
      f+2     :     0.001739
      f-2     :     0.000809
      f+3     :    -0.004012
      f-3     :    -0.000278
  3 H s       :     0.033835  s :     0.033835
      pz      :     0.000970  p :    -0.027458
      px      :    -0.000647
      py      :    -0.027781
      dz2     :    -0.000114  d :    -0.000189
      dxz     :     0.000076
      dyz     :    -0.000064
      dx2y2   :     0.000005
      dxy     :    -0.000092
  4 H s       :     0.033901  s :     0.033901
      pz      :     0.000970  p :    -0.027488
      px      :    -0.000648
      py      :    -0.027810
      dz2     :    -0.000114  d :    -0.000190
      dxz     :     0.000075
      dyz     :    -0.000064
      dx2y2   :     0.000004
      dxy     :    -0.000092
  5 H s       :     0.011117  s :     0.011117
      pz      :    -0.000800  p :    -0.112355
      px      :    -0.001028
      py      :    -0.110528
      dz2     :    -0.000186  d :    -0.004666
      dxz     :    -0.000168
      dyz     :    -0.003489
      dx2y2   :     0.000050
      dxy     :    -0.000872
  6 H s       :     0.011123  s :     0.011123
      pz      :    -0.000801  p :    -0.112267
      px      :    -0.001025
      py      :    -0.110441
      dz2     :    -0.000185  d :    -0.004661
      dxz     :    -0.000167
      dyz     :    -0.003491
      dx2y2   :     0.000050
      dxy     :    -0.000868


                      *****************************
                      * MAYER POPULATION ANALYSIS *
                      *****************************

  NA   - Mulliken gross atomic population
  ZA   - Total nuclear charge
  QA   - Mulliken gross atomic charge
  VA   - Mayer's total valence
  BVA  - Mayer's bonded valence
  FA   - Mayer's free valence

  ATOM       NA         ZA         QA         VA         BVA        FA
  0 O      8.3028     8.0000    -0.3028     2.5536     1.6639     0.8897
  1 C      5.9101     6.0000     0.0899     3.3345     3.1987     0.1358
  2 C      5.8342     6.0000     0.1658     3.8137     3.2531     0.5606
  3 H      0.8049     1.0000     0.1951     1.0525     1.0486     0.0039
  4 H      0.8054     1.0000     0.1946     1.0536     1.0496     0.0040
  5 H      1.1713     1.0000    -0.1713     1.4377     1.4290     0.0087
  6 H      1.1713     1.0000    -0.1713     1.4382     1.4296     0.0086

  Mayer bond orders larger than 0.100000
B(  0-O ,  1-C ) :   0.7720 B(  0-O ,  2-C ) :   0.6898 B(  1-C ,  2-C ) :   0.6496 
B(  1-C ,  3-H ) :   0.9886 B(  1-C ,  4-H ) :   0.9885 B(  1-C ,  5-H ) :  -0.1002 
B(  2-C ,  5-H ) :   0.9716 B(  2-C ,  6-H ) :   0.9717 B(  5-H ,  6-H ) :   0.5021 



-------
TIMINGS
-------

Total TD-DFT gradient time  ....        5.605 sec

Fock matrix formation       ....       1.220 sec  ( 21.8%)
  Coulomb formation         ....       0.940 sec  ( 77.1% of F)
  XC integration            ....       0.280 sec  ( 22.9% of F)
Z-vector equation           ....       1.626 sec  ( 29.0%)
Densities                   ....       0.000 sec  (  0.0%)
One electron gradient       ....       0.010 sec  (  0.2%)
Two electron gradient       ....       0.000 sec  (  0.0%)
RI-J Coulomb gradient       ....       0.097 sec  (  1.7%)
COSX gradient               ....       0.438 sec  (  7.8%)
XC gradient                 ....       1.982 sec  ( 35.4%)

Maximum memory used throughout the entire CIS-calculation: 35.8 MB
=> NOW LEAVING ORCA_CIS


-------------------------------------------------------------------------------
                          DFT DISPERSION CORRECTION                            
                                                                               
                              DFTD3 V3.1  Rev 1                                
                          USING Becke-Johnson damping                          
-------------------------------------------------------------------------------
The WB97M functional is recognized
Active option DFTDOPT                   ...         4   

molecular C6(AA) [au] = 351.552148 


            DFT-D V3
 parameters
 s6 scaling factor         :     1.0000 
 a1 scaling factor         :     0.5660 
 s8 scaling factor         :     0.3908 
 a2 scaling factor         :     3.1280 
 ad hoc parameters k1-k3   :    16.0000     1.3333    -4.0000 

 Edisp/kcal,au: -3.288710601807  -0.005240893384 
 E6   /kcal   :  -2.652311719 
 E8   /kcal   :  -0.636398883 
 % E8         :  19.351015040 

-------------------------   ----------------
Dispersion correction           -0.005240893
-------------------------   ----------------


-------------------------   --------------------
FINAL SINGLE POINT ENERGY      -153.651769390959
-------------------------   --------------------

[1740999341.144578] [ohm:3202450:0]        ib_iface.c:1059 UCX  ERROR ibv_create_cq(cqe=256) failed: Connection timed out
[1740999341.144577] [ohm:3202446:0]        ib_iface.c:1059 UCX  ERROR ibv_create_cq(cqe=256) failed: Connection timed out
[1740999341.144912] [ohm:3202444:0]        ib_iface.c:1059 UCX  ERROR ibv_create_cq(cqe=256) failed: Connection timed out
[1740999341.148011] [ohm:3202448:0]        ib_iface.c:1059 UCX  ERROR ibv_create_cq(cqe=256) failed: Connection timed out
[1740999341.149914] [ohm:3202445:0]        ib_iface.c:1059 UCX  ERROR ibv_create_cq(cqe=256) failed: Connection timed out
[1740999341.149919] [ohm:3202447:0]        ib_iface.c:1059 UCX  ERROR ibv_create_cq(cqe=256) failed: Connection timed out
[1740999341.151972] [ohm:3202443:0]        ib_iface.c:1059 UCX  ERROR ibv_create_cq(cqe=256) failed: Connection timed out
[1740999341.154626] [ohm:3202453:0]        ib_iface.c:1059 UCX  ERROR ibv_create_cq(cqe=256) failed: Connection timed out
[1740999341.154655] [ohm:3202449:0]        ib_iface.c:1059 UCX  ERROR ibv_create_cq(cqe=256) failed: Connection timed out
[1740999341.161766] [ohm:3202451:0]        ib_iface.c:1059 UCX  ERROR ibv_create_cq(cqe=256) failed: Connection timed out
[1740999341.171183] [ohm:3202465:0]        ib_iface.c:1059 UCX  ERROR ibv_create_cq(cqe=256) failed: Connection timed out
[1740999341.171203] [ohm:3202456:0]        ib_iface.c:1059 UCX  ERROR ibv_create_cq(cqe=256) failed: Connection timed out
[1740999341.171570] [ohm:3202455:0]        ib_iface.c:1059 UCX  ERROR ibv_create_cq(cqe=256) failed: Connection timed out
[1740999341.175247] [ohm:3202458:0]        ib_iface.c:1059 UCX  ERROR ibv_create_cq(cqe=256) failed: Connection timed out
[1740999341.178030] [ohm:3202471:0]        ib_iface.c:1059 UCX  ERROR ibv_create_cq(cqe=256) failed: Connection timed out
[1740999341.178127] [ohm:3202468:0]        ib_iface.c:1059 UCX  ERROR ibv_create_cq(cqe=256) failed: Connection timed out


           ************************************************************
           *        Program running with 16 parallel MPI-processes    *
           *              working on a common directory               *
           ************************************************************

------------------------------------------------------------------------------
                              ORCA PROPERTY CALCULATIONS
------------------------------------------------------------------------------

GBWName                                 ... orca.gbw
Number of atoms                         ...      7
Number of basis functions               ...    182
Max core memory                         ...   1024 MB

Electric properties:
Dipole moment                           ... YES
Quadrupole moment                       ...  NO
Static polarizability (Dipole/Dipole)   ...  NO
Static polarizability (Dipole/Quad.)    ...  NO
Static polarizability (Quad./Quad.)     ...  NO
Static polarizability (Velocity)        ...  NO

Atomic electric properties:
Dipole moment                           ...  NO
Quadrupole moment                       ...  NO
Static polarizability                   ...  NO

Choice of electric origin               ... Center of mass
Position of electric origin             ...     0.044769    -0.007174    -0.000113

General magnetic properties:
Magnetizability                         ...  NO

EPR properties:
g-Tensor (aka g-matrix)                 ...  NO
Zero-Field splitting spin-orbit         ...  NO
Zero-field splitting spin-spin          ...  NO
Hyperfine couplings                     ...  NO (   0 nuclei)
Quadrupole couplings                    ...  NO (   0 nuclei)
Contact density                         ...  NO (   0 nuclei)

NMR properties:
Chemical shifts                         ...  NO (   0 nuclei)
Spin-rotation constants                 ...  NO (   0 nuclei)
Spin-spin couplings                     ...  NO (   0 nuclei,    0 pairs)

Choice of magnetic origin               ... GIAO
Position of magnetic origin             ...     0.000000     0.000000     0.000000

Properties with geometric perturbations:
SCF Hessian                             ...  NO
IR spectrum                             ...  NO
VCD spectrum                            ...  NO
X-ray spectroscopy properties:
SCF XES/XAS/RIXS spectra                ...  NO


-------------
DIPOLE MOMENT
-------------

Method             : SCF
Type of density    : Electron Density
Multiplicity       :   3
Irrep              :   0
Energy             :  -153.6684328143055893 Eh
Relativity type    : 
Basis              : AO
                                X                 Y                 Z
Electronic contribution:      0.792650689       2.370011086      -0.000389112
Nuclear contribution   :     -0.140001579      -2.453706802       0.000408398
                        -----------------------------------------
Total Dipole Moment    :      0.652649110      -0.083695716       0.000019286
                        -----------------------------------------
Magnitude (a.u.)       :      0.657993795
Magnitude (Debye)      :      1.672487311



--------------------
Rotational spectrum 
--------------------
 
Rotational constants in cm-1:             0.892660             0.677312             0.455168 
Rotational constants in MHz :         26761.285828         20305.310270         13645.581874 

Dipole components along the rotational axes: 
x,y,z [a.u.] :     0.394872     0.526338    -0.000246 
x,y,z [Debye]:     1.003685     1.337846    -0.000624 

 

-------------
DIPOLE MOMENT
-------------

Method             : TDA/CIS
Type of density    : Electron Density
Level              : Relaxed density
State              :   2
Multiplicity       :   3
Irrep              :   0
Energy             :     0.0000000000000000 Eh
Relativity type    : 
Basis              : AO
                                X                 Y                 Z
Electronic contribution:      0.726493649       2.292663340      -0.000211831
Nuclear contribution   :     -0.140001579      -2.453706802       0.000408398
                        -----------------------------------------
Total Dipole Moment    :      0.586492070      -0.161043461       0.000196568
                        -----------------------------------------
Magnitude (a.u.)       :      0.608200611
Magnitude (Debye)      :      1.545923097



--------------------
Rotational spectrum 
--------------------
 
Rotational constants in cm-1:             0.892660             0.677312             0.455168 
Rotational constants in MHz :         26761.285828         20305.310270         13645.581874 

Dipole components along the rotational axes: 
x,y,z [a.u.] :     0.293297     0.532809    -0.000047 
x,y,z [Debye]:     0.745501     1.354292    -0.000119 

 

Dipole moment calculation done in   0.0 sec 

Maximum memory used throughout the entire PROP-calculation: 7.6 MB
[1740999341.820177] [ohm:3202529:0]        ib_iface.c:1059 UCX  ERROR ibv_create_cq(cqe=256) failed: Connection timed out
[1740999341.820177] [ohm:3202531:0]        ib_iface.c:1059 UCX  ERROR ibv_create_cq(cqe=256) failed: Connection timed out
[1740999341.820291] [ohm:3202527:0]        ib_iface.c:1059 UCX  ERROR ibv_create_cq(cqe=256) failed: Connection timed out
[1740999341.835285] [ohm:3202542:0]        ib_iface.c:1059 UCX  ERROR ibv_create_cq(cqe=256) failed: Connection timed out
[1740999341.836340] [ohm:3202536:0]        ib_iface.c:1059 UCX  ERROR ibv_create_cq(cqe=256) failed: Connection timed out
[1740999341.852653] [ohm:3202533:0]        ib_iface.c:1059 UCX  ERROR ibv_create_cq(cqe=256) failed: Connection timed out
[1740999341.853783] [ohm:3202526:0]        ib_iface.c:1059 UCX  ERROR ibv_create_cq(cqe=256) failed: Connection timed out
[1740999341.853778] [ohm:3202530:0]        ib_iface.c:1059 UCX  ERROR ibv_create_cq(cqe=256) failed: Connection timed out
[1740999341.853780] [ohm:3202532:0]        ib_iface.c:1059 UCX  ERROR ibv_create_cq(cqe=256) failed: Connection timed out
[1740999341.853780] [ohm:3202534:0]        ib_iface.c:1059 UCX  ERROR ibv_create_cq(cqe=256) failed: Connection timed out
[1740999341.854054] [ohm:3202538:0]        ib_iface.c:1059 UCX  ERROR ibv_create_cq(cqe=256) failed: Connection timed out
[1740999341.854123] [ohm:3202528:0]        ib_iface.c:1059 UCX  ERROR ibv_create_cq(cqe=256) failed: Connection timed out
[1740999341.878695] [ohm:3202556:0]        ib_iface.c:1059 UCX  ERROR ibv_create_cq(cqe=256) failed: Connection timed out
[1740999341.882068] [ohm:3202549:0]        ib_iface.c:1059 UCX  ERROR ibv_create_cq(cqe=256) failed: Connection timed out
[1740999341.885087] [ohm:3202546:0]        ib_iface.c:1059 UCX  ERROR ibv_create_cq(cqe=256) failed: Connection timed out
[1740999341.885076] [ohm:3202553:0]        ib_iface.c:1059 UCX  ERROR ibv_create_cq(cqe=256) failed: Connection timed out

--------------------------------
SUGGESTED CITATIONS FOR THIS RUN
--------------------------------

Below you find a list of papers that are relevant to this ORCA run
We neither can nor want to force you to cite these papers, but we appreciate if you do
You receive ORCA, which is the product of decades of hard work by many enthusiastic individuals, for free
The only thing we kindly ask in return is that you cite our papers,
We deeply appreciate it, if you show your appreciation for ORCA by not just citing the generic ORCA reference.

Please note that relegating all ORCA citations to the supporting information does *not* help us.
SI sections are not indexed - citations you put there will not count into any citation statistics
But we need these citations in order to attract the funding resources that allow us to do what we are doing

Therefore, if you are a happy ORCA user, please consider citing a few of the papers listed below in the main body of your paper

In addition to the list printed below, the program has created the file orca.bibtex that contains the list in bibtex format
You can import this file easily into all common literature databanks and citation aid programs


List of essential papers. We consider these as the minimum necessary citations

  1. Neese,F.
     Software update: the ORCA program system, version 5.0
     WIRES Comput. Molec. Sci., 2022 12(1)e1606
     doi.org/10.1002/wcms.1606

List of papers to cite with high priority. The work reported in these papers was absolutely
necessary for this run to complete.
Our perspective: the developers of density functionals and basis sets usually get cited in chemistry papers
Good! But without the algorithms to do something with them, the functionals or basis sets would not do anything.
Hence, in our opinion, the algorithm design and method developments papers are equally worthy of getting cited

  1. Neese,F.; Olbrich,G.
     Efficient use of the resolution of the identity approximation in time-dependent density functional calculations with hybrid density functionals
     Chem. Phys. Lett., 2002 362 170-178
     doi.org/10.1016/s0009-2614(02)01053-9
  2. Neese,F.
     An improvement of the resolution of the identity approximation for the formation of the Coulomb matrix
     J. Comp. Chem., 2003 24(14)1740-1747
     doi.org/10.1002/jcc.10318
  3. Neese,F.; Wennmohs,F.; Hansen,A.; Becker,U.
     Efficient, approximate and parallel Hartree-Fock and hybrid DFT calculations. A 'chain-of-spheres' algorithm for the Hartree-Fock exchange
     Chem. Phys., 2009 356(1-3)98-109
     doi.org/10.1016/j.chemphys.2008.10.036
  4. Petrenko,T.; Kossmann,S.; Neese,F.
     Efficient time-dependent density functional theory approximations for hybrid density functionals: Analytical gradients and parallelization
     J. Chem. Phys., 2011 134 054116
     doi.org/10.1063/1.3533441
  5. Helmich-Paris,B.; de Souza,B.; Neese,F.; Izsák,R.
     An improved chain of spheres for exchange algorithm
     J. Chem. Phys., 2021 155 104109
     doi.org/doi: 10.1063/5.0058766.
  6. Neese,F.
     The SHARK Integral Generation and Digestion System
     J. Comp. Chem., 2022  1-16
     doi.org/10.1002/jcc.26942
  7. Lehtola,S.; Steigemann,C.; Oliveira,M.; Marques,M.
     Recent developments in Libxc - A comprehensive library of functionals for density functional theory
     Software X, 2018 7 
     doi.org/10.1016/j.softx.2017.11.002
  8. Grimme,S.; Antony,J.; Ehrlich,S.; Krieg,H.
     A consistent and accurate ab initio parametrization of density functional dispersion correction (DFT-D) for the 94 elements H-Pu
     J. Chem. Phys., 2010 132 154104-XXXX
     doi.org/10.1063/1.3382344
  9. Grimme,S.; Ehrlich,S.; Goerigk,L.
     Effect of the damping function in dispersion corrected density functional theory
     J. Comput. Chem., 2011 32(7)1456-1465
     doi.org/10.1002/jcc.21759

List of suggested additional citations. These are papers that are important in the 'surrounding' of 
of this run, or papers that preceded the highly important papers. If you like your results we are grateful for a citation.

  1. Izsak,R.; Neese,F.
     An overlap fitted chain of spheres exchange method
     J. Chem. Phys., 2011 135 144105
     doi.org/10.1063/1.3646921
  2. Izsak,R.; Hansen,A.; Neese,F.
     The resolution of identity and chain of spheres approximations for the LPNO-CCSD singles Fock term
     Molec. Phys., 2012 110 2413-2417
     doi.org/10.1080/00268976.2012.687466
  3. Neese,F.
     The ORCA program system
     WIRES Comput. Molec. Sci., 2012 2(1)73-78
     doi.org/10.1002/wcms.81
  4. Izsak,R.; Neese,F.; Klopper,W.
     Robust fitting techniques in the chain of spheres approximation to the Fock exchange: The role of the complementary space
     J. Chem. Phys., 2013 139 
     doi.org/10.1063/1.4819264
  5. Neese,F.
     Software update: the ORCA program system, version 4.0
     WIRES Comput. Molec. Sci., 2018 8(1)1-6
     doi.org/10.1002/wcms.1327
  6. Neese,F.; Wennmohs,F.; Becker,U.; Riplinger,C.
     The ORCA quantum chemistry program package
     J. Chem. Phys., 2020 152 Art. No. L224108
     doi.org/10.1063/5.0004608

List of optional additional citations

  1. Neese,F.
     Approximate second-order SCF convergence for spin unrestricted wavefunctions
     Chem. Phys. Lett., 2000 325(1-3)93-98
     doi.org/10.1016/s0009-2614(00)00662-x

Timings for individual modules:

Sum of individual times          ...       17.350 sec (=   0.289 min)
Startup calculation              ...        1.018 sec (=   0.017 min)   5.9 %
SCF iterations                   ...        7.153 sec (=   0.119 min)  41.2 %
Property integrals               ...        0.673 sec (=   0.011 min)   3.9 %
Property calculations            ...        0.706 sec (=   0.012 min)   4.1 %
CIS module                       ...        7.801 sec (=   0.130 min)  45.0 %
                             ****ORCA TERMINATED NORMALLY****
TOTAL RUN TIME: 0 days 0 hours 0 minutes 18 seconds 103 msec
