30
Properties=species:S:1:pos:R:3:REF_forces:R:3 REF_energy=-24728.88977208104 pbc="F F F"
O        2.51836095       1.23975763      -0.42229952       0.03247836       0.08540719      -0.01301204
O       -0.80570114       0.81546112      -2.38931243       0.39775391      -0.09174717      -1.68858426
O        0.59586030      -2.73216555      -1.50855283       0.01773082      -0.01157863       0.04267635
O       -2.49498861      -1.60057354       1.07164764       0.02998742       0.20453832       0.18247471
N        0.60332226      -2.08235086       0.67371480      -0.00667359       0.02352458       0.09440319
N       -1.84622448       0.54845767       1.44551839       0.29173881       0.70826512      -0.46532133
N        1.62596812      -0.78025389      -0.92704310       0.04416861      -0.00241869       0.05423206
N       -1.69780133      -0.34757562      -0.66373187      -0.57500589      -1.15830771       0.32360905
C        1.41759895       0.06418769       1.31890043       0.25958920      -0.10935828       0.07161536
C       -0.84234685       1.87498832      -0.26339097       1.48680807      -0.71533599      -7.26826357
C        0.81021559      -1.09329229       1.60660602       0.00890631      -0.06391309      -0.06436179
C       -1.22543420       1.69464941       1.00509744      -1.90465312       0.21889777       7.17105523
C        1.69875244       1.13534611       2.32132754       0.07634900       0.04899741       0.01850590
C       -0.17683953       3.11367118      -0.76840981      -0.44727007      -0.41147366       0.75704187
C        1.91189115       0.25905150      -0.04451699      -0.09181863      -0.08385200      -0.07591652
C       -1.09467419       0.79056605      -1.21454955       0.33765698       2.05894091       2.00407705
C        0.91756895      -1.93223097      -0.65976014      -0.02927072       0.02077245      -0.11482861
C       -2.05581909      -0.55162363       0.64711326       0.05165027      -0.44779133      -0.93154001
H        0.43548873      -1.31741750       2.59393753       0.00092322       0.00268822       0.00912311
H       -1.07983271       2.45310246       1.75868131      -0.05572667      -0.13773513      -0.03950626
H        1.38711812       2.10521421       1.93948256       0.00783411      -0.03283083       0.03844268
H        1.18466314       0.93573343       3.25956759      -0.01038661       0.01906296      -0.01597588
H        2.76662127       1.20874431       2.52038109       0.02994666      -0.01976539       0.00917623
H       -0.75127833       3.54871355      -1.58375853      -0.02349462      -0.06910142      -0.15712253
H       -0.08070797       3.84911700       0.02723697       0.00179132      -0.00926394       0.00269720
H        0.81476207       2.88086255      -1.14951923       0.08424464      -0.11060208      -0.11212105
H       -0.01477779      -2.84751169       0.88275918       0.01073391      -0.00100004      -0.00842387
H       -2.09898537       0.43610726       2.41004032      -0.02718294       0.04010767       0.09520039
H        1.85067733      -0.62014957      -1.89709805      -0.02468076       0.00415928      -0.00615956
H       -1.82085781      -1.13358636      -1.28546906       0.02506574       0.05684517       0.06679045
30
Properties=species:S:1:pos:R:3:REF_forces:R:3 REF_energy=-24729.52258261603 pbc="F F F"
O        3.38496560       0.40700001      -0.70602623      -0.07853359       0.06238579       0.06077113
O       -0.81710847       1.36989682      -2.45704968      -0.00856204       0.05383622      -0.17176403
O        0.41955081      -2.94893881      -0.58765432       0.02803008       0.02693179      -0.03333963
O       -3.05183962      -1.72923074      -0.11311661      -0.07029054      -0.08941571       0.03803606
N        0.32357170      -1.40935222       1.07931303      -0.10406401      -0.12063000      -0.22906863
N       -2.10454307      -0.01651953       1.05182248       0.08681021      -0.31227222      -0.02543146
N        1.62975209      -1.03487495      -0.80514863       0.08287413       0.21513134       0.10616235
N       -1.56652712      -0.36276775      -1.17998663      -0.12660051      -0.14031867       0.07852256
C        1.84153367       0.45537281       1.06929652      -2.26127263      -0.08779722       0.31779674
C       -0.88020030       1.65816554      -0.10775656      -0.14111932      -0.82131413       0.63070676
C        0.41030487      -0.03534765       1.51653665       1.18991131       0.00130774      -0.17939363
C       -0.94276160       0.82231606       1.17365767       0.86394355       0.83481436      -0.91208024
C        2.62338150       1.34367196       1.94024806      -0.00121161       0.14263218       0.07289806
C       -0.91104636       3.12749978      -0.08393680       0.36068200      -0.10043607      -0.06675182
C        2.36339136      -0.01833038      -0.19369317       0.12668901      -0.13368656      -0.01928606
C       -1.06200655       0.92612131      -1.35252769       0.03147774       0.27757470       0.41781301
C        0.75461070      -1.87662357      -0.13990218      -0.15592716      -0.07811052       0.20069799
C       -2.29951128      -0.78751397      -0.07224388       0.02800761       0.10918869      -0.09888155
H        0.42996867      -0.06730420       2.60930389       0.01368858       0.09174309      -0.09572529
H       -1.09520782       1.49884567       2.01146411       0.04545167      -0.01763673      -0.01616394
H        3.59163120       1.55546836       1.49847356      -0.00067789       0.01211207       0.00644857
H        2.09950109       2.28824188       2.12046989       0.02160855      -0.01950028      -0.02287662
H        2.76099177       0.88251535       2.92473468       0.01922124       0.02410509      -0.06699147
H       -1.89579819       3.47577584       0.25467505       0.00532040      -0.04332375       0.01729254
H       -0.18074188       3.53175785       0.61877962      -0.00038875       0.05402266       0.00575808
H       -0.73352424       3.52573483      -1.07840961       0.01296544       0.01813607       0.00556315
H       -0.32133676      -2.03509841       1.53052717      -0.04161182       0.05315991      -0.04730714
H       -2.61451688      -0.32533328       1.86096525       0.08155349      -0.02058851       0.01895732
H        2.01217397      -1.40209031      -1.66109388      -0.00709651       0.00072227      -0.02339044
H       -1.71605887      -0.90405829      -2.01712177      -0.00270411       0.00828462       0.01156905
30
Properties=species:S:1:pos:R:3:REF_forces:R:3 REF_energy=-24724.79651885746 pbc="F F F"
O        2.40015781      -0.39434895      -1.11454362       0.03634278       0.01688387      -0.04771087
O        0.06938776       2.91080331      -2.00421284      -0.26548120      -1.09079041      -1.78191813
O        0.18347115      -3.84107025       0.77388244      -0.00245207      -0.01938662      -0.00289580
O       -2.05065543      -1.00105645      -1.55743878       0.01448673       0.02368293      -0.01271933
N        0.41662720      -1.95360791       2.01562827       0.02653652      -0.04171600      -0.00282821
N       -1.37698711      -0.29366717       0.47835339       0.04452581       0.05596761      -0.03743770
N        1.08492155      -1.99698752      -0.20818315      -0.00503841      -0.00115133      -0.00634302
N       -0.72032108       0.82257359      -1.53758257      -0.12265312       0.04132883       0.04509149
C        1.49680874       0.03840808       1.02563630      -2.84907318       0.22692219       0.41325745
C       -0.47815887       2.86517587      -0.00823347      -2.30336505      -0.29670781       0.80375772
C        0.58299627      -0.53336030       2.06761596      -0.13150351      -0.02686947      -0.02397568
C       -0.47499420       0.29734914       1.34808439       3.04263906      -0.40279285      -0.29997541
C        2.30619221       1.26353709       1.27333143       0.00204847      -0.01403660       0.00458575
C       -1.73255579       3.62182274       0.16453002       0.22142216      -0.27207713       1.61155907
C        1.71356599      -0.75467679      -0.18282660      -0.01904980       0.02770179       0.09290849
C       -0.40639230       2.10708179      -1.19805570       2.51701006       1.03865258      -0.70835271
C        0.52967214      -2.68579619       0.86381208       0.00254077       0.01368763       0.02583778
C       -1.43836548      -0.19637924      -0.90105358      -0.04244780      -0.01107896       0.11494730
H        0.79172082      -0.20493833       3.07832806       0.00142191       0.00001292       0.00612951
H       -0.53270889       1.34378911       1.59432149      -0.09613536      -0.02616248      -0.07371857
H        2.48269717       1.80170572       0.34757247       0.03505929      -0.00230564      -0.03113312
H        1.79949804       1.93112585       1.96596038      -0.00253735       0.00316715       0.04904068
H        3.27239333       0.99173143       1.70334309      -0.00036281       0.04772036      -0.00090642
H       -2.37834483       2.91629580       0.71172735      -0.38969961       0.35979224       0.08222120
H       -1.62008815       4.50198074       0.79011845      -0.12924711       0.18711221      -0.05432739
H       -2.24995262       3.86261847      -0.76611197       0.41172938       0.14871769      -0.18508761
H       -0.03676989      -2.43343927       2.77217525       0.00264596       0.00028176      -0.00299696
H       -1.79212883      -1.16598857       0.77296345       0.01841729      -0.00079849       0.00934538
H        1.23022410      -2.55126666      -1.03704876       0.00025640       0.00308984       0.00174531
H       -0.61931081       0.64558485      -2.52749324      -0.03270218       0.01683033       0.01444239
30
Properties=species:S:1:pos:R:3:REF_forces:R:3 REF_energy=-24729.567958393534 pbc="F F F"
O        4.07972377       0.02098116       0.71696876      -0.07283364      -0.03099197       0.01227973
O       -1.82691111       1.13672616      -2.50697135      -0.05238224       0.06026364      -0.12593644
O        1.25776279      -2.77148973      -1.46481386       0.01094210       0.00965825       0.01916512
O       -3.71458656      -0.92463132       0.97496382      -0.02662577      -0.00755315       0.04174274
N        0.33761062      -1.19770403      -0.11127761       0.16228139      -0.14407871      -0.06531286
N       -1.91693961       0.41107648       1.39257612       0.08906041      -0.18711194      -0.19685249
N        2.63864858      -1.43654058      -0.25240248       0.18001438      -0.03870749      -0.07064425
N       -2.43663370      -0.22436189      -0.78101721       0.00163547      -0.07565510       0.08600030
C        1.78131871       0.28117331       1.18860276       0.73939049      -0.48416460      -0.25980890
C       -0.84146795       1.51627286      -0.38795021       0.14375150      -0.37533726       0.82585708
C        0.43071407      -0.31357718       1.02327739       0.48840995      -0.18414854      -0.00022063
C       -0.56596011       0.81810200       0.95073059      -2.12275294       0.98585710      -0.25817575
C        2.04465707       1.36426040       2.15431262      -0.04935359       0.29900513       0.13389110
C       -0.67128027       2.97417437      -0.49885951       0.42562736      -0.20262787      -0.30550340
C        2.92903266      -0.34866666       0.55537737      -0.06444149       0.04265028      -0.07797688
C       -1.69618042       0.82566722      -1.34159521       0.18903976       0.19340330       0.27396778
C        1.38612161      -1.87521093      -0.66304691      -0.03295255       0.03743894       0.01682107
C       -2.76220468      -0.29482884       0.57808133      -0.02259592      -0.01398310      -0.09164630
H        0.22111597      -0.88560441       1.94928265      -0.09916324       0.26772623      -0.06513967
H       -0.25841219       1.58555323       1.65111923       0.00071635      -0.01060013       0.00470914
H        1.80427065       2.35095046       1.73684812       0.04466037      -0.10873114       0.03445314
H        1.44192757       1.25457945       3.05931715       0.06430953      -0.02056958      -0.01475503
H        3.09988578       1.37437452       2.40876274      -0.01964639      -0.00632405       0.02349595
H       -1.43377068       3.49496895       0.09785265      -0.03081074      -0.09915196       0.04162515
H        0.29806924       3.29816970      -0.11572256      -0.03509424       0.03754385      -0.02862767
H       -0.79436983       3.28865107      -1.53153077       0.00856906       0.03248018       0.00374615
H       -0.56045479      -1.58209433      -0.34712174       0.00127116       0.00865038      -0.00777572
H       -2.12639643       0.30938331       2.37090929       0.10702938       0.00022008       0.03629905
H        3.41970965      -1.88003827      -0.70874211      -0.01817644       0.00361968       0.00523877
H       -3.11240039      -0.65531645      -1.39333106       0.01096407       0.00130364      -0.00114843
30
Properties=species:S:1:pos:R:3:REF_forces:R:3 REF_energy=-24729.731365097756 pbc="F F F"
O        3.30214637       0.54621143      -0.62990328       0.13497781       0.09980710      -0.08282965
O       -0.64409617       1.22919907      -2.42653855       0.04454960       0.08385045      -0.23420813
O        0.46530814      -2.96674742      -0.79204398      -0.00674299       0.00422834      -0.00581094
O       -3.22363962      -1.53254570       0.01240345      -0.06801943      -0.06544516       0.05071720
N        0.27229643      -1.53190118       0.95414873      -0.13437740       0.06556810      -0.00686325
N       -2.07796452       0.08759655       1.13288900       0.09741032      -0.29298487      -0.20465958
N        1.73701622      -1.08572835      -0.79274208      -0.10169195       0.06536702       0.06816804
N       -1.64406562      -0.34241798      -1.11815450      -0.10074851      -0.13820400       0.12870242
C        1.65354008       0.46378249       1.05322437       0.13401496      -0.88195267       0.32259155
C       -0.65716506       1.56758589      -0.07914473      -0.68469245      -0.83767543       0.62411901
C        0.38893614      -0.21137584       1.52836321       1.24353789      -0.02910248      -0.37652371
C       -0.79140773       0.74999168       1.22258118      -0.75237648       1.21382577      -0.90557702
C        2.27856540       1.51692193       1.87350758      -0.11407697       0.11199719      -0.05665556
C       -0.63462974       3.03923636      -0.05334027       0.51799944      -0.09006364      -0.04935028
C        2.31296897       0.01054673      -0.16732292      -0.25332095       0.19737006       0.43799492
C       -0.94534632       0.84521282      -1.31646030      -0.02717752       0.31759404       0.56227530
C        0.78666863      -1.93480337      -0.24891634       0.00909867      -0.05899266      -0.01685550
C       -2.37931501      -0.66947213       0.02164715       0.02492565       0.06591811      -0.13877066
H        0.43453803      -0.34119026       2.61436876      -0.02796182       0.13504146      -0.08785598
H       -0.84135731       1.46267742       2.04422897       0.03579028      -0.01061229      -0.02005432
H        3.14665169       1.92529809       1.36725552      -0.00099648       0.00939938       0.00104836
H        1.57523017       2.32670227       2.09166358       0.03860110      -0.02172741       0.02585979
H        2.58304083       1.10837739       2.84283145       0.00310235       0.01559740      -0.01986962
H       -1.58654847       3.42677031       0.32923306      -0.02604230      -0.06253740       0.00876061
H        0.14385764       3.40913733       0.61869676      -0.05196153       0.06515348      -0.06377789
H       -0.47638820       3.43440489      -1.05220203       0.00725905       0.02147949       0.00654706
H       -0.44238478      -2.14702088       1.30257348      -0.02583911       0.01653253      -0.02709524
H       -2.58287040      -0.18984023       1.95736186       0.10151068      -0.00731336       0.04165943
H        2.16806289      -1.39971322      -1.64635244      -0.00503640      -0.00632113      -0.01784772
H       -1.86904867      -0.88189610      -1.93925670      -0.00170081      -0.00439452       0.01271012
30
Properties=species:S:1:pos:R:3:REF_forces:R:3 REF_energy=-24728.971012632075 pbc="F F F"
O        3.46741579       0.45977870      -0.71111162      -0.10597693       0.11284525       0.17857854
O       -1.07766854       1.33113112      -2.51708913      -0.02327629      -0.03567489      -0.03523007
O        0.47006235      -2.79531140      -0.57660171       0.07876880      -0.01410752      -0.14767554
O       -2.98382344      -1.89217574      -0.03104178      -0.03340293      -0.06235304       0.05961965
N        0.40371317      -1.26420284       1.10476254      -0.06545359      -0.73974817      -0.77016651
N       -2.12308417      -0.09185803       1.06391652       0.20134415      -0.01134338       0.15442628
N        1.58041703      -0.81763819      -0.84779740       0.25090461       0.41145589       0.17782160
N       -1.67927158      -0.41589669      -1.18474079      -0.15643900      -0.15444471      -0.02981474
C        1.96927406       0.51298802       1.10414388      -3.32308473       0.25798040       0.79572859
C       -1.07652412       1.66778965      -0.17630394       0.04646478      -0.74581788       0.27025783
C        0.43014227       0.10779701       1.49055684       1.29591541       0.55680160       0.04516198
C       -1.08571429       0.89397399       1.10933286       1.61421344       0.22047017      -0.52137661
C        2.83825706       1.11434713       2.12242305       0.05889196       0.04527528      -0.23632253
C       -1.00058063       3.13551764      -0.23084054       0.04025264       0.13778486      -0.00504846
C        2.42083137       0.10658471      -0.18873948       0.26079616      -0.43597824      -0.48577714
C       -1.26557964       0.89697064      -1.39680391       0.05085449       0.21708438       0.24979911
C        0.79261407      -1.71102651      -0.15298132      -0.47298310      -0.08804466       0.70405674
C       -2.31438865      -0.88874192      -0.03689197       0.03930484       0.07164416      -0.21465800
H        0.38821155       0.13162537       2.58090084       0.12900511       0.07457698      -0.08697378
H       -1.25942962       1.56630051       1.94449727       0.02444153      -0.04565173       0.00322608
H        3.86249862       1.16167907       1.76457494      -0.00752290       0.03299984      -0.01287711
H        2.51039218       2.12344859       2.39179758      -0.03537853       0.00055703       0.00163064
H        2.80280748       0.52752376       3.04813676      -0.03727278       0.02395053      -0.06663524
H       -2.00551287       3.56267801      -0.11112403       0.08620082      -0.01575963       0.01240810
H       -0.38333918       3.53864316       0.56920443       0.06246356       0.03521943      -0.00539432
H       -0.62900933       3.45760578      -1.19980367       0.03632218       0.03074245       0.02306936
H       -0.16388600      -1.93415112       1.59732782      -0.04956598       0.11234468      -0.06976714
H       -2.55458147      -0.42541010       1.90732950       0.05023257      -0.03010259      -0.00730266
H        1.93515865      -1.16218169      -1.72546253       0.00995031       0.01546122      -0.02404485
H       -1.81680213      -0.98278863      -2.00697100      -0.01342559       0.00397299       0.02470345
30
Properties=species:S:1:pos:R:3:REF_forces:R:3 REF_energy=-24728.850088061343 pbc="F F F"
O        3.55293268       0.85794419       0.18674450       0.05278698       0.02829495      -0.07448664
O       -1.37020628       0.62849992      -2.54049172       0.00311872       0.05731853      -0.14329286
O        1.10154688      -2.53523851      -1.56479827      -0.00151626      -0.02195711      -0.01022291
O       -3.77922117      -0.66831875       0.99778953       0.03798863       0.03595095       0.09827943
N        0.29765268      -1.48927831       0.27747635       0.02090544      -0.16231090       0.06679491
N       -1.91256122       0.58620142       1.40368962       0.13292888      -0.11387991      -0.56765749
N        2.36664734      -0.90711591      -0.61154632      -0.06703035       0.10948230      -0.12739010
N       -2.29267227      -0.34154755      -0.69594238       0.02541316      -0.01155200       0.14166193
C        1.54494026       0.32258183       1.29471191       3.57013079      -1.02411030      -0.19574522
C       -0.58678067       1.31104841      -0.40490561      -0.02865847      -0.17549510       0.22860871
C        0.33321613      -0.47031671       1.28116198       0.52151815       0.25126816      -0.22008896
C       -0.45698475       0.77784841       1.00014445      -4.69527170       1.11170722       0.08145269
C        1.92363586       1.18488389       2.43587519       0.17089997       0.06764711       0.06179905
C       -0.36895940       2.74299420      -0.70928577       0.56404236      -0.47477820      -0.12690051
C        2.56367585       0.15206129       0.25751591      -0.23082923       0.07092692       0.38806530
C       -1.39397655       0.51966235      -1.33397761       0.06461268       0.23054727       0.28063472
C        1.23348926      -1.70486571      -0.69758373      -0.01575447       0.01914671       0.03048639
C       -2.73877445      -0.17405652       0.62318841      -0.09490275      -0.03140940      -0.17994002
H        0.08476006      -0.87771558       2.26400869      -0.10397395       0.12366829      -0.05763830
H       -0.14704107       1.60479514       1.62419400       0.02675448      -0.10286370       0.08532498
H        2.07027912       2.21775150       2.11457079      -0.03258874       0.00121364       0.03699464
H        1.19106547       1.15237941       3.23794288       0.00176310       0.00559553       0.03094786
H        2.89329225       0.85887568       2.81509152      -0.04877427       0.03566131       0.07139790
H       -1.26945735       3.33544257      -0.50493678      -0.07582460      -0.09137723       0.05166691
H        0.44827495       3.15940879      -0.12478134      -0.00319220       0.02455466       0.02399832
H       -0.15464181       2.85915625      -1.77012332      -0.05626570       0.04086230      -0.03115203
H       -0.55475477      -2.00201317       0.14102957       0.02289225      -0.02006552       0.00136251
H       -2.22449227       0.66478759       2.35820620       0.22467463       0.02920599       0.02126672
H        3.03779396      -1.02407879      -1.35281550       0.00417501      -0.01547773       0.00023756
H       -2.94007872      -0.82677733      -1.29755315       0.01204640      -0.00162014      -0.00336907
30
Properties=species:S:1:pos:R:3:REF_forces:R:3 REF_energy=-24728.92708116713 pbc="F F F"
O        2.55305521       1.19046047      -0.50197932       0.81935190       1.34824374      -0.67111866
O       -0.63046564       0.84639625      -2.28892501      -0.04012687       0.00286296       0.04321135
O        0.57712463      -2.76312864      -1.54289474      -0.08076240      -0.06527211       0.28182392
O       -2.45771743      -1.61860948       1.06230147      -0.00072063      -0.01170981      -0.04958263
N        0.64144348      -2.12107835       0.64046560       0.07907338       0.72740062       0.38279156
N       -2.01150940       0.58222450       1.43634825      -0.13585631      -0.05952237      -0.01725683
N        1.67175542      -0.84262805      -0.97670576      -0.12387106      -1.01693870      -0.94724646
N       -1.61276233      -0.34006894      -0.63014593       0.03351853      -0.02130876      -0.00667153
C        1.50049116       0.01342844       1.26687927       3.57340896       5.32929853      -3.29350391
C       -0.90345823       1.92573592      -0.19055257      -0.12924236       0.13222132      -0.05801542
C        0.87142585      -1.13013921       1.56551173      -3.30572826      -5.66458047       2.86054960
C       -1.43265847       1.76363857       1.02660768       0.07826241       0.01330637      -0.00967281
C        1.76914572       1.10167090       2.25430215      -0.42404857      -0.70619026      -0.15567558
C       -0.22900150       3.17669279      -0.65212080       0.00952704      -0.01660174       0.00617683
C        1.96670916       0.20478608      -0.10669945      -0.96105773      -0.50908730       2.63424272
C       -1.01773841       0.81832876      -1.14246083       0.06787381       0.01056770      -0.08603319
C        0.93811125      -1.97499603      -0.69770094       0.49703799       0.60794918      -0.82976302
C       -2.06268387      -0.54643691       0.65205667      -0.00471095       0.00194872       0.11774212
H        0.49868720      -1.33995007       2.55675018       0.01013052      -0.02138769      -0.14782796
H       -1.41338133       2.54645462       1.76952841      -0.00627229       0.00450752       0.00167213
H        1.35521857       2.04456013       1.90108623       0.05173416       0.05731440      -0.12157812
H        1.33438449       0.86204369       3.22240831       0.00716821      -0.01074741      -0.00514405
H        2.83912409       1.25664141       2.38002242       0.10755599       0.00309863      -0.09677420
H       -0.71048267       3.56332466      -1.54790024       0.00086975       0.00092970      -0.00077046
H       -0.25879174       3.93896580       0.12328815      -0.00682485       0.00652775       0.00333949
H        0.80944023       2.96890991      -0.90336891       0.01539505      -0.01804197      -0.00205983
H        0.00202277      -2.86706643       0.85543452      -0.05180671      -0.11327665       0.08281788
H       -2.35082976       0.47048082       2.37416807       0.01978956      -0.01382692      -0.00583440
H        1.85867827      -0.67627489      -1.95387345      -0.06578994      -0.00240994       0.07319616
H       -1.64273672      -1.13936671      -1.24723117      -0.02127440       0.02390098      -0.00030665
30
Properties=species:S:1:pos:R:3:REF_forces:R:3 REF_energy=-24728.91648691886 pbc="F F F"
O        2.51092378       1.24296568      -0.36287124       0.02583144       0.08601975      -0.00532614
O       -0.78460112       0.83688869      -2.39783095       0.41940761      -0.10730897      -1.68578503
O        0.57343831      -2.68835320      -1.56165822       0.02259242      -0.01231255       0.04225232
O       -2.47755314      -1.56986346       1.06699137       0.02976553       0.22064776       0.18263288
N        0.59808130      -2.11082974       0.64048337      -0.00310309       0.00928433       0.07059747
N       -1.85369071       0.58849600       1.43044379       0.33970247       0.71757919      -0.45693853
N        1.62119749      -0.76394016      -0.92319858       0.04730058       0.00736780       0.04464391
N       -1.68486583      -0.31960553      -0.67226997      -0.57540444      -1.17265324       0.34834478
C        1.43662558       0.00481646       1.35158333       0.16953430      -0.07593076       0.05213230
C       -0.85371435       1.91419125      -0.28201117       1.55387316      -0.78930639      -7.24375283
C        0.81718815      -1.15459581       1.60376307       0.00557157      -0.03779776      -0.04752934
C       -1.24317467       1.73923478       0.98544108      -1.91117202       0.24840401       7.15617040
C        1.71236308       1.04866466       2.38364224       0.07749925       0.05406706       0.01286940
C       -0.18402639       3.14926550      -0.78967340      -0.46676294      -0.39596320       0.74419122
C        1.91426612       0.24698591      -0.01029409      -0.08296514      -0.09597997      -0.06594624
C       -1.08649785       0.81903408      -1.22594191       0.30309810       2.11290294       1.99115922
C        0.90669653      -1.91916206      -0.68893079      -0.04263005       0.00931309      -0.09670799
C       -2.04700816      -0.51869920       0.63855029       0.06329983      -0.49034120      -0.96765354
H        0.44199598      -1.40521124       2.58453351       0.00343426      -0.00019836       0.00825102
H       -1.10822893       2.50342272       1.73535690      -0.05715882      -0.13497982      -0.03931455
H        1.35705796       2.02032072       2.04594207       0.00399606      -0.03755191       0.03573351
H        1.23208251       0.79878771       3.32756073      -0.01013012       0.01878049      -0.00870038
H        2.78245728       1.15233682       2.55467394       0.02509876      -0.02407206       0.01065209
H       -0.73851857       3.56601549      -1.62794079      -0.01315592      -0.07670596      -0.15266020
H       -0.11369712       3.89833627      -0.00417495       0.00486005      -0.00932692       0.00336666
H        0.81907953       2.91576722      -1.13985153       0.09032634      -0.10917057      -0.10157510
H       -0.02695729      -2.87602622       0.82728523       0.01213446      -0.00138812      -0.00938968
H       -2.10771408       0.47823967       2.39487154      -0.02419634       0.04316784       0.10071810
H        1.83264381      -0.57097463      -1.89040378      -0.02352789       0.00617912      -0.00440365
H       -1.79324921      -1.11150837      -1.28947108       0.01847829       0.05668144       0.06962255
30
Properties=species:S:1:pos:R:3:REF_forces:R:3 REF_energy=-24728.908730176237 pbc="F F F"
O        2.67703839       1.12932486      -0.62799594       0.89071259       1.25868492      -0.70301711
O       -0.50087464       0.84072334      -2.16419465      -0.04588858       0.00185684       0.01766838
O        0.67944337      -2.85381099      -1.50946210      -0.10806110      -0.04277610       0.27392953
O       -2.56358418      -1.66927789       1.00893888       0.00873944      -0.01765965      -0.02787215
N        0.63855137      -2.06477368       0.62599068       0.09681042       0.74422412       0.35545196
N       -2.16683015       0.53223472       1.43653837      -0.26922865      -0.02912195      -0.04278699
N        1.77514373      -0.91390969      -1.01511590      -0.07652353      -1.05592248      -0.86218763