
                                 *****************
                                 * O   R   C   A *
                                 *****************

                                            #,                                       
                                            ###                                      
                                            ####                                     
                                            #####                                    
                                            ######                                   
                                           ########,                                 
                                     ,,################,,,,,                         
                               ,,#################################,,                 
                          ,,##########################################,,             
                       ,#########################################, ''#####,          
                    ,#############################################,,   '####,        
                  ,##################################################,,,,####,       
                ,###########''''           ''''###############################       
              ,#####''   ,,,,##########,,,,          '''####'''          '####       
            ,##' ,,,,###########################,,,                        '##       
           ' ,,###''''                  '''############,,,                           
         ,,##''                                '''############,,,,        ,,,,,,###''
      ,#''                                            '''#######################'''  
     '                                                          ''''####''''         
             ,#######,   #######,   ,#######,      ##                                
            ,#'     '#,  ##    ##  ,#'     '#,    #''#        ,####,   ,####,        
            ##       ##  ##   ,#'  ##            #'  '#       #'       #'  '#        
            ##       ##  #######   ##           ,######,      #####,   #    #        
            '#,     ,#'  ##    ##  '#,     ,#' ,#      #,     #,   #   #,  ,#        
             '#######'   ##     ##  '#######'  #'      '#     '####' # '####'        



                #########################################################
                #                        -***-                          #
                #          Department of theory and spectroscopy        #
                #                                                       #
                #                      Frank Neese                      #
                #                                                       #
                #     Directorship, Architecture, Infrastructure        #
                #                    SHARK, DRIVERS                     #
                #        Core code/Algorithms in most modules           #
                #                                                       #
                #        Max Planck Institute fuer Kohlenforschung      #
                #                Kaiser Wilhelm Platz 1                 #
                #                 D-45470 Muelheim/Ruhr                 #
                #                      Germany                          #
                #                                                       #
                #                  All rights reserved                  #
                #                        -***-                          #
                #########################################################


                         Program Version 6.0.0  -   RELEASE  -


 With contributions from (in alphabetic order):
   Daniel Aravena         : Magnetic Suceptibility
   Michael Atanasov       : Ab Initio Ligand Field Theory (pilot matlab implementation)
   Alexander A. Auer      : GIAO ZORA, VPT2 properties, NMR spectrum
   Ute Becker             : All parallelization in ORCA, NUMFREQ, NUMCALC
   Giovanni Bistoni       : ED, misc. LED, open-shell LED, HFLD
   Martin Brehm           : Molecular dynamics
   Dmytro Bykov           : pre 5.0 version of the SCF Hessian
   Marcos Casanova-Páez   : Triplet and SCS-CIS(D). UHF-(DLPNO)-IP/EA/STEOM-CCSD. UHF-CVS-IP/STEOM-CCSD
   Vijay G. Chilkuri      : MRCI spin determinant printing, contributions to CSF-ICE
   Pauline Colinet        : FMM embedding
   Dipayan Datta          : RHF DLPNO-CCSD density
   Achintya Kumar Dutta   : EOM-CC, STEOM-CC
   Nicolas Foglia         : Exact transition moments, OPA infrastructure, MCD improvements
   Dmitry Ganyushin       : Spin-Orbit,Spin-Spin,Magnetic field MRCI
   Miquel Garcia          : C-PCM and meta-GGA Hessian, CCSD/C-PCM, Gaussian charge scheme
   Tiago L. C. Gouveia    : GS-ROHF, GS-ROCIS
   Yang Guo               : DLPNO-NEVPT2, F12-NEVPT2, CIM, IAO-localization
   Andreas Hansen         : Spin unrestricted coupled pair/coupled cluster methods
   Ingolf Harden          : AUTO-CI MPn and infrastructure 
   Benjamin Helmich-Paris : MC-RPA, TRAH-(SCF,CASSCF), AVAS, COSX integrals, SCF dyn. polar.
   Lee Huntington         : MR-EOM, pCC
   Robert Izsak           : Overlap fitted RIJCOSX, COSX-SCS-MP3, EOM
   Riya Kayal             : Wick's Theorem for AUTO-CI, AUTO-CI UHF-CCSDT
   Emily Kempfer          : AUTO-CI, RHF CISDT and CCSDT
   Christian Kollmar      : KDIIS, OOCD, Brueckner-CCSD(T), CCSD density, CASPT2, CASPT2-K, improved NEVPT2
   Axel Koslowski         : Symmetry handling
   Simone Kossmann        : Meta GGA functionals, TD-DFT gradient, OOMP2, (MP2 Hessian; deprecated post 5.0)
   Lucas Lang             : DCDCAS
   Marvin Lechner         : AUTO-CI (C++ implementation), FIC-MRCC
   Spencer Leger          : CASSCF response
   Dagmar Lenk            : GEPOL surface, SMD, ORCA-2-JSON
   Dimitrios Liakos       : Extrapolation schemes; Compound Job, initial MDCI parallelization
   Dimitrios Manganas     : Further ROCIS development; embedding schemes. LFT, Crystal Embedding
   Dimitrios Pantazis     : SARC Basis sets
   Anastasios Papadopoulos: AUTO-CI, single reference methods and gradients
   Taras Petrenko         : pre 6.0 DFT Hessian and TD-DFT gradient, (ASA, deprecated), ECA, 1-Electron XAS/XES, NRVS
   Peter Pinski           : DLPNO-MP2, DLPNO-MP2 Gradient
   Christoph Reimann      : Effective Core Potentials
   Marius Retegan         : Local ZFS, SOC
   Christoph Riplinger    : Optimizer, TS searches, QM/MM, DLPNO-CCSD(T), (RO)-DLPNO pert. Triples
   Michael Roemelt        : Original ROCIS implementation
   Masaaki Saitow         : Open-shell DLPNO-CCSD energy and density
   Barbara Sandhoefer     : DKH picture change effects
   Kantharuban Sivalingam : CASSCF convergence/infrastructure, NEVPT2 and variants, FIC-MRCI
   Bernardo de Souza      : ESD, SOC TD-DFT
   Georgi Stoychev        : AutoAux, RI-MP2 NMR, DLPNO-MP2 response, X2C
   Van Anh Tran           : RI-MP2 g-tensors
   Willem Van den Heuvel  : Paramagnetic NMR
   Zikuan Wang            : NOTCH, Electric field optimization 
   Frank Wennmohs         : Technical directorship and infrastructure
   Hang Xu                : AUTO-CI-Response properties 


 We gratefully acknowledge several colleagues who have allowed us to
 interface, adapt or use parts of their codes:
   Stefan Grimme, W. Hujo, H. Kruse, P. Pracht,  : VdW corrections, initial TS optimization,
                  C. Bannwarth, S. Ehlert,         DFT functionals, gCP, sTDA/sTD-DF
                  L. Wittmann, M. Mueller
   Ed Valeev, F. Pavosevic, A. Kumar             : LibInt (2-el integral package), F12 methods
   Garnet Chan, S. Sharma, J. Yang, R. Olivares  : DMRG
   Ulf Ekstrom                                   : XCFun DFT Library
   Mihaly Kallay                                 : mrcc  (arbitrary order and MRCC methods)
   Frank Weinhold                                : gennbo (NPA and NBO analysis)
   Simon Mueller                                 : openCOSMO-RS
   Christopher J. Cramer and Donald G. Truhlar   : smd solvation model
   Lars Goerigk                                  : TD-DFT with DH, B97 family of functionals
   V. Asgeirsson, H. Jonsson                     : NEB implementation
   FAccTs GmbH                                   : IRC, NEB, NEB-TS, DLPNO-Multilevel, CI-OPT
                                                   MM, QMMM, 2- and 3-layer-ONIOM, Crystal-QMMM,
                                                   LR-CPCM, SF, NACMEs, symmetry and pop. for TD-DFT,
                                                   nearIR, NL-DFT gradient (VV10), updates on ESD,
                                                   ML-optimized integration grids, MBIS, APM,
                                                   GOAT, DOCKER, SOLVATOR, interface openCOSMO-RS
   S Lehtola, MJT Oliveira, MAL Marques          : LibXC Library
   Liviu Ungur et al                             : ANISO software


 Your calculation uses the libint2 library for the computation of 2-el integrals
 For citations please refer to: http://libint.valeyev.net

 Your ORCA version has been built with support for libXC version: 6.2.2
 For citations please refer to: https://libxc.gitlab.io

 This ORCA versions uses:
   CBLAS   interface :  Fast vector & matrix operations
   LAPACKE interface :  Fast linear algebra routines
   SCALAPACK package :  Parallel linear algebra routines
   Shared memory     :  Shared parallel matrices
   BLAS/LAPACK       :  OpenBLAS 0.3.27  USE64BITINT DYNAMIC_ARCH NO_AFFINITY Zen SINGLE_THREADED
        Core in use  :  Zen
   Copyright (c) 2011-2014, The OpenBLAS Project


Your calculation utilizes the atom-pairwise dispersion correction
with the Becke-Johnson damping scheme (D3BJ)


Warning: RI is on but no J-basis has been assigned. Assigning Def2/J (nothing to worry about!)
================================================================================

----- Orbital basis set information -----
Your calculation utilizes the basis: def2-TZVPPD
   F. Weigend and R. Ahlrichs, Phys. Chem. Chem. Phys. 7, 3297 (2005).
   D. Rappoport and F. Furche, J. Chem. Phys. 133, 134105 (2010)
   D. Rappoport, J. Chem. Phys. 155, 124102 (2021).

----- AuxJ basis set information -----
Your calculation utilizes the auxiliary basis: def2/J
   F. Weigend, Phys. Chem. Chem. Phys. 8, 1057 (2006).

================================================================================
                                        WARNINGS
                       Please study these warnings very carefully!
================================================================================

Using LibXC functional ID 531 : wB97M-V exchange-correlation functional
[ 1]  N. Mardirossian and M. Head-Gordon.,  J. Chem. Phys. 144, 214110 (2016)
Using LibXC functional ID 531 : wB97M-V exchange-correlation functional
[ 1]  N. Mardirossian and M. Head-Gordon.,  J. Chem. Phys. 144, 214110 (2016)

WARNING: B97M-V or wB97M-V functional requested.
  ===> : libXC variant has now been activated.
         Any manually given DFX/HFX/RangeSep scaling parameters are IGNORED!

Your calculation utilizes LibXC
 by S Lehtola, C Steigemann, MJT Oliveira & MAL Marques
Please cite in your paper:
 S Lehtola, C Steigemann, MJT Oliveira & MAL Marques, SoftwareX, 7, (2018), 1.
   


WARNING: your system is open-shell and RHF/RKS was chosen
  ===> : WILL SWITCH to UHF/UKS

INFO   : Checking CIS options ...

WARNING: CIS/ROCIS methods need fully converged wavefunctions
  ===> : Setting SCFConvForced true
         You can overwrite this default with %scf ConvForced false 


================================================================================
                                       INPUT FILE
================================================================================
NAME = orca.inp
|  1> ! Engrad def2-TZVPPD wB97M-D3BJ 
|  2> %pal nprocs 8 end%pal nprocs 32 end 
|  3>  %tddft nroots 2 Iroot 2 
|  4> sf true 
|  5> end 
|  6> *xyz 0 3 
|  7> O   3.5623567276198 0.5718628003324 -0.09749512169263
|  8> O   -0.8917687766824 0.92249561092592 -2.54008865296518
|  9> O   0.77101615134192 -2.83667269177212 -1.18251795463497
| 10> O   -3.60127495955212 -1.0778123759128 0.45886971177169
| 11> N   0.21755988559082 -1.53898577124274 0.58867122020844
| 12> N   -2.01771321501993 0.34789861605209 1.2702441419036
| 13> N   2.16692696566982 -1.13883316594359 -0.61092592631102
| 14> N   -2.03622628985932 -0.278636932563 -0.98239310780744
| 15> C   1.58774902710875 0.37835156510342 1.1758513158369
| 16> C   -0.57225018348068 1.45173556216898 -0.24620713336816
| 17> C   0.35027562819553 -0.37017826956448 1.41329133235012
| 18> C   -0.60128822897967 0.75490572907211 1.12685472148237
| 19> C   2.01760044496603 1.46288868778985 2.08299163370882
| 20> C   -0.45600939555954 2.91822880857599 -0.32851810375712
| 21> C   2.52538547186248 -0.02369795590124 0.12502288949849
| 22> C   -1.12618320295259 0.69638635315043 -1.37357497865317
| 23> C   1.0193782798277 -1.90260229348818 -0.45539080413133
| 24> C   -2.62352474463267 -0.38724516331242 0.27957445177017
| 25> H   0.2552884837833 -0.6590209494864 2.46727891172198
| 26> H   -0.43517654468195 1.52348839303361 1.87629234996585
| 27> H   1.73938127827631 2.44917524623469 1.69084311531494
| 28> H   1.57040702912221 1.36273421891736 3.07086060166239
| 29> H   3.10241935864181 1.46967809303546 2.15612067593954
| 30> H   -1.32480362579319 3.40146147446257 0.13461981022985
| 31> H   0.42263037243039 3.27593215588981 0.21590999315652
| 32> H   -0.3986331733172 3.23683038765689 -1.36509181050017
| 33> H   -0.61331277168684 -2.09734346275136 0.67340621812339
| 34> H   -2.43590474086844 0.20360424391382 2.17455473450559
| 35> H   2.76270221430253 -1.39376307353369 -1.38099937871033
| 36> H   -2.48440746567289 -0.80786584084338 -1.7134548566191
| 37> *
| 38> 
| 39>                          ****END OF INPUT****
================================================================================

                     *******************************
                     * Energy+Gradient Calculation *
                     *******************************

---------------------------------
CARTESIAN COORDINATES (ANGSTROEM)
---------------------------------
  O      3.562357    0.571863   -0.097495
  O     -0.891769    0.922496   -2.540089
  O      0.771016   -2.836673   -1.182518
  O     -3.601275   -1.077812    0.458870
  N      0.217560   -1.538986    0.588671
  N     -2.017713    0.347899    1.270244
  N      2.166927   -1.138833   -0.610926
  N     -2.036226   -0.278637   -0.982393
  C      1.587749    0.378352    1.175851
  C     -0.572250    1.451736   -0.246207
  C      0.350276   -0.370178    1.413291
  C     -0.601288    0.754906    1.126855
  C      2.017600    1.462889    2.082992
  C     -0.456009    2.918229   -0.328518
  C      2.525385   -0.023698    0.125023
  C     -1.126183    0.696386   -1.373575
  C      1.019378   -1.902602   -0.455391
  C     -2.623525   -0.387245    0.279574
  H      0.255288   -0.659021    2.467279
  H     -0.435177    1.523488    1.876292
  H      1.739381    2.449175    1.690843
  H      1.570407    1.362734    3.070861
  H      3.102419    1.469678    2.156121
  H     -1.324804    3.401461    0.134620
  H      0.422630    3.275932    0.215910
  H     -0.398633    3.236830   -1.365092
  H     -0.613313   -2.097343    0.673406
  H     -2.435905    0.203604    2.174555
  H      2.762702   -1.393763   -1.380999
  H     -2.484407   -0.807866   -1.713455

----------------------------
CARTESIAN COORDINATES (A.U.)
----------------------------
  NO LB      ZA    FRAG     MASS         X           Y           Z
   0 O     8.0000    0    15.999    6.731879    1.080664   -0.184239
   1 O     8.0000    0    15.999   -1.685199    1.743264   -4.800072
   2 O     8.0000    0    15.999    1.457009   -5.360535   -2.234635
   3 O     8.0000    0    15.999   -6.805423   -2.036770    0.867138
   4 N     7.0000    0    14.007    0.411129   -2.908262    1.112427
   5 N     7.0000    0    14.007   -3.812925    0.657433    2.400414
   6 N     7.0000    0    14.007    4.094899   -2.152083   -1.154483
   7 N     7.0000    0    14.007   -3.847910   -0.526547   -1.856454
   8 C     6.0000    0    12.011    3.000411    0.714981    2.222037
   9 C     6.0000    0    12.011   -1.081396    2.743383   -0.465264
  10 C     6.0000    0    12.011    0.661925   -0.699536    2.670734
  11 C     6.0000    0    12.011   -1.136270    1.426565    2.129447
  12 C     6.0000    0    12.011    3.812712    2.764459    3.936284
  13 C     6.0000    0    12.011   -0.861733    5.514653   -0.620809
  14 C     6.0000    0    12.011    4.772287   -0.044783    0.236259
  15 C     6.0000    0    12.011   -2.128178    1.315979   -2.595681
  16 C     6.0000    0    12.011    1.926346   -3.595397   -0.860564
  17 C     6.0000    0    12.011   -4.957743   -0.731787    0.528319
  18 H     1.0000    0     1.008    0.482425   -1.245369    4.662481
  19 H     1.0000    0     1.008   -0.822364    2.878976    3.545679
  20 H     1.0000    0     1.008    3.286954    4.628270    3.195230
  21 H     1.0000    0     1.008    2.967639    2.575194    5.803086
  22 H     1.0000    0     1.008    5.862723    2.777289    4.074478
  23 H     1.0000    0     1.008   -2.503516    6.427831    0.254395
  24 H     1.0000    0     1.008    0.798656    6.190615    0.408011
  25 H     1.0000    0     1.008   -0.753308    6.116723   -2.579650
  26 H     1.0000    0     1.008   -1.158993   -3.963405    1.272553
  27 H     1.0000    0     1.008   -4.603193    0.384756    4.109313
  28 H     1.0000    0     1.008    5.220751   -2.633831   -2.609711
  29 H     1.0000    0     1.008   -4.694850   -1.526645   -3.237960

--------------------------------
INTERNAL COORDINATES (ANGSTROEM)
--------------------------------
 O      0   0   0     0.000000000000     0.00000000     0.00000000
 O      1   0   0     5.091997695891     0.00000000     0.00000000
 O      2   1   0     4.328879560099    56.89130418     0.00000000
 O      2   1   3     4.509590565744   100.13790533    56.16605835
 N      3   2   1     2.264379887496    69.74209043    66.67997719
 N      4   2   1     2.280054406638    62.74158497    41.58262499
 N      1   2   3     2.266564823847    53.47132579   359.22456233
 N      4   2   1     2.272729029793     7.50007947   320.70141373
 C      1   2   3     2.357526949803    62.10130852   283.63621079
 C      6   4   2     2.368004191177   119.17910833     0.59750673
 C      5   3   2     1.436566313702   153.21294167   295.48822210
 C      6   4   2     1.480700866825   143.30201298   317.84957178
 C      9   1   2     1.477801261411    91.58631336   234.63573390
 C     10   6   4     1.473393857182   123.22281019   122.28840801
 C      1   2   3     1.216353675925    51.37216028   319.29697965
 C      2   1   3     1.211127438403    72.20733678    73.76970169
 C      3   2   1     1.209497891199    66.21963870    34.05248076
 C      4   2   1     1.210382314871    33.18213397    33.56011015
 H     11   5   3     1.096969675432   109.22620486   219.60680002
 H     12   6   4     1.086263854682   105.89989615   181.66922229
 H     13   9   1     1.097245433147   111.50197849    86.01791843
 H     13   9   1     1.088989424492   111.70960565   206.48800998
 H     13   9   1     1.087302178932   109.63798754   329.25516014
 H     14  10   6     1.096728750074   110.63792745   341.33870528
 H     14  10   6     1.093783104314   111.16592839    99.31051914
 H     14  10   6     1.085948454846   110.45702258   221.30416086
 H      5   3   2     1.004635607646    87.11141426   100.70003795
 H      6   4   2     1.006718762125    86.64777416   174.78173870
 H      7   1   2     1.006454433523    90.00312660   102.08574145
 H      8   4  18     1.007671019871    88.23043142   180.13506579

---------------------------
INTERNAL COORDINATES (A.U.)
---------------------------
 O      0   0   0     0.000000000000     0.00000000     0.00000000
 O      1   0   0     9.622481119791     0.00000000     0.00000000
 O      2   1   0     8.180396835316    56.89130418     0.00000000
 O      2   1   3     8.521891145371   100.13790533    56.16605835
 N      3   2   1     4.279057850526    69.74209043    66.67997719
 N      4   2   1     4.308678398985    62.74158497    41.58262499
 N      1   2   3     4.283186781850    53.47132579   359.22456233
 N      4   2   1     4.294835442920     7.50007947   320.70141373
 C      1   2   3     4.455080288466    62.10130852   283.63621079
 C      6   4   2     4.474879405303   119.17910833     0.59750673
 C      5   3   2     2.714716906113   153.21294167   295.48822210
 C      6   4   2     2.798119124559   143.30201298   317.84957178
 C      9   1   2     2.792639664430    91.58631336   234.63573390
 C     10   6   4     2.784310877475   123.22281019   122.28840801
 C      1   2   3     2.298575329487    51.37216028   319.29697965
 C      2   1   3     2.288699171859    72.20733678    73.76970169
 C      3   2   1     2.285619773922    66.21963870    34.05248076
 C      4   2   1     2.287291092448    33.18213397    33.56011015
 H     11   5   3     2.072972263784   109.22620486   219.60680002
 H     12   6   4     2.052741194527   105.89989615   181.66922229
 H     13   9   1     2.073493370343   111.50197849    86.01791843
 H     13   9   1     2.057891775026   111.70960565   206.48800998
 H     13   9   1     2.054703342997   109.63798754   329.25516014
 H     14  10   6     2.072516980838   110.63792745   341.33870528
 H     14  10   6     2.066950517063   111.16592839    99.31051914
 H     14  10   6     2.052145175214   110.45702258   221.30416086
 H      5   3   2     1.898486162836    87.11141426   100.70003795
 H      6   4   2     1.902422754296    86.64777416   174.78173870
 H      7   1   2     1.901923245629    90.00312660   102.08574145
 H      8   4  18     1.904222260646    88.23043142   180.13506579

---------------------
BASIS SET INFORMATION
---------------------
There are 4 groups of distinct atoms

 Group   1 Type O   : 12s7p3d1f contracted to 6s4p3d1f pattern {621111/4111/111/1}
 Group   2 Type N   : 12s6p3d1f contracted to 6s3p3d1f pattern {621111/411/111/1}
 Group   3 Type C   : 12s6p3d1f contracted to 6s3p3d1f pattern {621111/411/111/1}
 Group   4 Type H   : 5s3p1d contracted to 3s3p1d pattern {311/111/1}

Atom   0O    basis set group =>   1
Atom   1O    basis set group =>   1
Atom   2O    basis set group =>   1
Atom   3O    basis set group =>   1
Atom   4N    basis set group =>   2
Atom   5N    basis set group =>   2
Atom   6N    basis set group =>   2
Atom   7N    basis set group =>   2
Atom   8C    basis set group =>   3
Atom   9C    basis set group =>   3
Atom  10C    basis set group =>   3
Atom  11C    basis set group =>   3
Atom  12C    basis set group =>   3
Atom  13C    basis set group =>   3
Atom  14C    basis set group =>   3
Atom  15C    basis set group =>   3
Atom  16C    basis set group =>   3
Atom  17C    basis set group =>   3
Atom  18H    basis set group =>   4
Atom  19H    basis set group =>   4
Atom  20H    basis set group =>   4
Atom  21H    basis set group =>   4
Atom  22H    basis set group =>   4
Atom  23H    basis set group =>   4
Atom  24H    basis set group =>   4
Atom  25H    basis set group =>   4
Atom  26H    basis set group =>   4
Atom  27H    basis set group =>   4
Atom  28H    basis set group =>   4
Atom  29H    basis set group =>   4
---------------------------------
AUXILIARY/J BASIS SET INFORMATION
---------------------------------
There are 4 groups of distinct atoms

 Group   1 Type O   : 12s5p4d2f1g contracted to 6s4p3d1f1g pattern {711111/2111/211/2/1}
 Group   2 Type N   : 12s5p4d2f1g contracted to 6s4p3d1f1g pattern {711111/2111/211/2/1}
 Group   3 Type C   : 12s5p4d2f1g contracted to 6s4p3d1f1g pattern {711111/2111/211/2/1}
 Group   4 Type H   : 5s2p1d contracted to 3s1p1d pattern {311/2/1}

Atom   0O    basis set group =>   1
Atom   1O    basis set group =>   1
Atom   2O    basis set group =>   1
Atom   3O    basis set group =>   1
Atom   4N    basis set group =>   2
Atom   5N    basis set group =>   2
Atom   6N    basis set group =>   2
Atom   7N    basis set group =>   2
Atom   8C    basis set group =>   3
Atom   9C    basis set group =>   3
Atom  10C    basis set group =>   3
Atom  11C    basis set group =>   3
Atom  12C    basis set group =>   3
Atom  13C    basis set group =>   3
Atom  14C    basis set group =>   3
Atom  15C    basis set group =>   3
Atom  16C    basis set group =>   3
Atom  17C    basis set group =>   3
Atom  18H    basis set group =>   4
Atom  19H    basis set group =>   4
Atom  20H    basis set group =>   4
Atom  21H    basis set group =>   4
Atom  22H    basis set group =>   4
Atom  23H    basis set group =>   4
Atom  24H    basis set group =>   4
Atom  25H    basis set group =>   4
Atom  26H    basis set group =>   4
Atom  27H    basis set group =>   4
Atom  28H    basis set group =>   4
Atom  29H    basis set group =>   4
[1737029221.217216] [ohm:270715:0]        ib_iface.c:1059 UCX  ERROR ibv_create_cq(cqe=256) failed: Connection timed out
[1737029221.226641] [ohm:270737:0]        ib_iface.c:1059 UCX  ERROR ibv_create_cq(cqe=256) failed: Connection timed out
[1737029221.234335] [ohm:270728:0]        ib_iface.c:1059 UCX  ERROR ibv_create_cq(cqe=256) failed: Connection timed out
[1737029221.235721] [ohm:270725:0]        ib_iface.c:1059 UCX  ERROR ibv_create_cq(cqe=256) failed: Connection timed out
[1737029221.235775] [ohm:270722:0]        ib_iface.c:1059 UCX  ERROR ibv_create_cq(cqe=256) failed: Connection timed out
[1737029221.240823] [ohm:270718:0]        ib_iface.c:1059 UCX  ERROR ibv_create_cq(cqe=256) failed: Connection timed out
[1737029221.242242] [ohm:270720:0]        ib_iface.c:1059 UCX  ERROR ibv_create_cq(cqe=256) failed: Connection timed out
[1737029221.247876] [ohm:270733:0]        ib_iface.c:1059 UCX  ERROR ibv_create_cq(cqe=256) failed: Connection timed out
[1737029221.249699] [ohm:270717:0]        ib_iface.c:1059 UCX  ERROR ibv_create_cq(cqe=256) failed: Connection timed out
[1737029221.250768] [ohm:270727:0]        ib_iface.c:1059 UCX  ERROR ibv_create_cq(cqe=256) failed: Connection timed out
[1737029221.261812] [ohm:270750:0]        ib_iface.c:1059 UCX  ERROR ibv_create_cq(cqe=256) failed: Connection timed out
[1737029221.263163] [ohm:270721:0]        ib_iface.c:1059 UCX  ERROR ibv_create_cq(cqe=256) failed: Connection timed out
[1737029221.270219] [ohm:270714:0]        ib_iface.c:1059 UCX  ERROR ibv_create_cq(cqe=256) failed: Connection timed out
[1737029221.273902] [ohm:270730:0]        ib_iface.c:1059 UCX  ERROR ibv_create_cq(cqe=256) failed: Connection timed out
[1737029221.276404] [ohm:270724:0]        ib_iface.c:1059 UCX  ERROR ibv_create_cq(cqe=256) failed: Connection timed out
[1737029221.277111] [ohm:270736:0]        ib_iface.c:1059 UCX  ERROR ibv_create_cq(cqe=256) failed: Connection timed out
[1737029221.280935] [ohm:270740:0]        ib_iface.c:1059 UCX  ERROR ibv_create_cq(cqe=256) failed: Connection timed out
[1737029221.286408] [ohm:270732:0]        ib_iface.c:1059 UCX  ERROR ibv_create_cq(cqe=256) failed: Connection timed out
[1737029221.286456] [ohm:270760:0]        ib_iface.c:1059 UCX  ERROR ibv_create_cq(cqe=256) failed: Connection timed out
[1737029221.289896] [ohm:270723:0]        ib_iface.c:1059 UCX  ERROR ibv_create_cq(cqe=256) failed: Connection timed out
[1737029221.296716] [ohm:270775:0]        ib_iface.c:1059 UCX  ERROR ibv_create_cq(cqe=256) failed: Connection timed out
[1737029221.301689] [ohm:270716:0]        ib_iface.c:1059 UCX  ERROR ibv_create_cq(cqe=256) failed: Connection timed out
[1737029221.302328] [ohm:270781:0]        ib_iface.c:1059 UCX  ERROR ibv_create_cq(cqe=256) failed: Connection timed out
[1737029221.306217] [ohm:270726:0]        ib_iface.c:1059 UCX  ERROR ibv_create_cq(cqe=256) failed: Connection timed out
[1737029221.312190] [ohm:270742:0]        ib_iface.c:1059 UCX  ERROR ibv_create_cq(cqe=256) failed: Connection timed out
[1737029221.312765] [ohm:270734:0]        ib_iface.c:1059 UCX  ERROR ibv_create_cq(cqe=256) failed: Connection timed out
[1737029221.320713] [ohm:270729:0]        ib_iface.c:1059 UCX  ERROR ibv_create_cq(cqe=256) failed: Connection timed out
[1737029221.323008] [ohm:270719:0]        ib_iface.c:1059 UCX  ERROR ibv_create_cq(cqe=256) failed: Connection timed out
[1737029221.328064] [ohm:270743:0]        ib_iface.c:1059 UCX  ERROR ibv_create_cq(cqe=256) failed: Connection timed out
[1737029221.329626] [ohm:270731:0]        ib_iface.c:1059 UCX  ERROR ibv_create_cq(cqe=256) failed: Connection timed out
[1737029221.332263] [ohm:270745:0]        ib_iface.c:1059 UCX  ERROR ibv_create_cq(cqe=256) failed: Connection timed out
[1737029221.334843] [ohm:270757:0]        ib_iface.c:1059 UCX  ERROR ibv_create_cq(cqe=256) failed: Connection timed out


           ************************************************************
           *        Program running with 32 parallel MPI-processes    *
           *              working on a common directory               *
           ************************************************************
------------------------------------------------------------------------------
                             ORCA STARTUP CALCULATIONS
                           -- RI-GTO INTEGRALS CHOSEN --
------------------------------------------------------------------------------
------------------------------------------------------------------------------
                   ___                                                        
                  /   \      - P O W E R E D   B Y -                         
                 /     \                                                     
                 |  |  |   _    _      __       _____    __    __             
                 |  |  |  | |  | |    /  \     |  _  \  |  |  /  |          
                  \  \/   | |  | |   /    \    | | | |  |  | /  /          
                 / \  \   | |__| |  /  /\  \   | |_| |  |  |/  /          
                |  |  |   |  __  | /  /__\  \  |    /   |      \           
                |  |  |   | |  | | |   __   |  |    \   |  |\   \          
                \     /   | |  | | |  |  |  |  | |\  \  |  | \   \       
                 \___/    |_|  |_| |__|  |__|  |_| \__\ |__|  \__/        
                                                                              
                      - O R C A' S   B I G   F R I E N D -                    
                                      &                                       
                       - I N T E G R A L  F E E D E R -                       
                                                                              
 v1 FN, 2020, v2 2021, v3 2022-2024                                           
------------------------------------------------------------------------------


----------------------
SHARK INTEGRAL PACKAGE
----------------------

Number of atoms                             ...     30
Number of basis functions                   ...    882
Number of shells                            ...    322
Maximum angular momentum                    ...      3
Integral batch strategy                     ... SHARK/LIBINT Hybrid
RI-J (if used) integral strategy            ... SPLIT-RIJ (Revised 2003 algorithm where possible)
Printlevel                                  ...      1
Contraction scheme used                     ... SEGMENTED contraction
Prescreening option                         ... SCHWARTZ
   Thresh                                   ... 2.500e-11
   Tcut                                     ... 2.500e-12
   Tpresel                                  ... 2.500e-12 
Coulomb Range Separation                    ... NOT USED
Exchange Range Separation                   ... Long Range
   Mu parameter                             ... 3.000e-01
   Scaling (regular/separated)              ... 1.500e-01 8.500e-01
Multipole approximations                    ... NOT USED
Finite Nucleus Model                        ... NOT USED
CABS basis                                  ... NOT available
Auxiliary Coulomb fitting basis             ... AVAILABLE
   # of basis functions in Aux-J            ...   1014
   # of shells in Aux-J                     ...    330
   Maximum angular momentum in Aux-J        ...      4
Auxiliary J/K fitting basis                 ... NOT available
Auxiliary Correlation fitting basis         ... NOT available
Auxiliary 'external' fitting basis          ... NOT available

Checking pre-screening integrals            ... done (  0.1 sec) Dimension = 322
Check shell pair data                       ... done (  0.1 sec)
Shell pair information
Shell pair cut-off parameter TPreSel        ...   2.5e-12
Total number of shell pairs                 ...     52003
Shell pairs after pre-screening             ...     44919
Total number of primitive shell pairs       ...    129718
Primitive shell pairs kept                  ...     83900
          la=0 lb=0:   8696 shell pairs
          la=1 lb=0:  11887 shell pairs
          la=1 lb=1:   4102 shell pairs
          la=2 lb=0:   8085 shell pairs
          la=2 lb=1:   5598 shell pairs
          la=2 lb=2:   1925 shell pairs
          la=3 lb=0:   2051 shell pairs
          la=3 lb=1:   1450 shell pairs
          la=3 lb=2:    986 shell pairs
          la=3 lb=3:    139 shell pairs

Calculating one electron integrals          ... done (  1.4 sec)
Calculating RI/J V-Matrix + Cholesky decomp.... done (  6.2 sec)
Calculating Nuclear repulsion               ... done (  0.0 sec) ENN=   1439.800806470084 Eh

Diagonalization of the overlap matrix:
Smallest eigenvalue                        ... 4.059e-07
Time for diagonalization                   ...    0.187 sec
Threshold for overlap eigenvalues          ... 1.000e-07
Number of eigenvalues below threshold      ... 0

IMPORTANT:
Smallest eigenvalue of S below the DiffSThresh (1.000e-06) while
Thresh>1e-12 and/or TCut>1e-13! In order to avoid SCF convergence issues,
Thresh will be set to at least 1e-12 and TCut to at least 1e-13.
This can be turned off by adding %SCF DiffSThresh -1 END to the input.

Time for construction of square roots      ...    1.202 sec
Total time needed                          ...    1.888 sec

-------------------
DFT GRID GENERATION
-------------------

General Integration Accuracy     IntAcc      ... 4.388
Radial Grid Type                 RadialGrid  ... OptM3 with GC (2021)
Angular Grid (max. ang.)         AngularGrid ... 4 (Lebedev-302)
Angular grid pruning method      GridPruning ... 4 (adaptive)
Weight generation scheme         WeightScheme... mBecke (2022)
Basis function cutoff            BFCut       ... 1.0000e-11
Integration weight cutoff        WCut        ... 1.0000e-14
Partially contracted basis set               ... off
Rotationally invariant grid construction     ... off
Angular grids for H and He will be reduced by one unit
Diffuse basis detected: some atoms will have their outermost
                        angular grid increased by 1.

Total number of grid points                  ...   151944
Total number of batches                      ...     2387
Average number of points per batch           ...       63
Average number of grid points per atom       ...     5065

--------------------
COSX GRID GENERATION
--------------------

GRIDX 1
-------
General Integration Accuracy     IntAcc      ... 3.816
Radial Grid Type                 RadialGrid  ... OptM3 with GC (2021)
Angular Grid (max. ang.)         AngularGrid ... 1 (Lebedev-50)
Angular grid pruning method      GridPruning ... 4 (adaptive)
Weight generation scheme         WeightScheme... mBecke (2022)
Basis function cutoff            BFCut       ... 1.0000e-11
Integration weight cutoff        WCut        ... 1.0000e-14
Partially contracted basis set               ... on
Rotationally invariant grid construction     ... off
Angular grids for H and He will be reduced by one unit
Diffuse basis detected: some atoms will have their outermost
                        angular grid increased by 1.

Total number of grid points                  ...    19062
Total number of batches                      ...      166
Average number of points per batch           ...      114
Average number of grid points per atom       ...      635
UseSFitting                                  ... on

GRIDX 2
-------
General Integration Accuracy     IntAcc      ... 4.020
Radial Grid Type                 RadialGrid  ... OptM3 with GC (2021)
Angular Grid (max. ang.)         AngularGrid ... 2 (Lebedev-110)
Angular grid pruning method      GridPruning ... 4 (adaptive)
Weight generation scheme         WeightScheme... mBecke (2022)
Basis function cutoff            BFCut       ... 1.0000e-11
Integration weight cutoff        WCut        ... 1.0000e-14
Partially contracted basis set               ... on
Rotationally invariant grid construction     ... off
Angular grids for H and He will be reduced by one unit
Diffuse basis detected: some atoms will have their outermost
                        angular grid increased by 1.

Total number of grid points                  ...    45874
Total number of batches                      ...      375
Average number of points per batch           ...      122
Average number of grid points per atom       ...     1529
UseSFitting                                  ... on

GRIDX 3
-------
General Integration Accuracy     IntAcc      ... 4.338
Radial Grid Type                 RadialGrid  ... OptM3 with GC (2021)
Angular Grid (max. ang.)         AngularGrid ... 3 (Lebedev-194)
Angular grid pruning method      GridPruning ... 4 (adaptive)
Weight generation scheme         WeightScheme... mBecke (2022)
Basis function cutoff            BFCut       ... 1.0000e-11
Integration weight cutoff        WCut        ... 1.0000e-14
Partially contracted basis set               ... on
Rotationally invariant grid construction     ... off
Angular grids for H and He will be reduced by one unit
Diffuse basis detected: some atoms will have their outermost
                        angular grid increased by 1.

Total number of grid points                  ...   100976
Total number of batches                      ...      802
Average number of points per batch           ...      125
Average number of grid points per atom       ...     3366
UseSFitting                                  ... on
Initializing property integral containers    ... done (  0.5 sec)

SHARK setup successfully completed in  29.4 seconds

Maximum memory used throughout the entire STARTUP-calculation: 81.0 MB
[1737029253.019257] [ohm:271063:0]        ib_iface.c:1059 UCX  ERROR ibv_create_cq(cqe=256) failed: Connection timed out
[1737029253.024105] [ohm:271066:0]        ib_iface.c:1059 UCX  ERROR ibv_create_cq(cqe=256) failed: Connection timed out
[1737029253.025240] [ohm:271068:0]        ib_iface.c:1059 UCX  ERROR ibv_create_cq(cqe=256) failed: Connection timed out
[1737029253.030743] [ohm:271060:0]        ib_iface.c:1059 UCX  ERROR ibv_create_cq(cqe=256) failed: Connection timed out
[1737029253.036587] [ohm:271056:0]        ib_iface.c:1059 UCX  ERROR ibv_create_cq(cqe=256) failed: Connection timed out
[1737029253.038270] [ohm:271061:0]        ib_iface.c:1059 UCX  ERROR ibv_create_cq(cqe=256) failed: Connection timed out
[1737029253.041675] [ohm:271065:0]        ib_iface.c:1059 UCX  ERROR ibv_create_cq(cqe=256) failed: Connection timed out
[1737029253.044937] [ohm:271054:0]        ib_iface.c:1059 UCX  ERROR ibv_create_cq(cqe=256) failed: Connection timed out
[1737029253.050691] [ohm:271070:0]        ib_iface.c:1059 UCX  ERROR ibv_create_cq(cqe=256) failed: Connection timed out
[1737029253.064568] [ohm:271071:0]        ib_iface.c:1059 UCX  ERROR ibv_create_cq(cqe=256) failed: Connection timed out
[1737029253.072035] [ohm:271062:0]        ib_iface.c:1059 UCX  ERROR ibv_create_cq(cqe=256) failed: Connection timed out
[1737029253.076264] [ohm:271064:0]        ib_iface.c:1059 UCX  ERROR ibv_create_cq(cqe=256) failed: Connection timed out
[1737029253.083568] [ohm:271055:0]        ib_iface.c:1059 UCX  ERROR ibv_create_cq(cqe=256) failed: Connection timed out
[1737029253.084394] [ohm:271069:0]        ib_iface.c:1059 UCX  ERROR ibv_create_cq(cqe=256) failed: Connection timed out
[1737029253.088845] [ohm:271073:0]        ib_iface.c:1059 UCX  ERROR ibv_create_cq(cqe=256) failed: Connection timed out
[1737029253.096105] [ohm:271058:0]        ib_iface.c:1059 UCX  ERROR ibv_create_cq(cqe=256) failed: Connection timed out
[1737029253.096678] [ohm:271099:0]        ib_iface.c:1059 UCX  ERROR ibv_create_cq(cqe=256) failed: Connection timed out
[1737029253.098912] [ohm:271087:0]        ib_iface.c:1059 UCX  ERROR ibv_create_cq(cqe=256) failed: Connection timed out
[1737029253.100099] [ohm:271072:0]        ib_iface.c:1059 UCX  ERROR ibv_create_cq(cqe=256) failed: Connection timed out
[1737029253.100535] [ohm:271077:0]        ib_iface.c:1059 UCX  ERROR ibv_create_cq(cqe=256) failed: Connection timed out
[1737029253.102468] [ohm:271057:0]        ib_iface.c:1059 UCX  ERROR ibv_create_cq(cqe=256) failed: Connection timed out
[1737029253.103172] [ohm:271085:0]        ib_iface.c:1059 UCX  ERROR ibv_create_cq(cqe=256) failed: Connection timed out
[1737029253.105317] [ohm:271059:0]        ib_iface.c:1059 UCX  ERROR ibv_create_cq(cqe=256) failed: Connection timed out
[1737029253.106864] [ohm:271083:0]        ib_iface.c:1059 UCX  ERROR ibv_create_cq(cqe=256) failed: Connection timed out
[1737029253.106934] [ohm:271076:0]        ib_iface.c:1059 UCX  ERROR ibv_create_cq(cqe=256) failed: Connection timed out
[1737029253.114150] [ohm:271075:0]        ib_iface.c:1059 UCX  ERROR ibv_create_cq(cqe=256) failed: Connection timed out
[1737029253.116611] [ohm:271112:0]        ib_iface.c:1059 UCX  ERROR ibv_create_cq(cqe=256) failed: Connection timed out
[1737029253.123033] [ohm:271074:0]        ib_iface.c:1059 UCX  ERROR ibv_create_cq(cqe=256) failed: Connection timed out
[1737029253.123246] [ohm:271079:0]        ib_iface.c:1059 UCX  ERROR ibv_create_cq(cqe=256) failed: Connection timed out
[1737029253.123434] [ohm:271080:0]        ib_iface.c:1059 UCX  ERROR ibv_create_cq(cqe=256) failed: Connection timed out
[1737029253.127906] [ohm:271097:0]        ib_iface.c:1059 UCX  ERROR ibv_create_cq(cqe=256) failed: Connection timed out
[1737029253.128001] [ohm:271067:0]        ib_iface.c:1059 UCX  ERROR ibv_create_cq(cqe=256) failed: Connection timed out


           ************************************************************
           *        Program running with 32 parallel MPI-processes    *
           *              working on a common directory               *
           ************************************************************
-------------------------------------------------------------------------------
                                 ORCA GUESS
                   Start orbitals & Density for SCF / CASSCF
-------------------------------------------------------------------------------

------------
SCF SETTINGS
------------
Hamiltonian:
 Density Functional     Method          .... DFT(GTOs)
  Functional kind                       .... Exchange-Correlation
  Functional name                       .... wB97M-V exchange-correlation functional
  Functional family                     .... Hybrid MGGA
  Functional refs                              
    [ 0] N. Mardirossian and M. Head-Gordon.,  J. Chem. Phys. 144, 214110 (2016), doi: 10.1063/1.4952647
  Fraction of HF Exchange (short range) .... 0.1500
  Fraction of HF Exchange (long range)  .... 1.0000
  Range separation parameter mu         .... 0.3000
  Functional external parameters        .... 17
    Parameter  0 _cx00      =  8.500000e-01 : u^00 coefficient for exchange
    Parameter  1 _cx01      =  1.007000e+00 : u^01 coefficient for exchange
    Parameter  2 _cx10      =  2.590000e-01 : u^10 coefficient for exchange
    Parameter  3 _css00     =  4.430000e-01 : u^00 coefficient for same-spin correlation
    Parameter  4 _css04     = -1.437000e+00 : u^04 coefficient for same-spin correlation
    Parameter  5 _css10     = -4.535000e+00 : u^10 coefficient for same-spin correlation
    Parameter  6 _css20     = -3.390000e+00 : u^20 coefficient for same-spin correlation
    Parameter  7 _css43     =  4.278000e+00 : u^43 coefficient for same-spin correlation
    Parameter  8 _cos00     =  1.000000e+00 : u^00 coefficient for opposite-spin correlation
    Parameter  9 _cos10     =  1.358000e+00 : u^10 coefficient for opposite-spin correlation
    Parameter 10 _cos20     =  2.924000e+00 : u^20 coefficient for opposite-spin correlation
    Parameter 11 _cos21     = -8.812000e+00 : u^21 coefficient for opposite-spin correlation
    Parameter 12 _cos60     = -1.390000e+00 : u^60 coefficient for opposite-spin correlation
    Parameter 13 _cos61     =  9.142000e+00 : u^61 coefficient for opposite-spin correlation
    Parameter 14 _alpha     =  1.000000e+00 : fraction of HF exchange
    Parameter 15 _beta      = -8.500000e-01 : fraction of short-range exchange
    Parameter 16 _omega     =  3.000000e-01 : range-separation constant
 Long-range corrected/Screened/Range-Separated Hybrid DFT is turned on
   Amount of maximum screened exact exchange              ....  0.850000
   Range separation parameter mu (erf(mu*r12)/r12)        ....  0.300000
 RI-approximation to the Coulomb term is turned on
   Number of AuxJ basis functions       .... 1014
   RIJ-COSX (HFX calculated with COS-X)).... on


General Settings:
 Integral files         IntName         .... orca
 Hartree-Fock type      HFTyp           .... UHF
 Total Charge           Charge          ....    0
 Multiplicity           Mult            ....    3
 Number of Electrons    NEL             ....  132
 Basis Dimension        Dim             ....  882
 Nuclear Repulsion      ENuc            ....   1439.8008064701 Eh

Convergence Acceleration:
 AO-DIIS                CNVDIIS         .... on
   Start iteration      DIISMaxIt       ....    12
   Startup error        DIISStart       ....  0.200000
   # of expansion vecs  DIISMaxEq       ....     5
   Bias factor          DIISBfac        ....   1.050
   Max. coefficient     DIISMaxC        ....  10.000
 MO-DIIS                CNVKDIIS        .... off
 Trust-Rad. Augm. Hess. CNVTRAH         .... auto
   Auto Start mean grad. ratio tolernc. ....  1.125000
   Auto Start start iteration           ....    50
   Auto Start num. interpolation iter.  ....    10
   Max. Number of Micro iterations      ....    24
   Max. Number of Macro iterations      .... Maxiter - #DIIS iter
   Number of Davidson start vectors     ....     2
   Converg. threshold    (grad. norm)   ....   1.000e-05
   Grad. Scal. Fac. for Micro threshold ....   0.100
   Minimum threshold for Micro iter.    ....   1.000e-02
   NR start threshold (gradient norm)   ....   1.000e-04
   Initial trust radius                 ....   0.400
   Minimum AH scaling param. (alpha)    ....   1.000
   Maximum AH scaling param. (alpha)    .... 1000.000
   Quad. conv. algorithm                .... NR
   White noise on init. David. guess    .... on
   Maximum white noise                  ....   0.010
   Pseudo random numbers                .... off
   Inactive MOs                         .... canonical
   Orbital update algorithm             .... Taylor
   Preconditioner                       .... Diag
   Full preconditioner red. dimension   ....   250
 SOSCF                  CNVSOSCF        .... on
   Start iteration      SOSCFMaxIt      ....   150
   Startup grad/error   SOSCFStart      ....  0.003300
   Hessian update       SOSCFHessUp     .... L-BFGS
 Level Shifting         CNVShift        .... on
   Level shift para.    LevelShift      ....    0.2500
   Turn off err/grad.   ShiftErr        ....    0.0010
 Zerner damping         CNVZerner       .... off
 Static damping         CNVDamp         .... on
   Fraction old density DampFac         ....    0.7000
   Max. Damping (<1)    DampMax         ....    0.9800
   Min. Damping (>=0)   DampMin         ....    0.0000
   Turn off err/grad.   DampErr         ....    0.1000

SCF Procedure:
 Maximum # iterations   MaxIter         ....   125
 SCF integral mode      SCFMode         .... Direct
   Integral package                     .... SHARK and LIBINT hybrid scheme
 Reset frequency        DirectResetFreq ....    20
 Integral Threshold     Thresh          ....  1.000e-12 Eh
 Primitive CutOff       TCut            ....  1.000e-13 Eh

Convergence Tolerance:
 Convergence Check Mode ConvCheckMode   .... Total+1el-Energy
 Convergence forced     ConvForced      .... 1
 Energy Change          TolE            ....  1.000e-08 Eh
 1-El. energy change                    ....  1.000e-05 Eh
 Orbital Gradient       TolG            ....  1.000e-05
 Orbital Rotation angle TolX            ....  1.000e-05
 DIIS Error             TolErr          ....  5.000e-07

------------------------------
INITIAL GUESS: MODEL POTENTIAL
------------------------------
Loading Hartree-Fock densities                     ... done
Calculating cut-offs                               ... done
Initializing the effective Hamiltonian             ... done
Setting up the integral package (SHARK)            ... done
Starting the Coulomb interaction                   ... done (   1.9 sec)
Making the grid                                    ... done (   7.0 sec)
Mapping shells                                     ... done
Starting the XC term evaluation                    ... done (   1.0 sec)
  promolecular density results
     # of electrons  =    131.989583990
     EX              =   -113.589695675
     EC              =     -4.501458622
     EX+EC           =   -118.091154298
Transforming the Hamiltonian                       ... done (   1.8 sec)
Diagonalizing the Hamiltonian                      ... done (   1.3 sec)
Back transforming the eigenvectors                 ... done (   0.3 sec)
Now organizing SCF variables                       ... done
                      ------------------
                      INITIAL GUESS DONE (  16.1 sec)
                      ------------------
             **** ENERGY FILE WAS UPDATED (orca.en.tmp) ****
Finished Guess after  39.2 sec
Maximum memory used throughout the entire GUESS-calculation: 73.6 MB
[1737029292.950745] [ohm:271246:0]        ib_iface.c:1059 UCX  ERROR ibv_create_cq(cqe=256) failed: Connection timed out
[1737029292.953360] [ohm:271233:0]        ib_iface.c:1059 UCX  ERROR ibv_create_cq(cqe=256) failed: Connection timed out
[1737029292.954344] [ohm:271235:0]        ib_iface.c:1059 UCX  ERROR ibv_create_cq(cqe=256) failed: Connection timed out
[1737029292.962954] [ohm:271236:0]        ib_iface.c:1059 UCX  ERROR ibv_create_cq(cqe=256) failed: Connection timed out
[1737029292.963432] [ohm:271240:0]        ib_iface.c:1059 UCX  ERROR ibv_create_cq(cqe=256) failed: Connection timed out
[1737029292.969839] [ohm:271250:0]        ib_iface.c:1059 UCX  ERROR ibv_create_cq(cqe=256) failed: Connection timed out
[1737029292.976655] [ohm:271237:0]        ib_iface.c:1059 UCX  ERROR ibv_create_cq(cqe=256) failed: Connection timed out
[1737029292.993798] [ohm:271272:0]        ib_iface.c:1059 UCX  ERROR ibv_create_cq(cqe=256) failed: Connection timed out
[1737029292.995639] [ohm:271259:0]        ib_iface.c:1059 UCX  ERROR ibv_create_cq(cqe=256) failed: Connection timed out
[1737029292.995914] [ohm:271248:0]        ib_iface.c:1059 UCX  ERROR ibv_create_cq(cqe=256) failed: Connection timed out
[1737029292.997038] [ohm:271238:0]        ib_iface.c:1059 UCX  ERROR ibv_create_cq(cqe=256) failed: Connection timed out
[1737029293.003343] [ohm:271241:0]        ib_iface.c:1059 UCX  ERROR ibv_create_cq(cqe=256) failed: Connection timed out
[1737029293.004589] [ohm:271290:0]        ib_iface.c:1059 UCX  ERROR ibv_create_cq(cqe=256) failed: Connection timed out
[1737029293.007685] [ohm:271276:0]        ib_iface.c:1059 UCX  ERROR ibv_create_cq(cqe=256) failed: Connection timed out
[1737029293.011870] [ohm:271249:0]        ib_iface.c:1059 UCX  ERROR ibv_create_cq(cqe=256) failed: Connection timed out
[1737029293.013279] [ohm:271232:0]        ib_iface.c:1059 UCX  ERROR ibv_create_cq(cqe=256) failed: Connection timed out
[1737029293.018061] [ohm:271265:0]        ib_iface.c:1059 UCX  ERROR ibv_create_cq(cqe=256) failed: Connection timed out
[1737029293.020541] [ohm:271282:0]        ib_iface.c:1059 UCX  ERROR ibv_create_cq(cqe=256) failed: Connection timed out
[1737029293.020660] [ohm:271231:0]        ib_iface.c:1059 UCX  ERROR ibv_create_cq(cqe=256) failed: Connection timed out
[1737029293.024569] [ohm:271280:0]        ib_iface.c:1059 UCX  ERROR ibv_create_cq(cqe=256) failed: Connection timed out
[1737029293.025598] [ohm:271247:0]        ib_iface.c:1059 UCX  ERROR ibv_create_cq(cqe=256) failed: Connection timed out
[1737029293.029344] [ohm:271251:0]        ib_iface.c:1059 UCX  ERROR ibv_create_cq(cqe=256) failed: Connection timed out
[1737029293.033461] [ohm:271244:0]        ib_iface.c:1059 UCX  ERROR ibv_create_cq(cqe=256) failed: Connection timed out
[1737029293.043419] [ohm:271245:0]        ib_iface.c:1059 UCX  ERROR ibv_create_cq(cqe=256) failed: Connection timed out
[1737029293.043461] [ohm:271288:0]        ib_iface.c:1059 UCX  ERROR ibv_create_cq(cqe=256) failed: Connection timed out
[1737029293.045785] [ohm:271242:0]        ib_iface.c:1059 UCX  ERROR ibv_create_cq(cqe=256) failed: Connection timed out
[1737029293.050679] [ohm:271234:0]        ib_iface.c:1059 UCX  ERROR ibv_create_cq(cqe=256) failed: Connection timed out
[1737029293.052614] [ohm:271243:0]        ib_iface.c:1059 UCX  ERROR ibv_create_cq(cqe=256) failed: Connection timed out
[1737029293.060921] [ohm:271295:0]        ib_iface.c:1059 UCX  ERROR ibv_create_cq(cqe=256) failed: Connection timed out
[1737029293.061510] [ohm:271274:0]        ib_iface.c:1059 UCX  ERROR ibv_create_cq(cqe=256) failed: Connection timed out
[1737029293.071292] [ohm:271261:0]        ib_iface.c:1059 UCX  ERROR ibv_create_cq(cqe=256) failed: Connection timed out
[1737029293.084480] [ohm:271298:0]        ib_iface.c:1059 UCX  ERROR ibv_create_cq(cqe=256) failed: Connection timed out


           ************************************************************
           *        Program running with 32 parallel MPI-processes    *
           *              working on a common directory               *
           ************************************************************

-------------------------------------------------------------------------------------------
                                      ORCA LEAN-SCF
                              memory conserving SCF solver
-------------------------------------------------------------------------------------------

----------------------------------------D-I-I-S--------------------------------------------
Iteration    Energy (Eh)           Delta-E    RMSDP     MaxDP     DIISErr   Damp  Time(sec)
-------------------------------------------------------------------------------------------
               ***  Starting incremental Fock matrix formation  ***
    1    -908.1372317630427915     0.00e+00  2.14e-03  4.53e-01  1.46e-01  0.700  36.8
    2    -908.4035431998288459    -2.66e-01  1.63e-03  3.07e-01  6.88e-02  0.700  55.0
                               ***Turning on AO-DIIS***
    3    -908.5214499851351775    -1.18e-01  1.16e-03  2.43e-01  2.91e-02  0.700  45.8
    4    -908.5938743447043180    -7.24e-02  2.64e-03  5.40e-01  1.79e-02  0.000  52.8
    5    -908.7565331924704424    -1.63e-01  3.26e-04  1.27e-01  3.69e-03  0.000  41.6
                              *** Initializing SOSCF ***
---------------------------------------S-O-S-C-F--------------------------------------
Iteration    Energy (Eh)           Delta-E    RMSDP     MaxDP     MaxGrad    Time(sec)
--------------------------------------------------------------------------------------
    6    -908.7578243609948458    -1.29e-03  1.54e-04  6.19e-02  2.62e-03    43.8
               *** Restarting incremental Fock matrix formation ***
    7    -908.7583904711043488    -5.66e-04  3.08e-04  5.31e-02  4.62e-03    31.3
    8    -908.7587690188854594    -3.79e-04  2.82e-04  8.34e-02  2.55e-03    41.6
    9    -908.7589082980910007    -1.39e-04  1.50e-04  2.99e-02  7.91e-04    44.6
   10    -908.7589638500423916    -5.56e-05  3.61e-05  1.39e-02  4.65e-04    40.8
   11    -908.7589748682860318    -1.10e-05  9.27e-06  1.89e-03  1.30e-04    43.0
   12    -908.7589764737019777    -1.61e-06  5.76e-06  1.36e-03  1.30e-04    34.2
   13    -908.7589773651413907    -8.91e-07  5.15e-06  9.92e-04  3.94e-05    39.8
   14    -908.7589775391495550    -1.74e-07  2.01e-06  7.27e-04  1.93e-05    28.5
   15    -908.7589775766466573    -3.75e-08  1.81e-06  3.66e-04  9.35e-06    33.9
   16    -908.7589776248967155    -4.83e-08  1.61e-06  3.08e-04  3.79e-06    37.7
   17    -908.7589776433235329    -1.84e-08  2.20e-06  5.84e-04  2.02e-06    37.6
                  *** Gradient check signals convergence ***

               *****************************************************
               *                     SUCCESS                       *
               *           SCF CONVERGED AFTER  17 CYCLES          *
               *****************************************************

Recomputing exchange energy using gridx3       ... done (   31.606 sec)
Old exchange energy                            :    -35.056541859 Eh
New exchange energy                            :    -35.056551089 Eh
Exchange energy change after final integration :     -0.000009230 Eh
Total energy after final integration           :   -908.758986874 Eh
             **** ENERGY FILE WAS UPDATED (orca.en.tmp) ****

----------------
TOTAL SCF ENERGY
----------------

Total Energy       :       -908.75898687376491 Eh          -24728.58921 eV

Components:
Nuclear Repulsion  :       1439.80080647008413 Eh           39178.97176 eV
Electronic Energy  :      -2348.55978411340766 Eh          -63907.56072 eV
One Electron Energy:      -4096.45206265370325 Eh         -111470.12766 eV
Two Electron Energy:       1747.89227854029559 Eh           47562.56693 eV

Virial components:
Potential Energy   :      -1814.75889864148962 Eh          -49382.10017 eV
Kinetic Energy     :        905.99991176772471 Eh           24653.51096 eV
Virial Ratio       :          2.00304533705821

DFT components:
N(Alpha)           :       67.000065276856 electrons
N(Beta)            :       65.000065693672 electrons
N(Total)           :      132.000130970527 electrons
E(XC)              :      -86.315847738803 Eh       

---------------
SCF CONVERGENCE
---------------

  Last Energy change         ...    1.8427e-08  Tolerance :   1.0000e-08
  Last MAX-Density change    ...    5.8380e-04  Tolerance :   1.0000e-07
  Last RMS-Density change    ...    2.2031e-06  Tolerance :   5.0000e-09
  Last DIIS Error            ...    2.6154e-03  Tolerance :   5.0000e-07
  Last Orbital Gradient      ...    2.0183e-06  Tolerance :   1.0000e-05
  Last Orbital Rotation      ...    1.2284e-05  Tolerance :   1.0000e-05


----------------------
UHF SPIN CONTAMINATION
----------------------

Warning: in a DFT calculation there is little theoretical justification to 
         calculate <S**2> as in Hartree-Fock theory. We will do it anyways
         but you should keep in mind that the values have only limited relevance

Expectation value of <S**2>     :     2.012036
Ideal value S*(S+1) for S=1.0   :     2.000000
Deviation                       :     0.012036

----------------
ORBITAL ENERGIES
----------------
                 SPIN UP ORBITALS
  NO   OCC          E(Eh)            E(eV) 
   0   1.0000     -19.335741      -526.1523 
   1   1.0000     -19.331278      -526.0308 
   2   1.0000     -19.324549      -525.8477 
   3   1.0000     -19.316481      -525.6282 
   4   1.0000     -14.564088      -396.3090 
   5   1.0000     -14.562454      -396.2645 
   6   1.0000     -14.562429      -396.2638 
   7   1.0000     -14.560190      -396.2029 
   8   1.0000     -10.508009      -285.9375 
   9   1.0000     -10.504550      -285.8433 
  10   1.0000     -10.482837      -285.2525 
  11   1.0000     -10.481054      -285.2040 
  12   1.0000     -10.446792      -284.2717 
  13   1.0000     -10.442905      -284.1659 
  14   1.0000     -10.419195      -283.5207 
  15   1.0000     -10.417091      -283.4634 
  16   1.0000     -10.378780      -282.4210 
  17   1.0000     -10.376186      -282.3504 
  18   1.0000      -1.223167       -33.2841 
  19   1.0000      -1.218233       -33.1498 
  20   1.0000      -1.200251       -32.6605 
  21   1.0000      -1.195955       -32.5436 
  22   1.0000      -1.122995       -30.5583 
  23   1.0000      -1.098760       -29.8988 
  24   1.0000      -1.067839       -29.0574 
  25   1.0000      -1.058533       -28.8042 
  26   1.0000      -0.996493       -27.1160 
  27   1.0000      -0.954964       -25.9859 
  28   1.0000      -0.897503       -24.4223 
  29   1.0000      -0.842857       -22.9353 
  30   1.0000      -0.830430       -22.5971 
  31   1.0000      -0.802270       -21.8309 
  32   1.0000      -0.787066       -21.4172 
  33   1.0000      -0.784724       -21.3534 
  34   1.0000      -0.707602       -19.2548 
  35   1.0000      -0.697874       -18.9901 
  36   1.0000      -0.695874       -18.9357 
  37   1.0000      -0.678049       -18.4507 
  38   1.0000      -0.658913       -17.9299 
  39   1.0000      -0.638123       -17.3642 
  40   1.0000      -0.626193       -17.0396 
  41   1.0000      -0.602089       -16.3837 
  42   1.0000      -0.596375       -16.2282 
  43   1.0000      -0.589154       -16.0317 
  44   1.0000      -0.582302       -15.8452 
  45   1.0000      -0.575862       -15.6700 
  46   1.0000      -0.567241       -15.4354 
  47   1.0000      -0.564308       -15.3556 
  48   1.0000      -0.558332       -15.1930 
  49   1.0000      -0.556316       -15.1381 
  50   1.0000      -0.549725       -14.9588 
  51   1.0000      -0.548138       -14.9156 
  52   1.0000      -0.535326       -14.5670 
  53   1.0000      -0.525297       -14.2941 
  54   1.0000      -0.515322       -14.0226 
  55   1.0000      -0.511377       -13.9153 
  56   1.0000      -0.495219       -13.4756 
  57   1.0000      -0.424372       -11.5477 
  58   1.0000      -0.422141       -11.4870 
  59   1.0000      -0.411817       -11.2061 
  60   1.0000      -0.404512       -11.0073 
  61   1.0000      -0.400597       -10.9008 
  62   1.0000      -0.393509       -10.7079 
  63   1.0000      -0.390318       -10.6211 
  64   1.0000      -0.383087       -10.4243 
  65   1.0000      -0.350005        -9.5241 
  66   1.0000      -0.324613        -8.8332 
  67   0.0000       0.007212         0.1962 
  68   0.0000       0.027895         0.7591 
  69   0.0000       0.032816         0.8930 
  70   0.0000       0.035205         0.9580 
  71   0.0000       0.054244         1.4761 
  72   0.0000       0.055826         1.5191 
  73   0.0000       0.059077         1.6076 
  74   0.0000       0.062651         1.7048 
  75   0.0000       0.064131         1.7451 
  76   0.0000       0.069539         1.8922 
  77   0.0000       0.073575         2.0021 

                 SPIN DOWN ORBITALS
  NO   OCC          E(Eh)            E(eV) 
   0   1.0000     -19.332235      -526.0569 
   1   1.0000     -19.327470      -525.9272 
   2   1.0000     -19.324239      -525.8393 
   3   1.0000     -19.316483      -525.6282 
   4   1.0000     -14.562914      -396.2770 
   5   1.0000     -14.562190      -396.2573 
   6   1.0000     -14.561669      -396.2432 
   7   1.0000     -14.560168      -396.2023 
   8   1.0000     -10.508023      -285.9378 
   9   1.0000     -10.504600      -285.8447 
  10   1.0000     -10.483809      -285.2789 
  11   1.0000     -10.481918      -285.2275 
  12   1.0000     -10.446138      -284.2539 
  13   1.0000     -10.443145      -284.1724 
  14   1.0000     -10.406876      -283.1855 
  15   1.0000     -10.405546      -283.1493 
  16   1.0000     -10.379393      -282.4376 
  17   1.0000     -10.376792      -282.3669 
  18   1.0000      -1.221462       -33.2377 
  19   1.0000      -1.216579       -33.1048 
  20   1.0000      -1.195953       -32.5435 
  21   1.0000      -1.191702       -32.4279 
  22   1.0000      -1.119896       -30.4739 
  23   1.0000      -1.096469       -29.8364 
  24   1.0000      -1.065898       -29.0046 
  25   1.0000      -1.056847       -28.7583 
  26   1.0000      -0.984409       -26.7871 
  27   1.0000      -0.937773       -25.5181 
  28   1.0000      -0.891205       -24.2509 
  29   1.0000      -0.837285       -22.7837 
  30   1.0000      -0.821505       -22.3543 
  31   1.0000      -0.797459       -21.7000 
  32   1.0000      -0.785507       -21.3747 
  33   1.0000      -0.782833       -21.3020 
  34   1.0000      -0.703150       -19.1337 
  35   1.0000      -0.689354       -18.7583 
  36   1.0000      -0.688911       -18.7462 
  37   1.0000      -0.669221       -18.2104 
  38   1.0000      -0.648333       -17.6420 
  39   1.0000      -0.634650       -17.2697 
  40   1.0000      -0.621940       -16.9239 
  41   1.0000      -0.597330       -16.2542 
  42   1.0000      -0.589672       -16.0458 
  43   1.0000      -0.583966       -15.8905 
  44   1.0000      -0.575583       -15.6624 
  45   1.0000      -0.566229       -15.4079 
  46   1.0000      -0.563234       -15.3264 
  47   1.0000      -0.561488       -15.2789 
  48   1.0000      -0.551977       -15.0201 
  49   1.0000      -0.546150       -14.8615 
  50   1.0000      -0.543475       -14.7887 
  51   1.0000      -0.538586       -14.6557 
  52   1.0000      -0.529986       -14.4217 
  53   1.0000      -0.516101       -14.0438 
  54   1.0000      -0.509842       -13.8735 
  55   1.0000      -0.504072       -13.7165 
  56   1.0000      -0.488718       -13.2987 
  57   1.0000      -0.419473       -11.4144 
  58   1.0000      -0.418877       -11.3982 
  59   1.0000      -0.406894       -11.0721 
  60   1.0000      -0.393809       -10.7161 
  61   1.0000      -0.390426       -10.6240 
  62   1.0000      -0.388828       -10.5805 
  63   1.0000      -0.385991       -10.5034 
  64   1.0000      -0.375964       -10.2305 
  65   0.0000      -0.066340        -1.8052 
  66   0.0000      -0.036265        -0.9868 
  67   0.0000       0.006579         0.1790 
  68   0.0000       0.027782         0.7560 
  69   0.0000       0.032586         0.8867 
  70   0.0000       0.035123         0.9558 
  71   0.0000       0.054638         1.4868 
  72   0.0000       0.056596         1.5401 
  73   0.0000       0.062038         1.6881 
  74   0.0000       0.063336         1.7235 
  75   0.0000       0.065171         1.7734 
*Only the first 10 virtual orbitals were printed.

                    ********************************
                    * MULLIKEN POPULATION ANALYSIS *
                    ********************************

--------------------------------------------
MULLIKEN ATOMIC CHARGES AND SPIN POPULATIONS
--------------------------------------------
   0 O :   -0.679046    0.140700
   1 O :   -0.649518    0.123931
   2 O :   -0.663947    0.000108
   3 O :   -0.645465    0.010632
   4 N :   -0.220108    0.019145
   5 N :   -0.329663    0.038419
   6 N :   -0.044261    0.034155
   7 N :    0.064542    0.009650
   8 C :   -0.185069    0.470685
   9 C :    0.219088    0.437560
  10 C :    0.887572    0.096670
  11 C :    0.407915    0.161560
  12 C :   -1.639654   -0.005414
  13 C :   -1.544927    0.014988
  14 C :    0.796206    0.138926
  15 C :    0.278308    0.164251
  16 C :    0.476351   -0.008358
  17 C :    0.332745   -0.004785
  18 H :    0.387302    0.030929
  19 H :    0.633082    0.030961
  20 H :    0.254126    0.033384
  21 H :    0.343492   -0.000388
  22 H :    0.386390    0.015126
  23 H :    0.340641    0.023908
  24 H :    0.219501    0.009534
  25 H :    0.391543    0.013207
  26 H :    0.027063   -0.000903
  27 H :    0.099574    0.002622
  28 H :    0.025727   -0.001700
  29 H :    0.030492    0.000498
Sum of atomic charges         :    0.0000000
Sum of atomic spin populations:    2.0000000

-----------------------------------------------------
MULLIKEN REDUCED ORBITAL CHARGES AND SPIN POPULATIONS
-----------------------------------------------------
CHARGE
  0 O s       :     4.092477  s :     4.092477
      pz      :     1.643048  p :     4.552319
      px      :     1.346732
      py      :     1.562539
      dz2     :     0.003125  d :     0.032347
      dxz     :     0.005727
      dyz     :     0.003616
      dx2y2   :     0.011418
      dxy     :     0.008461
      f0      :     0.000205  f :     0.001903
      f+1     :     0.000247
      f-1     :     0.000107
      f+2     :     0.000111
      f-2     :     0.000301
      f+3     :     0.000527
      f-3     :     0.000405

  1 O s       :     4.088849  s :     4.088849
      pz      :     1.323385  p :     4.527639
      px      :     1.577314
      py      :     1.626939
      dz2     :     0.008077  d :     0.031107
      dxz     :     0.011976
      dyz     :     0.010742
      dx2y2   :     0.000259
      dxy     :     0.000053
      f0      :     0.000600  f :     0.001923
      f+1     :     0.000546
      f-1     :     0.000538
      f+2     :     0.000132
      f-2     :     0.000104
      f+3     :     0.000002
      f-3     :     0.000002

  2 O s       :     4.072470  s :     4.072470
      pz      :     1.484742  p :     4.557804
      px      :     1.708616
      py      :     1.364447
      dz2     :     0.007533  d :     0.031715
      dxz     :     0.004037
      dyz     :     0.007614
      dx2y2   :     0.008778
      dxy     :     0.003754
      f0      :     0.000193  f :     0.001958
      f+1     :     0.000091
      f-1     :     0.000491
      f+2     :     0.000386
      f-2     :     0.000344
      f+3     :     0.000204
      f-3     :     0.000250

  3 O s       :     4.072151  s :     4.072151
      pz      :     1.785753  p :     4.543259
      px      :     1.339730
      py      :     1.417777
      dz2     :     0.003209  d :     0.028108
      dxz     :     0.002409
      dyz     :     0.000814
      dx2y2   :     0.013018
      dxy     :     0.008658
      f0      :     0.000224  f :     0.001948
      f+1     :     0.000248
      f-1     :     0.000145
      f+2     :     0.000080
      f-2     :     0.000305
      f+3     :     0.000551
      f-3     :     0.000395

  4 N s       :     3.646111  s :     3.646111
      pz      :     1.220189  p :     3.510975
      px      :     1.163215
      py      :     1.127571
      dz2     :     0.027374  d :     0.059411
      dxz     :     0.015793
      dyz     :     0.006321
      dx2y2   :     0.005624
      dxy     :     0.004298
      f0      :     0.000506  f :     0.003611
      f+1     :     0.000500
      f-1     :     0.000646
      f+2     :     0.000761
      f-2     :     0.000669
      f+3     :     0.000335
      f-3     :     0.000192

  5 N s       :     3.696404  s :     3.696404
      pz      :     1.028448  p :     3.597875
      px      :     1.064097
      py      :     1.505330
      dz2     :     0.003102  d :     0.032146
      dxz     :     0.012279
      dyz     :     0.004922
      dx2y2   :     0.013415
      dxy     :    -0.001572
      f0      :     0.000390  f :     0.003237
      f+1     :     0.000310
      f-1     :     0.000429
      f+2     :     0.000445
      f-2     :     0.000456
      f+3     :     0.000581
      f-3     :     0.000625

  6 N s       :     3.509165  s :     3.509165
      pz      :     1.199109  p :     3.456581
      px      :     1.105703
      py      :     1.151769
      dz2     :     0.006639  d :     0.074799
      dxz     :     0.006142
      dyz     :     0.022106
      dx2y2   :     0.029974
      dxy     :     0.009939
      f0      :     0.000341  f :     0.003715
      f+1     :     0.000248
      f-1     :     0.000579
      f+2     :     0.000454
      f-2     :     0.000711
      f+3     :     0.000714
      f-3     :     0.000669

  7 N s       :     3.431260  s :     3.431260
      pz      :     0.944121  p :     3.437173
      px      :     1.248234
      py      :     1.244818
      dz2     :     0.023961  d :     0.063416
      dxz     :     0.005722
      dyz     :     0.005055
      dx2y2   :     0.007208
      dxy     :     0.021470
      f0      :     0.000587  f :     0.003610
      f+1     :     0.000595
      f-1     :     0.000429
      f+2     :     0.000272
      f-2     :     0.000652
      f+3     :     0.000547
      f-3     :     0.000528

  8 C s       :     3.885295  s :     3.885295
      pz      :     0.605116  p :     2.107059
      px      :     0.775070
      py      :     0.726873
      dz2     :     0.053101  d :     0.183636
      dxz     :    -0.037195
      dyz     :    -0.030224
      dx2y2   :     0.176486
      dxy     :     0.021469
      f0      :     0.000984  f :     0.009078
      f+1     :     0.001168
      f-1     :     0.001202
      f+2     :     0.001289
      f-2     :     0.001703
      f+3     :     0.001599
      f-3     :     0.001133

  9 C s       :     3.711864  s :     3.711864
      pz      :     0.683664  p :     1.959228
      px      :     0.859852
      py      :     0.415711
      dz2     :    -0.086331  d :     0.101597
      dxz     :     0.096282
      dyz     :     0.012793
      dx2y2   :     0.060129
      dxy     :     0.018725
      f0      :     0.001756  f :     0.008223
      f+1     :     0.000875
      f-1     :     0.001455
      f+2     :     0.001320
      f-2     :     0.000797
      f+3     :     0.001140
      f-3     :     0.000881

 10 C s       :     2.853640  s :     2.853640
      pz      :     0.846733  p :     2.040678
      px      :     0.789677
      py      :     0.404268
      dz2     :     0.123550  d :     0.207195
      dxz     :     0.063766
      dyz     :    -0.014397
      dx2y2   :    -0.000016
      dxy     :     0.034292
      f0      :     0.001230  f :     0.010914
      f+1     :     0.000589
      f-1     :     0.002294
      f+2     :     0.001185
      f-2     :     0.001891
      f+3     :     0.002036
      f-3     :     0.001690

 11 C s       :     3.340892  s :     3.340892
      pz      :     0.774161  p :     2.117566
      px      :     0.454188
      py      :     0.889217
      dz2     :     0.015298  d :     0.123313
      dxz     :     0.008140
      dyz     :     0.134338
      dx2y2   :    -0.119302
      dxy     :     0.084840
      f0      :     0.001301  f :     0.010314
      f+1     :     0.001289
      f-1     :     0.001209
      f+2     :     0.000731
      f-2     :     0.001092
      f+3     :     0.002443
      f-3     :     0.002250

 12 C s       :     3.998235  s :     3.998235
      pz      :     1.105759  p :     3.526764
      px      :     1.397622
      py      :     1.023383
      dz2     :     0.053880  d :     0.111716
      dxz     :     0.002204
      dyz     :    -0.000771
      dx2y2   :     0.037367
      dxy     :     0.019036
      f0      :     0.000309  f :     0.002939
      f+1     :     0.000249
      f-1     :     0.000651
      f+2     :     0.000623
      f-2     :     0.000400
      f+3     :     0.000385
      f-3     :     0.000321

 13 C s       :     3.949263  s :     3.949263
      pz      :     1.366173  p :     3.490812
      px      :     1.220550
      py      :     0.904090
      dz2     :     0.025134  d :     0.101929
      dxz     :     0.013317
      dyz     :    -0.000780
      dx2y2   :     0.014500
      dxy     :     0.049758
      f0      :     0.000486  f :     0.002923
      f+1     :     0.000072
      f-1     :     0.000341
      f+2     :     0.000522
      f-2     :    -0.000028
      f+3     :     0.000886
      f-3     :     0.000642

 14 C s       :     3.213792  s :     3.213792
      pz      :     0.630779  p :     1.731731
      px      :     0.538044
      py      :     0.562909
      dz2     :     0.049030  d :     0.236488
      dxz     :     0.065893
      dyz     :     0.034090
      dx2y2   :     0.062022
      dxy     :     0.025453
      f0      :     0.002203  f :     0.021783
      f+1     :     0.002286
      f-1     :     0.002792
      f+2     :     0.003062
      f-2     :     0.003564
      f+3     :     0.004960
      f-3     :     0.002915

 15 C s       :     3.561931  s :     3.561931
      pz      :     0.624039  p :     1.918216
      px      :     0.632601
      py      :     0.661576
      dz2     :     0.011113  d :     0.219924
      dxz     :     0.073118
      dyz     :     0.059521
      dx2y2   :     0.052102
      dxy     :     0.024070
      f0      :     0.005047  f :     0.021621
      f+1     :     0.004597
      f-1     :     0.004854
      f+2     :     0.001533
      f-2     :     0.002286
      f+3     :     0.001474
      f-3     :     0.001830

 16 C s       :     3.296707  s :     3.296707
      pz      :     0.723714  p :     1.963000
      px      :     0.657502
      py      :     0.581784
      dz2     :     0.097182  d :     0.238227
      dxz     :     0.040795
      dyz     :     0.020936
      dx2y2   :     0.020535
      dxy     :     0.058779
      f0      :     0.003585  f :     0.025715
      f+1     :     0.002248
      f-1     :     0.004523
      f+2     :     0.003357
      f-2     :     0.004920
      f+3     :     0.004214
      f-3     :     0.002868

 17 C s       :     3.341311  s :     3.341311
      pz      :     0.716693  p :     2.048212
      px      :     0.645443
      py      :     0.686076
      dz2     :     0.024974  d :     0.252332
      dxz     :     0.085979
      dyz     :     0.069759
      dx2y2   :     0.073881
      dxy     :    -0.002262
      f0      :     0.004952  f :     0.025401
      f+1     :     0.003411
      f-1     :     0.003078
      f+2     :     0.003062
      f-2     :     0.004478
      f+3     :     0.003943
      f-3     :     0.002476

 18 H s       :     0.594265  s :     0.594265
      pz      :     0.011436  p :     0.015635
      px      :    -0.006169
      py      :     0.010367
      dz2     :     0.000751  d :     0.002799
      dxz     :     0.000912
      dyz     :     0.000938
      dx2y2   :     0.000062
      dxy     :     0.000137

 19 H s       :     0.373586  s :     0.373586
      pz      :    -0.009283  p :    -0.009636
      px      :    -0.017093
      py      :     0.016740
      dz2     :     0.000970  d :     0.002968
      dxz     :     0.000425
      dyz     :     0.000506
      dx2y2   :     0.000480
      dxy     :     0.000587

 20 H s       :     0.709277  s :     0.709277
      pz      :     0.010431  p :     0.034381
      px      :     0.015698
      py      :     0.008252
      dz2     :     0.000309  d :     0.002216
      dxz     :     0.000127
      dyz     :     0.000649
      dx2y2   :     0.000518
      dxy     :     0.000613

 21 H s       :     0.604217  s :     0.604217
      pz      :     0.021159  p :     0.049988
      px      :     0.024799
      py      :     0.004030
      dz2     :     0.000686  d :     0.002303
      dxz     :     0.000598
      dyz     :     0.000738
      dx2y2   :     0.000168
      dxy     :     0.000113

 22 H s       :     0.560028  s :     0.560028
      pz      :     0.017229  p :     0.051227
      px      :     0.027537
      py      :     0.006462
      dz2     :     0.000225  d :     0.002355
      dxz     :     0.000775
      dyz     :     0.000030
      dx2y2   :     0.000516
      dxy     :     0.000809

 23 H s       :     0.600405  s :     0.600405
      pz      :     0.033486  p :     0.056750
      px      :     0.020075
      py      :     0.003189
      dz2     :     0.000386  d :     0.002204
      dxz     :     0.000488
      dyz     :     0.000206
      dx2y2   :     0.000677
      dxy     :     0.000446

 24 H s       :     0.734087  s :     0.734087
      pz      :     0.031226  p :     0.044193
      px      :     0.013569
      py      :    -0.000601
[...]
=> NOW LEAVING ORCA_CIS


-------------------------------------------------------------------------------
                          DFT DISPERSION CORRECTION                            
                                                                               
                              DFTD3 V3.1  Rev 1                                
                          USING Becke-Johnson damping                          
-------------------------------------------------------------------------------
The WB97M functional is recognized
Active option DFTDOPT                   ...         4   

molecular C6(AA) [au] = 9600.081157 


            DFT-D V3
 parameters
 s6 scaling factor         :     1.0000 
 a1 scaling factor         :     0.5660 
 s8 scaling factor         :     0.3908 
 a2 scaling factor         :     3.1280 
 ad hoc parameters k1-k3   :    16.0000     1.3333    -4.0000 

 Edisp/kcal,au: -36.847544710956  -0.058720293961 
 E6   /kcal   : -29.556407246 
 E8   /kcal   :  -7.291137465 
 % E8         :  19.787308822 

-------------------------   ----------------
Dispersion correction           -0.058720294
-------------------------   ----------------


-------------------------   --------------------
FINAL SINGLE POINT ENERGY      -908.788492794250
-------------------------   --------------------

[1737030500.087927] [ohm:275133:0]        ib_iface.c:1059 UCX  ERROR ibv_create_cq(cqe=256) failed: Connection timed out
[1737030500.093029] [ohm:275141:0]        ib_iface.c:1059 UCX  ERROR ibv_create_cq(cqe=256) failed: Connection timed out
[1737030500.099538] [ohm:275131:0]        ib_iface.c:1059 UCX  ERROR ibv_create_cq(cqe=256) failed: Connection timed out
[1737030500.104180] [ohm:275149:0]        ib_iface.c:1059 UCX  ERROR ibv_create_cq(cqe=256) failed: Connection timed out
[1737030500.107352] [ohm:275146:0]        ib_iface.c:1059 UCX  ERROR ibv_create_cq(cqe=256) failed: Connection timed out
[1737030500.109709] [ohm:275151:0]        ib_iface.c:1059 UCX  ERROR ibv_create_cq(cqe=256) failed: Connection timed out
[1737030500.111374] [ohm:275132:0]        ib_iface.c:1059 UCX  ERROR ibv_create_cq(cqe=256) failed: Connection timed out
[1737030500.112638] [ohm:275142:0]        ib_iface.c:1059 UCX  ERROR ibv_create_cq(cqe=256) failed: Connection timed out
[1737030500.114765] [ohm:275135:0]        ib_iface.c:1059 UCX  ERROR ibv_create_cq(cqe=256) failed: Connection timed out
[1737030500.115536] [ohm:275136:0]        ib_iface.c:1059 UCX  ERROR ibv_create_cq(cqe=256) failed: Connection timed out
[1737030500.118833] [ohm:275140:0]        ib_iface.c:1059 UCX  ERROR ibv_create_cq(cqe=256) failed: Connection timed out
[1737030500.121186] [ohm:275143:0]        ib_iface.c:1059 UCX  ERROR ibv_create_cq(cqe=256) failed: Connection timed out
[1737030500.126986] [ohm:275148:0]        ib_iface.c:1059 UCX  ERROR ibv_create_cq(cqe=256) failed: Connection timed out
[1737030500.130186] [ohm:275134:0]        ib_iface.c:1059 UCX  ERROR ibv_create_cq(cqe=256) failed: Connection timed out
[1737030500.133421] [ohm:275154:0]        ib_iface.c:1059 UCX  ERROR ibv_create_cq(cqe=256) failed: Connection timed out
[1737030500.141764] [ohm:275175:0]        ib_iface.c:1059 UCX  ERROR ibv_create_cq(cqe=256) failed: Connection timed out
[1737030500.142876] [ohm:275139:0]        ib_iface.c:1059 UCX  ERROR ibv_create_cq(cqe=256) failed: Connection timed out
[1737030500.148818] [ohm:275157:0]        ib_iface.c:1059 UCX  ERROR ibv_create_cq(cqe=256) failed: Connection timed out
[1737030500.155554] [ohm:275187:0]        ib_iface.c:1059 UCX  ERROR ibv_create_cq(cqe=256) failed: Connection timed out
[1737030500.159048] [ohm:275158:0]        ib_iface.c:1059 UCX  ERROR ibv_create_cq(cqe=256) failed: Connection timed out
[1737030500.160700] [ohm:275153:0]        ib_iface.c:1059 UCX  ERROR ibv_create_cq(cqe=256) failed: Connection timed out
[1737030500.161757] [ohm:275137:0]        ib_iface.c:1059 UCX  ERROR ibv_create_cq(cqe=256) failed: Connection timed out
[1737030500.164492] [ohm:275145:0]        ib_iface.c:1059 UCX  ERROR ibv_create_cq(cqe=256) failed: Connection timed out
[1737030500.166028] [ohm:275147:0]        ib_iface.c:1059 UCX  ERROR ibv_create_cq(cqe=256) failed: Connection timed out
[1737030500.167113] [ohm:275155:0]        ib_iface.c:1059 UCX  ERROR ibv_create_cq(cqe=256) failed: Connection timed out
[1737030500.167466] [ohm:275152:0]        ib_iface.c:1059 UCX  ERROR ibv_create_cq(cqe=256) failed: Connection timed out
[1737030500.170495] [ohm:275182:0]        ib_iface.c:1059 UCX  ERROR ibv_create_cq(cqe=256) failed: Connection timed out
[1737030500.180642] [ohm:275144:0]        ib_iface.c:1059 UCX  ERROR ibv_create_cq(cqe=256) failed: Connection timed out
[1737030500.180969] [ohm:275138:0]        ib_iface.c:1059 UCX  ERROR ibv_create_cq(cqe=256) failed: Connection timed out
[1737030500.182825] [ohm:275184:0]        ib_iface.c:1059 UCX  ERROR ibv_create_cq(cqe=256) failed: Connection timed out
[1737030500.183666] [ohm:275162:0]        ib_iface.c:1059 UCX  ERROR ibv_create_cq(cqe=256) failed: Connection timed out
[1737030500.183816] [ohm:275150:0]        ib_iface.c:1059 UCX  ERROR ibv_create_cq(cqe=256) failed: Connection timed out


           ************************************************************
           *        Program running with 32 parallel MPI-processes    *
           *              working on a common directory               *
           ************************************************************

------------------------------------------------------------------------------
                              ORCA PROPERTY CALCULATIONS
------------------------------------------------------------------------------

GBWName                                 ... orca.gbw
Number of atoms                         ...     30
Number of basis functions               ...    882
Max core memory                         ...   1024 MB

Electric properties:
Dipole moment                           ... YES
Quadrupole moment                       ...  NO
Static polarizability (Dipole/Dipole)   ...  NO
Static polarizability (Dipole/Quad.)    ...  NO
Static polarizability (Quad./Quad.)     ...  NO
Static polarizability (Velocity)        ...  NO

Atomic electric properties:
Dipole moment                           ...  NO
Quadrupole moment                       ...  NO
Static polarizability                   ...  NO

Choice of electric origin               ... Center of mass
Position of electric origin             ...     0.012858    -0.025451     0.042441

General magnetic properties:
Magnetizability                         ...  NO

EPR properties:
g-Tensor (aka g-matrix)                 ...  NO
Zero-Field splitting spin-orbit         ...  NO
Zero-field splitting spin-spin          ...  NO
Hyperfine couplings                     ...  NO (   0 nuclei)
Quadrupole couplings                    ...  NO (   0 nuclei)
Contact density                         ...  NO (   0 nuclei)

NMR properties:
Chemical shifts                         ...  NO (   0 nuclei)
Spin-rotation constants                 ...  NO (   0 nuclei)
Spin-spin couplings                     ...  NO (   0 nuclei,    0 pairs)

Choice of magnetic origin               ... GIAO
Position of magnetic origin             ...     0.000000     0.000000     0.000000

Properties with geometric perturbations:
SCF Hessian                             ...  NO
IR spectrum                             ...  NO
VCD spectrum                            ...  NO
X-ray spectroscopy properties:
SCF XES/XAS/RIXS spectra                ...  NO


-------------
DIPOLE MOMENT
-------------

Method             : SCF
Type of density    : Electron Density
Multiplicity       :   3
Irrep              :   0
Energy             :  -908.7589868737649113 Eh
Relativity type    : 
Basis              : AO
                                X                 Y                 Z
Electronic contribution:     -1.991450442      -9.923274886      -6.671517217
Nuclear contribution   :      1.938306303      11.327756783       9.079170506
                        -----------------------------------------
Total Dipole Moment    :     -0.053144140       1.404481896       2.407653289
                        -----------------------------------------
Magnitude (a.u.)       :      2.787864426
Magnitude (Debye)      :      7.086188222



--------------------
Rotational spectrum 
--------------------
 
Rotational constants in cm-1:             0.020246             0.013350             0.011690 
Rotational constants in MHz :           606.970895           400.208055           350.467275 

Dipole components along the rotational axes: 
x,y,z [a.u.] :    -0.193023    -2.092897    -1.831588 
x,y,z [Debye]:    -0.490625    -5.319720    -4.655527 

 

-------------
DIPOLE MOMENT
-------------

Method             : TDA/CIS
Type of density    : Electron Density
Level              : Relaxed density
State              :   2
Multiplicity       :   3
Irrep              :   0
Energy             :     0.0000000000000000 Eh
Relativity type    : 
Basis              : AO
                                X                 Y                 Z
Electronic contribution:     -2.062139086      -9.842849270      -6.589531576
Nuclear contribution   :      1.938306303      11.327756783       9.079170506
                        -----------------------------------------
Total Dipole Moment    :     -0.123832783       1.484907512       2.489638930
                        -----------------------------------------
Magnitude (a.u.)       :      2.901480119
Magnitude (Debye)      :      7.374976363



--------------------
Rotational spectrum 
--------------------
 
Rotational constants in cm-1:             0.020246             0.013350             0.011690 
Rotational constants in MHz :           606.970895           400.208055           350.467275 

Dipole components along the rotational axes: 
x,y,z [a.u.] :    -0.131325    -2.197758    -1.889762 
x,y,z [Debye]:    -0.333801    -5.586257    -4.803393 

 

Dipole moment calculation done in   1.9 sec 

Maximum memory used throughout the entire PROP-calculation: 82.7 MB
[1737030508.931731] [ohm:275309:0]        ib_iface.c:1059 UCX  ERROR ibv_create_cq(cqe=256) failed: Connection timed out
[1737030508.963656] [ohm:275306:0]        ib_iface.c:1059 UCX  ERROR ibv_create_cq(cqe=256) failed: Connection timed out
[1737030508.993141] [ohm:275325:0]        ib_iface.c:1059 UCX  ERROR ibv_create_cq(cqe=256) failed: Connection timed out
[1737030509.002917] [ohm:275328:0]        ib_iface.c:1059 UCX  ERROR ibv_create_cq(cqe=256) failed: Connection timed out
[1737030508.997213] [ohm:275338:0]        ib_iface.c:1059 UCX  ERROR ibv_create_cq(cqe=256) failed: Connection timed out
[1737030508.994688] [ohm:275344:0]        ib_iface.c:1059 UCX  ERROR ibv_create_cq(cqe=256) failed: Connection timed out
[1737030508.980676] [ohm:275305:0]        ib_iface.c:1059 UCX  ERROR ibv_create_cq(cqe=256) failed: Connection timed out
[1737030508.997005] [ohm:275304:0]        ib_iface.c:1059 UCX  ERROR ibv_create_cq(cqe=256) failed: Connection timed out
[1737030508.989802] [ohm:275308:0]        ib_iface.c:1059 UCX  ERROR ibv_create_cq(cqe=256) failed: Connection timed out
[1737030509.001154] [ohm:275311:0]        ib_iface.c:1059 UCX  ERROR ibv_create_cq(cqe=256) failed: Connection timed out
[1737030508.988466] [ohm:275318:0]        ib_iface.c:1059 UCX  ERROR ibv_create_cq(cqe=256) failed: Connection timed out
[1737030508.994198] [ohm:275312:0]        ib_iface.c:1059 UCX  ERROR ibv_create_cq(cqe=256) failed: Connection timed out
[1737030509.002919] [ohm:275313:0]        ib_iface.c:1059 UCX  ERROR ibv_create_cq(cqe=256) failed: Connection timed out
[1737030508.972173] [ohm:275321:0]        ib_iface.c:1059 UCX  ERROR ibv_create_cq(cqe=256) failed: Connection timed out
[1737030508.992881] [ohm:275317:0]        ib_iface.c:1059 UCX  ERROR ibv_create_cq(cqe=256) failed: Connection timed out
[1737030509.002487] [ohm:275320:0]        ib_iface.c:1059 UCX  ERROR ibv_create_cq(cqe=256) failed: Connection timed out
[1737030508.981956] [ohm:275322:0]        ib_iface.c:1059 UCX  ERROR ibv_create_cq(cqe=256) failed: Connection timed out
[1737030509.010989] [ohm:275307:0]        ib_iface.c:1059 UCX  ERROR ibv_create_cq(cqe=256) failed: Connection timed out
[1737030509.013581] [ohm:275314:0]        ib_iface.c:1059 UCX  ERROR ibv_create_cq(cqe=256) failed: Connection timed out
[1737030509.017759] [ohm:275310:0]        ib_iface.c:1059 UCX  ERROR ibv_create_cq(cqe=256) failed: Connection timed out
[1737030509.018508] [ohm:275326:0]        ib_iface.c:1059 UCX  ERROR ibv_create_cq(cqe=256) failed: Connection timed out
[1737030509.019792] [ohm:275324:0]        ib_iface.c:1059 UCX  ERROR ibv_create_cq(cqe=256) failed: Connection timed out
[1737030509.051723] [ohm:275315:0]        ib_iface.c:1059 UCX  ERROR ibv_create_cq(cqe=256) failed: Connection timed out
[1737030509.066518] [ohm:275316:0]        ib_iface.c:1059 UCX  ERROR ibv_create_cq(cqe=256) failed: Connection timed out
[1737030509.060265] [ohm:275319:0]        ib_iface.c:1059 UCX  ERROR ibv_create_cq(cqe=256) failed: Connection timed out
[1737030509.023530] [ohm:275323:0]        ib_iface.c:1059 UCX  ERROR ibv_create_cq(cqe=256) failed: Connection timed out
[1737030509.029103] [ohm:275342:0]        ib_iface.c:1059 UCX  ERROR ibv_create_cq(cqe=256) failed: Connection timed out
[1737030509.028428] [ohm:275331:0]        ib_iface.c:1059 UCX  ERROR ibv_create_cq(cqe=256) failed: Connection timed out
[1737030509.053124] [ohm:275354:0]        ib_iface.c:1059 UCX  ERROR ibv_create_cq(cqe=256) failed: Connection timed out
[1737030509.061230] [ohm:275332:0]        ib_iface.c:1059 UCX  ERROR ibv_create_cq(cqe=256) failed: Connection timed out
[1737030509.069302] [ohm:275360:0]        ib_iface.c:1059 UCX  ERROR ibv_create_cq(cqe=256) failed: Connection timed out
[1737030509.042280] [ohm:275350:0]        ib_iface.c:1059 UCX  ERROR ibv_create_cq(cqe=256) failed: Connection timed out

--------------------------------
SUGGESTED CITATIONS FOR THIS RUN
--------------------------------

Below you find a list of papers that are relevant to this ORCA run
We neither can nor want to force you to cite these papers, but we appreciate if you do
You receive ORCA, which is the product of decades of hard work by many enthusiastic individuals, for free
The only thing we kindly ask in return is that you cite our papers,
We deeply appreciate it, if you show your appreciation for ORCA by not just citing the generic ORCA reference.

Please note that relegating all ORCA citations to the supporting information does *not* help us.
SI sections are not indexed - citations you put there will not count into any citation statistics
But we need these citations in order to attract the funding resources that allow us to do what we are doing

Therefore, if you are a happy ORCA user, please consider citing a few of the papers listed below in the main body of your paper

In addition to the list printed below, the program has created the file orca.bibtex that contains the list in bibtex format
You can import this file easily into all common literature databanks and citation aid programs


List of essential papers. We consider these as the minimum necessary citations

  1. Neese,F.
     Software update: the ORCA program system, version 5.0
     WIRES Comput. Molec. Sci., 2022 12(1)e1606
     doi.org/10.1002/wcms.1606

List of papers to cite with high priority. The work reported in these papers was absolutely
necessary for this run to complete.
Our perspective: the developers of density functionals and basis sets usually get cited in chemistry papers
Good! But without the algorithms to do something with them, the functionals or basis sets would not do anything.
Hence, in our opinion, the algorithm design and method developments papers are equally worthy of getting cited

  1. Neese,F.; Olbrich,G.
     Efficient use of the resolution of the identity approximation in time-dependent density functional calculations with hybrid density functionals
     Chem. Phys. Lett., 2002 362 170-178
     doi.org/10.1016/s0009-2614(02)01053-9
  2. Neese,F.
     An improvement of the resolution of the identity approximation for the formation of the Coulomb matrix
     J. Comp. Chem., 2003 24(14)1740-1747
     doi.org/10.1002/jcc.10318
  3. Neese,F.; Wennmohs,F.; Hansen,A.; Becker,U.
     Efficient, approximate and parallel Hartree-Fock and hybrid DFT calculations. A 'chain-of-spheres' algorithm for the Hartree-Fock exchange
     Chem. Phys., 2009 356(1-3)98-109
     doi.org/10.1016/j.chemphys.2008.10.036
  4. Petrenko,T.; Kossmann,S.; Neese,F.
     Efficient time-dependent density functional theory approximations for hybrid density functionals: Analytical gradients and parallelization
     J. Chem. Phys., 2011 134 054116
     doi.org/10.1063/1.3533441
  5. Helmich-Paris,B.; de Souza,B.; Neese,F.; Izsák,R.
     An improved chain of spheres for exchange algorithm
     J. Chem. Phys., 2021 155 104109
     doi.org/doi: 10.1063/5.0058766.
  6. Neese,F.
     The SHARK Integral Generation and Digestion System
     J. Comp. Chem., 2022  1-16
     doi.org/10.1002/jcc.26942
  7. Lehtola,S.; Steigemann,C.; Oliveira,M.; Marques,M.
     Recent developments in Libxc - A comprehensive library of functionals for density functional theory
     Software X, 2018 7 
     doi.org/10.1016/j.softx.2017.11.002
  8. Grimme,S.; Antony,J.; Ehrlich,S.; Krieg,H.
     A consistent and accurate ab initio parametrization of density functional dispersion correction (DFT-D) for the 94 elements H-Pu
     J. Chem. Phys., 2010 132 154104-XXXX
     doi.org/10.1063/1.3382344
  9. Grimme,S.; Ehrlich,S.; Goerigk,L.
     Effect of the damping function in dispersion corrected density functional theory
     J. Comput. Chem., 2011 32(7)1456-1465
     doi.org/10.1002/jcc.21759

List of suggested additional citations. These are papers that are important in the 'surrounding' of 
of this run, or papers that preceded the highly important papers. If you like your results we are grateful for a citation.

  1. Izsak,R.; Neese,F.
     An overlap fitted chain of spheres exchange method
     J. Chem. Phys., 2011 135 144105
     doi.org/10.1063/1.3646921
  2. Izsak,R.; Hansen,A.; Neese,F.
     The resolution of identity and chain of spheres approximations for the LPNO-CCSD singles Fock term
     Molec. Phys., 2012 110 2413-2417
     doi.org/10.1080/00268976.2012.687466
  3. Neese,F.
     The ORCA program system
     WIRES Comput. Molec. Sci., 2012 2(1)73-78
     doi.org/10.1002/wcms.81
  4. Izsak,R.; Neese,F.; Klopper,W.
     Robust fitting techniques in the chain of spheres approximation to the Fock exchange: The role of the complementary space
     J. Chem. Phys., 2013 139 
     doi.org/10.1063/1.4819264
  5. Neese,F.
     Software update: the ORCA program system, version 4.0
     WIRES Comput. Molec. Sci., 2018 8(1)1-6
     doi.org/10.1002/wcms.1327
  6. Neese,F.; Wennmohs,F.; Becker,U.; Riplinger,C.
     The ORCA quantum chemistry program package
     J. Chem. Phys., 2020 152 Art. No. L224108
     doi.org/10.1063/5.0004608

List of optional additional citations

  1. Neese,F.
     Approximate second-order SCF convergence for spin unrestricted wavefunctions
     Chem. Phys. Lett., 2000 325(1-3)93-98
     doi.org/10.1016/s0009-2614(00)00662-x

Timings for individual modules:

Sum of individual times          ...     1287.690 sec (=  21.462 min)
Startup calculation              ...       31.851 sec (=   0.531 min)   2.5 %
SCF iterations                   ...      815.606 sec (=  13.593 min)  63.3 %
Property integrals               ...        5.834 sec (=   0.097 min)   0.5 %
Property calculations            ...        8.866 sec (=   0.148 min)   0.7 %
CIS module                       ...      425.534 sec (=   7.092 min)  33.0 %
                             ****ORCA TERMINATED NORMALLY****
TOTAL RUN TIME: 0 days 0 hours 21 minutes 30 seconds 391 msec
