7
Properties=species:S:1:pos:R:3:momenta:R:3:forces:R:3 Coordinates=T from=T ORCA-job=T orca=T E=T -153.931009416206=T energy=-4184.254717165421 free_energy=-4184.254717165421 stress="-3.0678775311287518e-06 -1.7469140086871349e-06 2.54682978999965e-06 -1.7469140086871349e-06 -7.962234967959546e-06 -2.2742428320906526e-06 2.54682978999965e-06 -2.2742428320906526e-06 -2.051191273291178e-06" pbc="F F F"
O        0.50858649       1.36847923       0.08700918      -0.04897960       2.38185219       0.88902995       0.01512119       1.34138751       0.34014000
C        0.58106364       0.13042043      -0.30247494       0.18310047      -1.88480424      -0.85454672      -0.20682095      -0.46596330       0.14974012
C       -0.43520003      -0.82993130       0.21155743       0.00410898      -0.41119578      -0.09613020       0.34253415      -0.88763301      -0.53530474
H        0.07531070      -1.65959997       0.72810957      -0.03849843      -0.09946212       0.00862947      -0.36479313       0.21188175       0.01983371
H        1.36654773      -0.13985290      -0.95698320       0.03837091       0.01411511       0.01667755       0.58385096      -0.19993535      -0.49364223
H       -0.97729892      -1.24438533      -0.64179249      -0.08203853       0.07333849       0.02109810      -0.17099042      -0.16872345       0.13328605
H       -1.13550382      -0.33948992       0.85654236      -0.05606380      -0.07384366       0.01524185      -0.19890179       0.16898586       0.38594709
