
                                 *****************
                                 * O   R   C   A *
                                 *****************

                                            #,                                       
                                            ###                                      
                                            ####                                     
                                            #####                                    
                                            ######                                   
                                           ########,                                 
                                     ,,################,,,,,                         
                               ,,#################################,,                 
                          ,,##########################################,,             
                       ,#########################################, ''#####,          
                    ,#############################################,,   '####,        
                  ,##################################################,,,,####,       
                ,###########''''           ''''###############################       
              ,#####''   ,,,,##########,,,,          '''####'''          '####       
            ,##' ,,,,###########################,,,                        '##       
           ' ,,###''''                  '''############,,,                           
         ,,##''                                '''############,,,,        ,,,,,,###''
      ,#''                                            '''#######################'''  
     '                                                          ''''####''''         
             ,#######,   #######,   ,#######,      ##                                
            ,#'     '#,  ##    ##  ,#'     '#,    #''#        ,####,   ,####,        
            ##       ##  ##   ,#'  ##            #'  '#       #'       #'  '#        
            ##       ##  #######   ##           ,######,      #####,   #    #        
            '#,     ,#'  ##    ##  '#,     ,#' ,#      #,     #,   #   #,  ,#        
             '#######'   ##     ##  '#######'  #'      '#     '####' # '####'        



                #########################################################
                #                        -***-                          #
                #          Department of theory and spectroscopy        #
                #                                                       #
                #                      Frank Neese                      #
                #                                                       #
                #     Directorship, Architecture, Infrastructure        #
                #                    SHARK, DRIVERS                     #
                #        Core code/Algorithms in most modules           #
                #                                                       #
                #        Max Planck Institute fuer Kohlenforschung      #
                #                Kaiser Wilhelm Platz 1                 #
                #                 D-45470 Muelheim/Ruhr                 #
                #                      Germany                          #
                #                                                       #
                #                  All rights reserved                  #
                #                        -***-                          #
                #########################################################


                         Program Version 6.0.0  -   RELEASE  -


 With contributions from (in alphabetic order):
   Daniel Aravena         : Magnetic Suceptibility
   Michael Atanasov       : Ab Initio Ligand Field Theory (pilot matlab implementation)
   Alexander A. Auer      : GIAO ZORA, VPT2 properties, NMR spectrum
   Ute Becker             : All parallelization in ORCA, NUMFREQ, NUMCALC
   Giovanni Bistoni       : ED, misc. LED, open-shell LED, HFLD
   Martin Brehm           : Molecular dynamics
   Dmytro Bykov           : pre 5.0 version of the SCF Hessian
   Marcos Casanova-Páez   : Triplet and SCS-CIS(D). UHF-(DLPNO)-IP/EA/STEOM-CCSD. UHF-CVS-IP/STEOM-CCSD
   Vijay G. Chilkuri      : MRCI spin determinant printing, contributions to CSF-ICE
   Pauline Colinet        : FMM embedding
   Dipayan Datta          : RHF DLPNO-CCSD density
   Achintya Kumar Dutta   : EOM-CC, STEOM-CC
   Nicolas Foglia         : Exact transition moments, OPA infrastructure, MCD improvements
   Dmitry Ganyushin       : Spin-Orbit,Spin-Spin,Magnetic field MRCI
   Miquel Garcia          : C-PCM and meta-GGA Hessian, CCSD/C-PCM, Gaussian charge scheme
   Tiago L. C. Gouveia    : GS-ROHF, GS-ROCIS
   Yang Guo               : DLPNO-NEVPT2, F12-NEVPT2, CIM, IAO-localization
   Andreas Hansen         : Spin unrestricted coupled pair/coupled cluster methods
   Ingolf Harden          : AUTO-CI MPn and infrastructure 
   Benjamin Helmich-Paris : MC-RPA, TRAH-(SCF,CASSCF), AVAS, COSX integrals, SCF dyn. polar.
   Lee Huntington         : MR-EOM, pCC
   Robert Izsak           : Overlap fitted RIJCOSX, COSX-SCS-MP3, EOM
   Riya Kayal             : Wick's Theorem for AUTO-CI, AUTO-CI UHF-CCSDT
   Emily Kempfer          : AUTO-CI, RHF CISDT and CCSDT
   Christian Kollmar      : KDIIS, OOCD, Brueckner-CCSD(T), CCSD density, CASPT2, CASPT2-K, improved NEVPT2
   Axel Koslowski         : Symmetry handling
   Simone Kossmann        : Meta GGA functionals, TD-DFT gradient, OOMP2, (MP2 Hessian; deprecated post 5.0)
   Lucas Lang             : DCDCAS
   Marvin Lechner         : AUTO-CI (C++ implementation), FIC-MRCC
   Spencer Leger          : CASSCF response
   Dagmar Lenk            : GEPOL surface, SMD, ORCA-2-JSON
   Dimitrios Liakos       : Extrapolation schemes; Compound Job, initial MDCI parallelization
   Dimitrios Manganas     : Further ROCIS development; embedding schemes. LFT, Crystal Embedding
   Dimitrios Pantazis     : SARC Basis sets
   Anastasios Papadopoulos: AUTO-CI, single reference methods and gradients
   Taras Petrenko         : pre 6.0 DFT Hessian and TD-DFT gradient, (ASA, deprecated), ECA, 1-Electron XAS/XES, NRVS
   Peter Pinski           : DLPNO-MP2, DLPNO-MP2 Gradient
   Christoph Reimann      : Effective Core Potentials
   Marius Retegan         : Local ZFS, SOC
   Christoph Riplinger    : Optimizer, TS searches, QM/MM, DLPNO-CCSD(T), (RO)-DLPNO pert. Triples
   Michael Roemelt        : Original ROCIS implementation
   Masaaki Saitow         : Open-shell DLPNO-CCSD energy and density
   Barbara Sandhoefer     : DKH picture change effects
   Kantharuban Sivalingam : CASSCF convergence/infrastructure, NEVPT2 and variants, FIC-MRCI
   Bernardo de Souza      : ESD, SOC TD-DFT
   Georgi Stoychev        : AutoAux, RI-MP2 NMR, DLPNO-MP2 response, X2C
   Van Anh Tran           : RI-MP2 g-tensors
   Willem Van den Heuvel  : Paramagnetic NMR
   Zikuan Wang            : NOTCH, Electric field optimization 
   Frank Wennmohs         : Technical directorship and infrastructure
   Hang Xu                : AUTO-CI-Response properties 


 We gratefully acknowledge several colleagues who have allowed us to
 interface, adapt or use parts of their codes:
   Stefan Grimme, W. Hujo, H. Kruse, P. Pracht,  : VdW corrections, initial TS optimization,
                  C. Bannwarth, S. Ehlert,         DFT functionals, gCP, sTDA/sTD-DF
                  L. Wittmann, M. Mueller
   Ed Valeev, F. Pavosevic, A. Kumar             : LibInt (2-el integral package), F12 methods
   Garnet Chan, S. Sharma, J. Yang, R. Olivares  : DMRG
   Ulf Ekstrom                                   : XCFun DFT Library
   Mihaly Kallay                                 : mrcc  (arbitrary order and MRCC methods)
   Frank Weinhold                                : gennbo (NPA and NBO analysis)
   Simon Mueller                                 : openCOSMO-RS
   Christopher J. Cramer and Donald G. Truhlar   : smd solvation model
   Lars Goerigk                                  : TD-DFT with DH, B97 family of functionals
   V. Asgeirsson, H. Jonsson                     : NEB implementation
   FAccTs GmbH                                   : IRC, NEB, NEB-TS, DLPNO-Multilevel, CI-OPT
                                                   MM, QMMM, 2- and 3-layer-ONIOM, Crystal-QMMM,
                                                   LR-CPCM, SF, NACMEs, symmetry and pop. for TD-DFT,
                                                   nearIR, NL-DFT gradient (VV10), updates on ESD,
                                                   ML-optimized integration grids, MBIS, APM,
                                                   GOAT, DOCKER, SOLVATOR, interface openCOSMO-RS
   S Lehtola, MJT Oliveira, MAL Marques          : LibXC Library
   Liviu Ungur et al                             : ANISO software


 Your calculation uses the libint2 library for the computation of 2-el integrals
 For citations please refer to: http://libint.valeyev.net

 Your ORCA version has been built with support for libXC version: 6.2.2
 For citations please refer to: https://libxc.gitlab.io

 This ORCA versions uses:
   CBLAS   interface :  Fast vector & matrix operations
   LAPACKE interface :  Fast linear algebra routines
   SCALAPACK package :  Parallel linear algebra routines
   Shared memory     :  Shared parallel matrices
   BLAS/LAPACK       :  OpenBLAS 0.3.27  USE64BITINT DYNAMIC_ARCH NO_AFFINITY Zen SINGLE_THREADED
        Core in use  :  Zen
   Copyright (c) 2011-2014, The OpenBLAS Project


Your calculation utilizes the atom-pairwise dispersion correction
with the Becke-Johnson damping scheme (D3BJ)


Warning: RI is on but no J-basis has been assigned. Assigning Def2/J (nothing to worry about!)
================================================================================

----- Orbital basis set information -----
Your calculation utilizes the basis: def2-TZVPPD
   F. Weigend and R. Ahlrichs, Phys. Chem. Chem. Phys. 7, 3297 (2005).
   D. Rappoport and F. Furche, J. Chem. Phys. 133, 134105 (2010)
   D. Rappoport, J. Chem. Phys. 155, 124102 (2021).

----- AuxJ basis set information -----
Your calculation utilizes the auxiliary basis: def2/J
   F. Weigend, Phys. Chem. Chem. Phys. 8, 1057 (2006).

================================================================================
                                        WARNINGS
                       Please study these warnings very carefully!
================================================================================

Using LibXC functional ID 531 : wB97M-V exchange-correlation functional
[ 1]  N. Mardirossian and M. Head-Gordon.,  J. Chem. Phys. 144, 214110 (2016)
Using LibXC functional ID 531 : wB97M-V exchange-correlation functional
[ 1]  N. Mardirossian and M. Head-Gordon.,  J. Chem. Phys. 144, 214110 (2016)

WARNING: B97M-V or wB97M-V functional requested.
  ===> : libXC variant has now been activated.
         Any manually given DFX/HFX/RangeSep scaling parameters are IGNORED!

Your calculation utilizes LibXC
 by S Lehtola, C Steigemann, MJT Oliveira & MAL Marques
Please cite in your paper:
 S Lehtola, C Steigemann, MJT Oliveira & MAL Marques, SoftwareX, 7, (2018), 1.
   


WARNING: your system is open-shell and RHF/RKS was chosen
  ===> : WILL SWITCH to UHF/UKS

INFO   : Checking CIS options ...

WARNING: CIS/ROCIS methods need fully converged wavefunctions
  ===> : Setting SCFConvForced true
         You can overwrite this default with %scf ConvForced false 


================================================================================
                                       INPUT FILE
================================================================================
NAME = orca.inp
|  1> ! Engrad def2-TZVPPD wB97M-D3BJ 
|  2> %pal nprocs 8 end%pal nprocs 32 end 
|  3> %tddft Nroots 2 Iroot 1 
|  4> sf true 
|  5> end 
|  6> *xyz 0 3 
|  7> O   0.4140849 1.06391977 -0.01310988
|  8> C   0.61188311 -0.28163453 0.001385
|  9> C   -0.75652623 -0.75622882 0.00819875
| 10> H   1.20880391 -0.54911861 0.87600438
| 11> H   1.23333744 -0.54999431 -0.85114885
| 12> H   -1.30236316 -0.71313296 -0.91159776
| 13> H   -1.28762723 -0.72627003 0.94307816
| 14> *
| 15> 
| 16>                          ****END OF INPUT****
================================================================================

                     *******************************
                     * Energy+Gradient Calculation *
                     *******************************

---------------------------------
CARTESIAN COORDINATES (ANGSTROEM)
---------------------------------
  O      0.414085    1.063920   -0.013110
  C      0.611883   -0.281635    0.001385
  C     -0.756526   -0.756229    0.008199
  H      1.208804   -0.549119    0.876004
  H      1.233337   -0.549994   -0.851149
  H     -1.302363   -0.713133   -0.911598
  H     -1.287627   -0.726270    0.943078

----------------------------
CARTESIAN COORDINATES (A.U.)
----------------------------
  NO LB      ZA    FRAG     MASS         X           Y           Z
   0 O     8.0000    0    15.999    0.782507    2.010517   -0.024774
   1 C     6.0000    0    12.011    1.156292   -0.532212    0.002617
   2 C     6.0000    0    12.011   -1.429627   -1.429065    0.015493
   3 H     1.0000    0     1.008    2.284308   -1.037684    1.655408
   4 H     1.0000    0     1.008    2.330670   -1.039339   -1.608438
   5 H     1.0000    0     1.008   -2.461110   -1.347626   -1.722670
   6 H     1.0000    0     1.008   -2.433263   -1.372451    1.782159

--------------------------------
INTERNAL COORDINATES (ANGSTROEM)
--------------------------------
 O      0   0   0     0.000000000000     0.00000000     0.00000000
 C      1   0   0     1.360092132054     0.00000000     0.00000000
 C      2   1   0     1.448388859764   100.76719029     0.00000000
 H      2   1   3     1.092163556615   109.28779767   237.80379510
 H      2   1   3     1.088593781533   108.57593449   124.07769681
 H      3   2   1     1.070430206557   117.67985488    76.03632286
 H      3   2   1     1.075623220529   117.48124488   281.67119559

---------------------------
INTERNAL COORDINATES (A.U.)
---------------------------
 O      0   0   0     0.000000000000     0.00000000     0.00000000
 C      1   0   0     2.570201646482     0.00000000     0.00000000
 C      2   1   0     2.737058280377   100.76719029     0.00000000
 H      2   1   3     2.063890015452   109.28779767   237.80379510
 H      2   1   3     2.057144118188   108.57593449   124.07769681
 H      3   2   1     2.022819935869   117.67985488    76.03632286
 H      3   2   1     2.032633310086   117.48124488   281.67119559

---------------------
BASIS SET INFORMATION
---------------------
There are 3 groups of distinct atoms

 Group   1 Type O   : 12s7p3d1f contracted to 6s4p3d1f pattern {621111/4111/111/1}
 Group   2 Type C   : 12s6p3d1f contracted to 6s3p3d1f pattern {621111/411/111/1}
 Group   3 Type H   : 5s3p1d contracted to 3s3p1d pattern {311/111/1}

Atom   0O    basis set group =>   1
Atom   1C    basis set group =>   2
Atom   2C    basis set group =>   2
Atom   3H    basis set group =>   3
Atom   4H    basis set group =>   3
Atom   5H    basis set group =>   3
Atom   6H    basis set group =>   3
---------------------------------
AUXILIARY/J BASIS SET INFORMATION
---------------------------------
There are 3 groups of distinct atoms

 Group   1 Type O   : 12s5p4d2f1g contracted to 6s4p3d1f1g pattern {711111/2111/211/2/1}
 Group   2 Type C   : 12s5p4d2f1g contracted to 6s4p3d1f1g pattern {711111/2111/211/2/1}
 Group   3 Type H   : 5s2p1d contracted to 3s1p1d pattern {311/2/1}

Atom   0O    basis set group =>   1
Atom   1C    basis set group =>   2
Atom   2C    basis set group =>   2
Atom   3H    basis set group =>   3
Atom   4H    basis set group =>   3
Atom   5H    basis set group =>   3
Atom   6H    basis set group =>   3
[1741042797.986501] [ohm:284075:0]        ib_iface.c:1059 UCX  ERROR ibv_create_cq(cqe=256) failed: Connection timed out
[1741042797.986477] [ohm:284088:0]        ib_iface.c:1059 UCX  ERROR ibv_create_cq(cqe=256) failed: Connection timed out
[1741042797.986480] [ohm:284071:0]        ib_iface.c:1059 UCX  ERROR ibv_create_cq(cqe=256) failed: Connection timed out
[1741042797.986555] [ohm:284079:0]        ib_iface.c:1059 UCX  ERROR ibv_create_cq(cqe=256) failed: Connection timed out
[1741042797.986664] [ohm:284089:0]        ib_iface.c:1059 UCX  ERROR ibv_create_cq(cqe=256) failed: Connection timed out
[1741042797.993218] [ohm:284081:0]        ib_iface.c:1059 UCX  ERROR ibv_create_cq(cqe=256) failed: Connection timed out
[1741042798.017202] [ohm:284093:0]        ib_iface.c:1059 UCX  ERROR ibv_create_cq(cqe=256) failed: Connection timed out
[1741042798.030321] [ohm:284078:0]        ib_iface.c:1059 UCX  ERROR ibv_create_cq(cqe=256) failed: Connection timed out
[1741042798.030960] [ohm:284070:0]        ib_iface.c:1059 UCX  ERROR ibv_create_cq(cqe=256) failed: Connection timed out
[1741042798.038063] [ohm:284086:0]        ib_iface.c:1059 UCX  ERROR ibv_create_cq(cqe=256) failed: Connection timed out
[1741042798.038925] [ohm:284076:0]        ib_iface.c:1059 UCX  ERROR ibv_create_cq(cqe=256) failed: Connection timed out
[1741042798.039040] [ohm:284098:0]        ib_iface.c:1059 UCX  ERROR ibv_create_cq(cqe=256) failed: Connection timed out
[1741042798.040187] [ohm:284082:0]        ib_iface.c:1059 UCX  ERROR ibv_create_cq(cqe=256) failed: Connection timed out
[1741042798.040842] [ohm:284083:0]        ib_iface.c:1059 UCX  ERROR ibv_create_cq(cqe=256) failed: Connection timed out
[1741042798.043493] [ohm:284074:0]        ib_iface.c:1059 UCX  ERROR ibv_create_cq(cqe=256) failed: Connection timed out
[1741042798.042749] [ohm:284085:0]        ib_iface.c:1059 UCX  ERROR ibv_create_cq(cqe=256) failed: Connection timed out
[1741042798.044600] [ohm:284092:0]        ib_iface.c:1059 UCX  ERROR ibv_create_cq(cqe=256) failed: Connection timed out
[1741042798.050175] [ohm:284077:0]        ib_iface.c:1059 UCX  ERROR ibv_create_cq(cqe=256) failed: Connection timed out
[1741042798.055306] [ohm:284103:0]        ib_iface.c:1059 UCX  ERROR ibv_create_cq(cqe=256) failed: Connection timed out
[1741042798.055303] [ohm:284118:0]        ib_iface.c:1059 UCX  ERROR ibv_create_cq(cqe=256) failed: Connection timed out
[1741042798.056434] [ohm:284068:0]        ib_iface.c:1059 UCX  ERROR ibv_create_cq(cqe=256) failed: Connection timed out
[1741042798.056570] [ohm:284084:0]        ib_iface.c:1059 UCX  ERROR ibv_create_cq(cqe=256) failed: Connection timed out
[1741042798.056712] [ohm:284080:0]        ib_iface.c:1059 UCX  ERROR ibv_create_cq(cqe=256) failed: Connection timed out
[1741042798.058018] [ohm:284087:0]        ib_iface.c:1059 UCX  ERROR ibv_create_cq(cqe=256) failed: Connection timed out
[1741042798.057610] [ohm:284113:0]        ib_iface.c:1059 UCX  ERROR ibv_create_cq(cqe=256) failed: Connection timed out
[1741042798.057033] [ohm:284107:0]        ib_iface.c:1059 UCX  ERROR ibv_create_cq(cqe=256) failed: Connection timed out
[1741042798.058686] [ohm:284091:0]        ib_iface.c:1059 UCX  ERROR ibv_create_cq(cqe=256) failed: Connection timed out
[1741042798.058561] [ohm:284072:0]        ib_iface.c:1059 UCX  ERROR ibv_create_cq(cqe=256) failed: Connection timed out
[1741042798.059373] [ohm:284090:0]        ib_iface.c:1059 UCX  ERROR ibv_create_cq(cqe=256) failed: Connection timed out
[1741042798.059510] [ohm:284094:0]        ib_iface.c:1059 UCX  ERROR ibv_create_cq(cqe=256) failed: Connection timed out
[1741042798.059449] [ohm:284069:0]        ib_iface.c:1059 UCX  ERROR ibv_create_cq(cqe=256) failed: Connection timed out
[1741042798.059886] [ohm:284073:0]        ib_iface.c:1059 UCX  ERROR ibv_create_cq(cqe=256) failed: Connection timed out


           ************************************************************
           *        Program running with 32 parallel MPI-processes    *
           *              working on a common directory               *
           ************************************************************
------------------------------------------------------------------------------
                             ORCA STARTUP CALCULATIONS
                           -- RI-GTO INTEGRALS CHOSEN --
------------------------------------------------------------------------------
------------------------------------------------------------------------------
                   ___                                                        
                  /   \      - P O W E R E D   B Y -                         
                 /     \                                                     
                 |  |  |   _    _      __       _____    __    __             
                 |  |  |  | |  | |    /  \     |  _  \  |  |  /  |          
                  \  \/   | |  | |   /    \    | | | |  |  | /  /          
                 / \  \   | |__| |  /  /\  \   | |_| |  |  |/  /          
                |  |  |   |  __  | /  /__\  \  |    /   |      \           
                |  |  |   | |  | | |   __   |  |    \   |  |\   \          
                \     /   | |  | | |  |  |  |  | |\  \  |  | \   \       
                 \___/    |_|  |_| |__|  |__|  |_| \__\ |__|  \__/        
                                                                              
                      - O R C A' S   B I G   F R I E N D -                    
                                      &                                       
                       - I N T E G R A L  F E E D E R -                       
                                                                              
 v1 FN, 2020, v2 2021, v3 2022-2024                                           
------------------------------------------------------------------------------


----------------------
SHARK INTEGRAL PACKAGE
----------------------

Number of atoms                             ...      7
Number of basis functions                   ...    182
Number of shells                            ...     68
Maximum angular momentum                    ...      3
Integral batch strategy                     ... SHARK/LIBINT Hybrid
RI-J (if used) integral strategy            ... SPLIT-RIJ (Revised 2003 algorithm where possible)
Printlevel                                  ...      1
Contraction scheme used                     ... SEGMENTED contraction
Prescreening option                         ... SCHWARTZ
   Thresh                                   ... 2.500e-11
   Tcut                                     ... 2.500e-12
   Tpresel                                  ... 2.500e-12 
Coulomb Range Separation                    ... NOT USED
Exchange Range Separation                   ... Long Range
   Mu parameter                             ... 3.000e-01
   Scaling (regular/separated)              ... 1.500e-01 8.500e-01
Multipole approximations                    ... NOT USED
Finite Nucleus Model                        ... NOT USED
CABS basis                                  ... NOT available
Auxiliary Coulomb fitting basis             ... AVAILABLE
   # of basis functions in Aux-J            ...    191
   # of shells in Aux-J                     ...     65
   Maximum angular momentum in Aux-J        ...      4
Auxiliary J/K fitting basis                 ... NOT available
Auxiliary Correlation fitting basis         ... NOT available
Auxiliary 'external' fitting basis          ... NOT available

Checking pre-screening integrals            ... done (  0.0 sec) Dimension = 68
Check shell pair data                       ... done (  0.0 sec)
Shell pair information
Shell pair cut-off parameter TPreSel        ...   2.5e-12
Total number of shell pairs                 ...      2346
Shell pairs after pre-screening             ...      2335
Total number of primitive shell pairs       ...      5434
Primitive shell pairs kept                  ...      4854
          la=0 lb=0:    457 shell pairs
          la=1 lb=0:    658 shell pairs
          la=1 lb=1:    253 shell pairs
          la=2 lb=0:    389 shell pairs
          la=2 lb=1:    286 shell pairs
          la=2 lb=2:     91 shell pairs
          la=3 lb=0:     90 shell pairs
          la=3 lb=1:     66 shell pairs
          la=3 lb=2:     39 shell pairs
          la=3 lb=3:      6 shell pairs

Calculating one electron integrals          ... done (  0.0 sec)
Calculating RI/J V-Matrix + Cholesky decomp.... done (  0.0 sec)
Calculating Nuclear repulsion               ... done (  0.0 sec) ENN=     69.963924613427 Eh

Diagonalization of the overlap matrix:
Smallest eigenvalue                        ... 1.778e-05
Time for diagonalization                   ...    0.003 sec
Threshold for overlap eigenvalues          ... 1.000e-07
Number of eigenvalues below threshold      ... 0
Time for construction of square roots      ...    0.002 sec
Total time needed                          ...    0.006 sec

-------------------
DFT GRID GENERATION
-------------------

General Integration Accuracy     IntAcc      ... 4.388
Radial Grid Type                 RadialGrid  ... OptM3 with GC (2021)
Angular Grid (max. ang.)         AngularGrid ... 4 (Lebedev-302)
Angular grid pruning method      GridPruning ... 4 (adaptive)
Weight generation scheme         WeightScheme... mBecke (2022)
Basis function cutoff            BFCut       ... 1.0000e-11
Integration weight cutoff        WCut        ... 1.0000e-14
Partially contracted basis set               ... off
Rotationally invariant grid construction     ... off
Angular grids for H and He will be reduced by one unit
Diffuse basis detected: some atoms will have their outermost
                        angular grid increased by 1.

Total number of grid points                  ...    33079
Total number of batches                      ...      520
Average number of points per batch           ...       63
Average number of grid points per atom       ...     4726

--------------------
COSX GRID GENERATION
--------------------

GRIDX 1
-------
General Integration Accuracy     IntAcc      ... 3.816
Radial Grid Type                 RadialGrid  ... OptM3 with GC (2021)
Angular Grid (max. ang.)         AngularGrid ... 1 (Lebedev-50)
Angular grid pruning method      GridPruning ... 4 (adaptive)
Weight generation scheme         WeightScheme... mBecke (2022)
Basis function cutoff            BFCut       ... 1.0000e-11
Integration weight cutoff        WCut        ... 1.0000e-14
Partially contracted basis set               ... on
Rotationally invariant grid construction     ... off
Angular grids for H and He will be reduced by one unit
Diffuse basis detected: some atoms will have their outermost
                        angular grid increased by 1.

Total number of grid points                  ...     4170
Total number of batches                      ...       36
Average number of points per batch           ...      115
Average number of grid points per atom       ...      596
UseSFitting                                  ... on

GRIDX 2
-------
General Integration Accuracy     IntAcc      ... 4.020
Radial Grid Type                 RadialGrid  ... OptM3 with GC (2021)
Angular Grid (max. ang.)         AngularGrid ... 2 (Lebedev-110)
Angular grid pruning method      GridPruning ... 4 (adaptive)
Weight generation scheme         WeightScheme... mBecke (2022)
Basis function cutoff            BFCut       ... 1.0000e-11
Integration weight cutoff        WCut        ... 1.0000e-14
Partially contracted basis set               ... on
Rotationally invariant grid construction     ... off
Angular grids for H and He will be reduced by one unit
Diffuse basis detected: some atoms will have their outermost
                        angular grid increased by 1.

Total number of grid points                  ...    10250
Total number of batches                      ...       84
Average number of points per batch           ...      122
Average number of grid points per atom       ...     1464
UseSFitting                                  ... on

GRIDX 3
-------
General Integration Accuracy     IntAcc      ... 4.338
Radial Grid Type                 RadialGrid  ... OptM3 with GC (2021)
Angular Grid (max. ang.)         AngularGrid ... 3 (Lebedev-194)
Angular grid pruning method      GridPruning ... 4 (adaptive)
Weight generation scheme         WeightScheme... mBecke (2022)
Basis function cutoff            BFCut       ... 1.0000e-11
Integration weight cutoff        WCut        ... 1.0000e-14
Partially contracted basis set               ... on
Rotationally invariant grid construction     ... off
Angular grids for H and He will be reduced by one unit
Diffuse basis detected: some atoms will have their outermost
                        angular grid increased by 1.

Total number of grid points                  ...    23070
Total number of batches                      ...      183
Average number of points per batch           ...      126
Average number of grid points per atom       ...     3296
UseSFitting                                  ... on
Initializing property integral containers    ... done (  0.0 sec)

SHARK setup successfully completed in   0.3 seconds

Maximum memory used throughout the entire STARTUP-calculation: 13.8 MB
[1741042799.209857] [ohm:284244:0]        ib_iface.c:1059 UCX  ERROR ibv_create_cq(cqe=256) failed: Connection timed out
[1741042799.210035] [ohm:284235:0]        ib_iface.c:1059 UCX  ERROR ibv_create_cq(cqe=256) failed: Connection timed out
[1741042799.211047] [ohm:284241:0]        ib_iface.c:1059 UCX  ERROR ibv_create_cq(cqe=256) failed: Connection timed out
[1741042799.211156] [ohm:284247:0]        ib_iface.c:1059 UCX  ERROR ibv_create_cq(cqe=256) failed: Connection timed out
[1741042799.214462] [ohm:284237:0]        ib_iface.c:1059 UCX  ERROR ibv_create_cq(cqe=256) failed: Connection timed out
[1741042799.227909] [ohm:284246:0]        ib_iface.c:1059 UCX  ERROR ibv_create_cq(cqe=256) failed: Connection timed out
[1741042799.228356] [ohm:284238:0]        ib_iface.c:1059 UCX  ERROR ibv_create_cq(cqe=256) failed: Connection timed out
[1741042799.228356] [ohm:284245:0]        ib_iface.c:1059 UCX  ERROR ibv_create_cq(cqe=256) failed: Connection timed out
[1741042799.228712] [ohm:284243:0]        ib_iface.c:1059 UCX  ERROR ibv_create_cq(cqe=256) failed: Connection timed out
[1741042799.229709] [ohm:284239:0]        ib_iface.c:1059 UCX  ERROR ibv_create_cq(cqe=256) failed: Connection timed out
[1741042799.231054] [ohm:284240:0]        ib_iface.c:1059 UCX  ERROR ibv_create_cq(cqe=256) failed: Connection timed out
[1741042799.241332] [ohm:284272:0]        ib_iface.c:1059 UCX  ERROR ibv_create_cq(cqe=256) failed: Connection timed out
[1741042799.250074] [ohm:284242:0]        ib_iface.c:1059 UCX  ERROR ibv_create_cq(cqe=256) failed: Connection timed out
[1741042799.250279] [ohm:284248:0]        ib_iface.c:1059 UCX  ERROR ibv_create_cq(cqe=256) failed: Connection timed out
[1741042799.250432] [ohm:284236:0]        ib_iface.c:1059 UCX  ERROR ibv_create_cq(cqe=256) failed: Connection timed out
[1741042799.263986] [ohm:284261:0]        ib_iface.c:1059 UCX  ERROR ibv_create_cq(cqe=256) failed: Connection timed out
[1741042799.268065] [ohm:284284:0]        ib_iface.c:1059 UCX  ERROR ibv_create_cq(cqe=256) failed: Connection timed out
[1741042799.268213] [ohm:284276:0]        ib_iface.c:1059 UCX  ERROR ibv_create_cq(cqe=256) failed: Connection timed out
[1741042799.276001] [ohm:284273:0]        ib_iface.c:1059 UCX  ERROR ibv_create_cq(cqe=256) failed: Connection timed out
[1741042799.276104] [ohm:284266:0]        ib_iface.c:1059 UCX  ERROR ibv_create_cq(cqe=256) failed: Connection timed out
[1741042799.278793] [ohm:284267:0]        ib_iface.c:1059 UCX  ERROR ibv_create_cq(cqe=256) failed: Connection timed out
[1741042799.279323] [ohm:284265:0]        ib_iface.c:1059 UCX  ERROR ibv_create_cq(cqe=256) failed: Connection timed out
[1741042799.279379] [ohm:284254:0]        ib_iface.c:1059 UCX  ERROR ibv_create_cq(cqe=256) failed: Connection timed out
[1741042799.280001] [ohm:284280:0]        ib_iface.c:1059 UCX  ERROR ibv_create_cq(cqe=256) failed: Connection timed out
[1741042799.281575] [ohm:284249:0]        ib_iface.c:1059 UCX  ERROR ibv_create_cq(cqe=256) failed: Connection timed out
[1741042799.281617] [ohm:284269:0]        ib_iface.c:1059 UCX  ERROR ibv_create_cq(cqe=256) failed: Connection timed out
[1741042799.281765] [ohm:284268:0]        ib_iface.c:1059 UCX  ERROR ibv_create_cq(cqe=256) failed: Connection timed out
[1741042799.282252] [ohm:284250:0]        ib_iface.c:1059 UCX  ERROR ibv_create_cq(cqe=256) failed: Connection timed out
[1741042799.281945] [ohm:284262:0]        ib_iface.c:1059 UCX  ERROR ibv_create_cq(cqe=256) failed: Connection timed out
[1741042799.282940] [ohm:284255:0]        ib_iface.c:1059 UCX  ERROR ibv_create_cq(cqe=256) failed: Connection timed out
[1741042799.282925] [ohm:284257:0]        ib_iface.c:1059 UCX  ERROR ibv_create_cq(cqe=256) failed: Connection timed out
[1741042799.283648] [ohm:284264:0]        ib_iface.c:1059 UCX  ERROR ibv_create_cq(cqe=256) failed: Connection timed out


           ************************************************************
           *        Program running with 32 parallel MPI-processes    *
           *              working on a common directory               *
           ************************************************************
-------------------------------------------------------------------------------
                                 ORCA GUESS
                   Start orbitals & Density for SCF / CASSCF
-------------------------------------------------------------------------------

------------
SCF SETTINGS
------------
Hamiltonian:
 Density Functional     Method          .... DFT(GTOs)
  Functional kind                       .... Exchange-Correlation
  Functional name                       .... wB97M-V exchange-correlation functional
  Functional family                     .... Hybrid MGGA
  Functional refs                              
    [ 0] N. Mardirossian and M. Head-Gordon.,  J. Chem. Phys. 144, 214110 (2016), doi: 10.1063/1.4952647
  Fraction of HF Exchange (short range) .... 0.1500
  Fraction of HF Exchange (long range)  .... 1.0000
  Range separation parameter mu         .... 0.3000
  Functional external parameters        .... 17
    Parameter  0 _cx00      =  8.500000e-01 : u^00 coefficient for exchange
    Parameter  1 _cx01      =  1.007000e+00 : u^01 coefficient for exchange
    Parameter  2 _cx10      =  2.590000e-01 : u^10 coefficient for exchange
    Parameter  3 _css00     =  4.430000e-01 : u^00 coefficient for same-spin correlation
    Parameter  4 _css04     = -1.437000e+00 : u^04 coefficient for same-spin correlation
    Parameter  5 _css10     = -4.535000e+00 : u^10 coefficient for same-spin correlation
    Parameter  6 _css20     = -3.390000e+00 : u^20 coefficient for same-spin correlation
    Parameter  7 _css43     =  4.278000e+00 : u^43 coefficient for same-spin correlation
    Parameter  8 _cos00     =  1.000000e+00 : u^00 coefficient for opposite-spin correlation
    Parameter  9 _cos10     =  1.358000e+00 : u^10 coefficient for opposite-spin correlation
    Parameter 10 _cos20     =  2.924000e+00 : u^20 coefficient for opposite-spin correlation
    Parameter 11 _cos21     = -8.812000e+00 : u^21 coefficient for opposite-spin correlation
    Parameter 12 _cos60     = -1.390000e+00 : u^60 coefficient for opposite-spin correlation
    Parameter 13 _cos61     =  9.142000e+00 : u^61 coefficient for opposite-spin correlation
    Parameter 14 _alpha     =  1.000000e+00 : fraction of HF exchange
    Parameter 15 _beta      = -8.500000e-01 : fraction of short-range exchange
    Parameter 16 _omega     =  3.000000e-01 : range-separation constant
 Long-range corrected/Screened/Range-Separated Hybrid DFT is turned on
   Amount of maximum screened exact exchange              ....  0.850000
   Range separation parameter mu (erf(mu*r12)/r12)        ....  0.300000
 RI-approximation to the Coulomb term is turned on
   Number of AuxJ basis functions       .... 191
   RIJ-COSX (HFX calculated with COS-X)).... on


General Settings:
 Integral files         IntName         .... orca
 Hartree-Fock type      HFTyp           .... UHF
 Total Charge           Charge          ....    0
 Multiplicity           Mult            ....    3
 Number of Electrons    NEL             ....   24
 Basis Dimension        Dim             ....  182
 Nuclear Repulsion      ENuc            ....     69.9639246134 Eh

Convergence Acceleration:
 AO-DIIS                CNVDIIS         .... on
   Start iteration      DIISMaxIt       ....    12
   Startup error        DIISStart       ....  0.200000
   # of expansion vecs  DIISMaxEq       ....     5
   Bias factor          DIISBfac        ....   1.050
   Max. coefficient     DIISMaxC        ....  10.000
 MO-DIIS                CNVKDIIS        .... off
 Trust-Rad. Augm. Hess. CNVTRAH         .... auto
   Auto Start mean grad. ratio tolernc. ....  1.125000
   Auto Start start iteration           ....    50
   Auto Start num. interpolation iter.  ....    10
   Max. Number of Micro iterations      ....    24
   Max. Number of Macro iterations      .... Maxiter - #DIIS iter
   Number of Davidson start vectors     ....     2
   Converg. threshold    (grad. norm)   ....   1.000e-05
   Grad. Scal. Fac. for Micro threshold ....   0.100
   Minimum threshold for Micro iter.    ....   1.000e-02
   NR start threshold (gradient norm)   ....   1.000e-04
   Initial trust radius                 ....   0.400
   Minimum AH scaling param. (alpha)    ....   1.000
   Maximum AH scaling param. (alpha)    .... 1000.000
   Quad. conv. algorithm                .... NR
   White noise on init. David. guess    .... on
   Maximum white noise                  ....   0.010
   Pseudo random numbers                .... off
   Inactive MOs                         .... canonical
   Orbital update algorithm             .... Taylor
   Preconditioner                       .... Diag
   Full preconditioner red. dimension   ....   250
 SOSCF                  CNVSOSCF        .... on
   Start iteration      SOSCFMaxIt      ....   150
   Startup grad/error   SOSCFStart      ....  0.003300
   Hessian update       SOSCFHessUp     .... L-BFGS
 Level Shifting         CNVShift        .... on
   Level shift para.    LevelShift      ....    0.2500
   Turn off err/grad.   ShiftErr        ....    0.0010
 Zerner damping         CNVZerner       .... off
 Static damping         CNVDamp         .... on
   Fraction old density DampFac         ....    0.7000
   Max. Damping (<1)    DampMax         ....    0.9800
   Min. Damping (>=0)   DampMin         ....    0.0000
   Turn off err/grad.   DampErr         ....    0.1000

SCF Procedure:
 Maximum # iterations   MaxIter         ....   125
 SCF integral mode      SCFMode         .... Direct
   Integral package                     .... SHARK and LIBINT hybrid scheme
 Reset frequency        DirectResetFreq ....    20
 Integral Threshold     Thresh          ....  2.500e-11 Eh
 Primitive CutOff       TCut            ....  2.500e-12 Eh

Convergence Tolerance:
 Convergence Check Mode ConvCheckMode   .... Total+1el-Energy
 Convergence forced     ConvForced      .... 1
 Energy Change          TolE            ....  1.000e-08 Eh
 1-El. energy change                    ....  1.000e-05 Eh
 Orbital Gradient       TolG            ....  1.000e-05
 Orbital Rotation angle TolX            ....  1.000e-05
 DIIS Error             TolErr          ....  5.000e-07

------------------------------
INITIAL GUESS: MODEL POTENTIAL
------------------------------
Loading Hartree-Fock densities                     ... done
Calculating cut-offs                               ... done
Initializing the effective Hamiltonian             ... done
Setting up the integral package (SHARK)            ... done
Starting the Coulomb interaction                   ... done (   0.0 sec)
Making the grid                                    ... done (   0.0 sec)
Mapping shells                                     ... done
Starting the XC term evaluation                    ... done (   0.0 sec)
  promolecular density results
     # of electrons  =     23.998695746
     EX              =    -19.485000672
     EC              =     -0.769541418
     EX+EC           =    -20.254542090
Transforming the Hamiltonian                       ... done (   0.0 sec)
Diagonalizing the Hamiltonian                      ... done (   0.0 sec)
Back transforming the eigenvectors                 ... done (   0.0 sec)
Now organizing SCF variables                       ... done
                      ------------------
                      INITIAL GUESS DONE (   0.1 sec)
                      ------------------
             **** ENERGY FILE WAS UPDATED (orca.en.tmp) ****
Finished Guess after   0.7 sec
Maximum memory used throughout the entire GUESS-calculation: 9.6 MB
[1741042800.236358] [ohm:284412:0]        ib_iface.c:1059 UCX  ERROR ibv_create_cq(cqe=256) failed: Connection timed out
[1741042800.236408] [ohm:284407:0]        ib_iface.c:1059 UCX  ERROR ibv_create_cq(cqe=256) failed: Connection timed out
[1741042800.236491] [ohm:284405:0]        ib_iface.c:1059 UCX  ERROR ibv_create_cq(cqe=256) failed: Connection timed out
[1741042800.236776] [ohm:284419:0]        ib_iface.c:1059 UCX  ERROR ibv_create_cq(cqe=256) failed: Connection timed out
[1741042800.236795] [ohm:284416:0]        ib_iface.c:1059 UCX  ERROR ibv_create_cq(cqe=256) failed: Connection timed out
[1741042800.236798] [ohm:284410:0]        ib_iface.c:1059 UCX  ERROR ibv_create_cq(cqe=256) failed: Connection timed out
[1741042800.236797] [ohm:284414:0]        ib_iface.c:1059 UCX  ERROR ibv_create_cq(cqe=256) failed: Connection timed out
[1741042800.237200] [ohm:284409:0]        ib_iface.c:1059 UCX  ERROR ibv_create_cq(cqe=256) failed: Connection timed out
[1741042800.261718] [ohm:284424:0]        ib_iface.c:1059 UCX  ERROR ibv_create_cq(cqe=256) failed: Connection timed out
[1741042800.261734] [ohm:284420:0]        ib_iface.c:1059 UCX  ERROR ibv_create_cq(cqe=256) failed: Connection timed out
[1741042800.263026] [ohm:284423:0]        ib_iface.c:1059 UCX  ERROR ibv_create_cq(cqe=256) failed: Connection timed out
[1741042800.264549] [ohm:284427:0]        ib_iface.c:1059 UCX  ERROR ibv_create_cq(cqe=256) failed: Connection timed out
[1741042800.276902] [ohm:284434:0]        ib_iface.c:1059 UCX  ERROR ibv_create_cq(cqe=256) failed: Connection timed out
[1741042800.284814] [ohm:284429:0]        ib_iface.c:1059 UCX  ERROR ibv_create_cq(cqe=256) failed: Connection timed out
[1741042800.286746] [ohm:284430:0]        ib_iface.c:1059 UCX  ERROR ibv_create_cq(cqe=256) failed: Connection timed out
[1741042800.288616] [ohm:284445:0]        ib_iface.c:1059 UCX  ERROR ibv_create_cq(cqe=256) failed: Connection timed out
[1741042800.291765] [ohm:284411:0]        ib_iface.c:1059 UCX  ERROR ibv_create_cq(cqe=256) failed: Connection timed out
[1741042800.291981] [ohm:284422:0]        ib_iface.c:1059 UCX  ERROR ibv_create_cq(cqe=256) failed: Connection timed out
[1741042800.292032] [ohm:284426:0]        ib_iface.c:1059 UCX  ERROR ibv_create_cq(cqe=256) failed: Connection timed out
[1741042800.292602] [ohm:284406:0]        ib_iface.c:1059 UCX  ERROR ibv_create_cq(cqe=256) failed: Connection timed out
[1741042800.293075] [ohm:284417:0]        ib_iface.c:1059 UCX  ERROR ibv_create_cq(cqe=256) failed: Connection timed out
[1741042800.293067] [ohm:284418:0]        ib_iface.c:1059 UCX  ERROR ibv_create_cq(cqe=256) failed: Connection timed out
[1741042800.293209] [ohm:284415:0]        ib_iface.c:1059 UCX  ERROR ibv_create_cq(cqe=256) failed: Connection timed out
[1741042800.293454] [ohm:284408:0]        ib_iface.c:1059 UCX  ERROR ibv_create_cq(cqe=256) failed: Connection timed out
[1741042800.293347] [ohm:284413:0]        ib_iface.c:1059 UCX  ERROR ibv_create_cq(cqe=256) failed: Connection timed out
[1741042800.293256] [ohm:284425:0]        ib_iface.c:1059 UCX  ERROR ibv_create_cq(cqe=256) failed: Connection timed out
[1741042800.293444] [ohm:284431:0]        ib_iface.c:1059 UCX  ERROR ibv_create_cq(cqe=256) failed: Connection timed out
[1741042800.293585] [ohm:284421:0]        ib_iface.c:1059 UCX  ERROR ibv_create_cq(cqe=256) failed: Connection timed out
[1741042800.293532] [ohm:284404:0]        ib_iface.c:1059 UCX  ERROR ibv_create_cq(cqe=256) failed: Connection timed out
[1741042800.293796] [ohm:284442:0]        ib_iface.c:1059 UCX  ERROR ibv_create_cq(cqe=256) failed: Connection timed out
[1741042800.293946] [ohm:284428:0]        ib_iface.c:1059 UCX  ERROR ibv_create_cq(cqe=256) failed: Connection timed out
[1741042800.294229] [ohm:284454:0]        ib_iface.c:1059 UCX  ERROR ibv_create_cq(cqe=256) failed: Connection timed out


           ************************************************************
           *        Program running with 32 parallel MPI-processes    *
           *              working on a common directory               *
           ************************************************************

-------------------------------------------------------------------------------------------
                                      ORCA LEAN-SCF
                              memory conserving SCF solver
-------------------------------------------------------------------------------------------

----------------------------------------D-I-I-S--------------------------------------------
Iteration    Energy (Eh)           Delta-E    RMSDP     MaxDP     DIISErr   Damp  Time(sec)
-------------------------------------------------------------------------------------------
               ***  Starting incremental Fock matrix formation  ***
    1    -153.6966421675359129     0.00e+00  8.89e-04  2.50e-02  8.29e-02  0.700   0.3
    2    -153.7248336274295752    -2.82e-02  8.08e-04  2.10e-02  5.22e-02  0.700   0.3
                               ***Turning on AO-DIIS***
    3    -153.7407934714213411    -1.60e-02  6.60e-04  1.73e-02  3.40e-02  0.700   0.2
    4    -153.7508282963681836    -1.00e-02  1.66e-03  4.43e-02  2.80e-02  0.000   0.2
    5    -153.7747245564449372    -2.39e-02  2.05e-04  9.47e-03  1.07e-02  0.000   0.2
    6    -153.7755464963186682    -8.22e-04  1.47e-04  6.74e-03  6.40e-03  0.000   0.2
    7    -153.7760169712112770    -4.70e-04  8.60e-05  3.35e-03  4.61e-03  0.000   0.2
                              *** Initializing SOSCF ***
---------------------------------------S-O-S-C-F--------------------------------------
Iteration    Energy (Eh)           Delta-E    RMSDP     MaxDP     MaxGrad    Time(sec)
--------------------------------------------------------------------------------------
    8    -153.7762104248839137    -1.93e-04  5.58e-05  1.89e-03  1.85e-03     0.3
               *** Restarting incremental Fock matrix formation ***
    9    -153.7762816953513720    -7.13e-05  2.80e-05  1.13e-03  1.52e-03     0.3
   10    -153.7762986246859782    -1.69e-05  4.33e-05  1.47e-03  8.66e-04     0.3
   11    -153.7763063852445384    -7.76e-06  1.27e-05  3.65e-04  2.69e-04     0.2
   12    -153.7763081146503055    -1.73e-06  3.13e-06  1.15e-04  1.01e-04     0.2
   13    -153.7763081978586115    -8.32e-08  1.38e-06  5.52e-05  2.72e-05     0.2
   14    -153.7763082195910442    -2.17e-08  7.97e-07  2.81e-05  2.64e-05     0.2
   15    -153.7763082282650089    -8.67e-09  1.38e-06  6.32e-05  2.53e-05     0.2
                 **** Energy Check signals convergence ****

               *****************************************************
               *                     SUCCESS                       *
               *           SCF CONVERGED AFTER  15 CYCLES          *
               *****************************************************

Recomputing exchange energy using gridx3       ... done (    0.256 sec)
Old exchange energy                            :     -6.205162682 Eh
New exchange energy                            :     -6.205159004 Eh
Exchange energy change after final integration :      0.000003679 Eh
Total energy after final integration           :   -153.776304549 Eh
             **** ENERGY FILE WAS UPDATED (orca.en.tmp) ****

----------------
TOTAL SCF ENERGY
----------------

Total Energy       :       -153.77630454934365 Eh           -4184.46598 eV

Components:
Nuclear Repulsion  :         69.96392461342681 Eh            1903.81518 eV
Electronic Energy  :       -223.74023284169181 Eh           -6088.28126 eV
One Electron Energy:       -346.42730962554333 Eh           -9426.76634 eV
Two Electron Energy:        122.68707678385152 Eh            3338.48508 eV

Virial components:
Potential Energy   :       -307.26763800620989 Eh           -8361.17750 eV
Kinetic Energy     :        153.49133345686624 Eh            4176.71152 eV
Virial Ratio       :          2.00185659402430

DFT components:
N(Alpha)           :       13.000000881194 electrons
N(Beta)            :       10.999993176663 electrons
N(Total)           :       23.999994057857 electrons
E(XC)              :      -14.730986975966 Eh       

---------------
SCF CONVERGENCE
---------------

  Last Energy change         ...    8.6740e-09  Tolerance :   1.0000e-08
  Last MAX-Density change    ...    6.3230e-05  Tolerance :   1.0000e-07
  Last RMS-Density change    ...    1.3782e-06  Tolerance :   5.0000e-09
  Last DIIS Error            ...    1.8521e-03  Tolerance :   5.0000e-07
  Last Orbital Gradient      ...    2.5285e-05  Tolerance :   1.0000e-05
  Last Orbital Rotation      ...    2.9917e-04  Tolerance :   1.0000e-05


----------------------
UHF SPIN CONTAMINATION
----------------------

Warning: in a DFT calculation there is little theoretical justification to 
         calculate <S**2> as in Hartree-Fock theory. We will do it anyways
         but you should keep in mind that the values have only limited relevance

Expectation value of <S**2>     :     2.008145
Ideal value S*(S+1) for S=1.0   :     2.000000
Deviation                       :     0.008145

----------------
ORBITAL ENERGIES
----------------
                 SPIN UP ORBITALS
  NO   OCC          E(Eh)            E(eV) 
   0   1.0000     -19.393611      -527.7270 
   1   1.0000     -10.406097      -283.1643 
   2   1.0000     -10.353449      -281.7317 
   3   1.0000      -1.184986       -32.2451 
   4   1.0000      -0.872594       -23.7445 
   5   1.0000      -0.742100       -20.1936 
   6   1.0000      -0.632701       -17.2167 
   7   1.0000      -0.589450       -16.0398 
   8   1.0000      -0.549141       -14.9429 
   9   1.0000      -0.519132       -14.1263 
  10   1.0000      -0.439457       -11.9582 
  11   1.0000      -0.427963       -11.6455 
  12   1.0000      -0.311638        -8.4801 
  13   0.0000       0.041406         1.1267 
  14   0.0000       0.063214         1.7201 
  15   0.0000       0.074950         2.0395 
  16   0.0000       0.087283         2.3751 
  17   0.0000       0.117104         3.1866 
  18   0.0000       0.128354         3.4927 
  19   0.0000       0.133026         3.6198 
  20   0.0000       0.143323         3.9000 
  21   0.0000       0.166417         4.5284 
  22   0.0000       0.190612         5.1868 
  23   0.0000       0.206885         5.6296 

                 SPIN DOWN ORBITALS
  NO   OCC          E(Eh)            E(eV) 
   0   1.0000     -19.367286      -527.0106 
   1   1.0000     -10.407233      -283.1952 
   2   1.0000     -10.340638      -281.3831 
   3   1.0000      -1.127700       -30.6863 
   4   1.0000      -0.838314       -22.8117 
   5   1.0000      -0.719373       -19.5751 
   6   1.0000      -0.595691       -16.2096 
   7   1.0000      -0.557134       -15.1604 
   8   1.0000      -0.525867       -14.3096 
   9   1.0000      -0.483881       -13.1671 
  10   1.0000      -0.386343       -10.5129 
  11   0.0000      -0.059806        -1.6274 
  12   0.0000       0.008732         0.2376 
  13   0.0000       0.040347         1.0979 
  14   0.0000       0.064107         1.7444 
  15   0.0000       0.074659         2.0316 
  16   0.0000       0.091975         2.5028 
  17   0.0000       0.116749         3.1769 
  18   0.0000       0.133015         3.6195 
  19   0.0000       0.134261         3.6534 
  20   0.0000       0.149274         4.0619 
  21   0.0000       0.172996         4.7075 
*Only the first 10 virtual orbitals were printed.

                    ********************************
                    * MULLIKEN POPULATION ANALYSIS *
                    ********************************

--------------------------------------------
MULLIKEN ATOMIC CHARGES AND SPIN POPULATIONS
--------------------------------------------
   0 O :   -0.308157    0.977972
   1 C :    0.045448   -0.026794
   2 C :   -0.613648    0.856740
   3 H :    0.192765    0.068602
   4 H :    0.196389    0.065920
   5 H :    0.245691    0.029351
   6 H :    0.241511    0.028209
Sum of atomic charges         :    0.0000000
Sum of atomic spin populations:    2.0000000

-----------------------------------------------------
MULLIKEN REDUCED ORBITAL CHARGES AND SPIN POPULATIONS
-----------------------------------------------------
CHARGE
  0 O s       :     3.998415  s :     3.998415
      pz      :     1.069065  p :     4.290399
      px      :     1.879513
      py      :     1.341821
      dz2     :     0.002888  d :     0.018040
      dxz     :    -0.000811
      dyz     :     0.006429
      dx2y2   :     0.006234
      dxy     :     0.003300
      f0      :     0.000133  f :     0.001303
      f+1     :     0.000034
      f-1     :     0.000144
      f+2     :     0.000185
      f-2     :     0.000038
      f+3     :     0.000357
      f-3     :     0.000411

  1 C s       :     3.170666  s :     3.170666
      pz      :     1.131074  p :     2.629974
      px      :     0.881060
      py      :     0.617841
      dz2     :     0.007583  d :     0.142813
      dxz     :     0.026246
      dyz     :     0.031019
      dx2y2   :     0.031270
      dxy     :     0.046695
      f0      :     0.001004  f :     0.011099
      f+1     :     0.000755
      f-1     :     0.000840
      f+2     :     0.001436
      f-2     :     0.000324
      f+3     :     0.004181
      f-3     :     0.002559

  2 C s       :     3.564698  s :     3.564698
      pz      :     1.152157  p :     3.029652
      px      :     0.938557
      py      :     0.938938
      dz2     :     0.011751  d :     0.015267
      dxz     :    -0.007884
      dyz     :    -0.001205
      dx2y2   :     0.006570
      dxy     :     0.006035
      f0      :     0.000559  f :     0.004030
      f+1     :     0.000565
      f-1     :     0.000116
      f+2     :     0.000598
      f-2     :     0.000228
      f+3     :     0.001261
      f-3     :     0.000704

  3 H s       :     0.765275  s :     0.765275
      pz      :     0.018669  p :     0.039316
      px      :     0.008464
      py      :     0.012184
      dz2     :     0.000784  d :     0.002644
      dxz     :     0.000521
      dyz     :     0.000603
      dx2y2   :     0.000387
      dxy     :     0.000349

  4 H s       :     0.761313  s :     0.761313
      pz      :     0.018805  p :     0.039638
      px      :     0.008386
      py      :     0.012447
      dz2     :     0.000787  d :     0.002660
      dxz     :     0.000498
      dyz     :     0.000587
      dx2y2   :     0.000407
      dxy     :     0.000381

  5 H s       :     0.698913  s :     0.698913
      pz      :     0.014005  p :     0.053081
      px      :     0.014428
      py      :     0.024649
      dz2     :     0.000646  d :     0.002314
      dxz     :     0.000511
      dyz     :     0.000663
      dx2y2   :     0.000231
      dxy     :     0.000264

  6 H s       :     0.703750  s :     0.703750
      pz      :     0.013880  p :     0.052438
      px      :     0.013897
      py      :     0.024661
      dz2     :     0.000641  d :     0.002300
      dxz     :     0.000524
      dyz     :     0.000673
      dx2y2   :     0.000215
      dxy     :     0.000247


SPIN
  0 O s       :     0.007412  s :     0.007412
      pz      :     0.867683  p :     0.974373
      px      :     0.036395
      py      :     0.070296
      dz2     :     0.000916  d :    -0.003652
      dxz     :    -0.000271
      dyz     :    -0.004822
      dx2y2   :    -0.000024
      dxy     :     0.000549
      f0      :    -0.000043  f :    -0.000161
      f+1     :     0.000007
      f-1     :    -0.000134
      f+2     :    -0.000005
      f-2     :    -0.000003
      f+3     :     0.000004
      f-3     :     0.000012

  1 C s       :    -0.000536  s :    -0.000536
      pz      :     0.002747  p :    -0.085155
      px      :    -0.017828
      py      :    -0.070075
      dz2     :     0.004265  d :     0.055182
      dxz     :     0.009878
      dyz     :     0.033203
      dx2y2   :     0.014962
      dxy     :    -0.007125
      f0      :     0.000605  f :     0.003715
      f+1     :     0.000048
      f-1     :    -0.000001
      f+2     :     0.001106
      f-2     :     0.000063
      f+3     :     0.001676
      f-3     :     0.000217

  2 C s       :    -0.007869  s :    -0.007869
      pz      :     0.011569  p :     0.877313
      px      :     0.042875
      py      :     0.822869
      dz2     :    -0.000513  d :    -0.011796
      dxz     :    -0.008370
      dyz     :     0.000760
      dx2y2   :    -0.003604
      dxy     :    -0.000068
      f0      :    -0.000133  f :    -0.000907
      f+1     :    -0.000212
      f-1     :     0.000062
      f+2     :    -0.000174
      f-2     :    -0.000013
      f+3     :    -0.000367
      f-3     :    -0.000070

  3 H s       :     0.059009  s :     0.059009
      pz      :     0.004167  p :     0.009571
      px      :     0.002262
      py      :     0.003143
      dz2     :    -0.000010  d :     0.000022
      dxz     :     0.000037
      dyz     :    -0.000016
      dx2y2   :     0.000019
      dxy     :    -0.000007

  4 H s       :     0.056823  s :     0.056823
      pz      :     0.003796  p :     0.009076
      px      :     0.002291
      py      :     0.002989
      dz2     :    -0.000013  d :     0.000021
      dxz     :     0.000037
      dyz     :    -0.000016
      dx2y2   :     0.000021
      dxy     :    -0.000009

  5 H s       :     0.001575  s :     0.001575
      pz      :     0.000146  p :     0.026725
      px      :     0.003547
      py      :     0.023033
      dz2     :     0.000108  d :     0.001050
      dxz     :     0.000051
      dyz     :     0.000627
      dx2y2   :     0.000027
      dxy     :     0.000236

  6 H s       :     0.000260  s :     0.000260
      pz      :     0.000295  p :     0.026914
      px      :     0.003442
      py      :     0.023178
      dz2     :     0.000098  d :     0.001035
      dxz     :     0.000053
      dyz     :     0.000639
      dx2y2   :     0.000024
      dxy     :     0.000221



                     *******************************
                     * LOEWDIN POPULATION ANALYSIS *
                     *******************************

-------------------------------------------
LOEWDIN ATOMIC CHARGES AND SPIN POPULATIONS
-------------------------------------------
   0 O :    0.073266    0.929316
   1 C :   -0.254416    0.185925
   2 C :    0.226832    0.638024
   3 H :    0.033843    0.045981
   4 H :    0.031074    0.044988
   5 H :   -0.057722    0.078269
   6 H :   -0.052878    0.077497

----------------------------------------------------
LOEWDIN REDUCED ORBITAL CHARGES AND SPIN POPULATIONS
----------------------------------------------------
CHARGE
  0 O s       :     3.462757  s :     3.462757
      pz      :     1.003887  p :     4.173777
      px      :     1.706477
      py      :     1.463414
      dz2     :     0.025515  d :     0.285785
      dxz     :     0.011675
      dyz     :     0.079382
      dx2y2   :     0.065502
      dxy     :     0.103711
      f0      :     0.000555  f :     0.004415
      f+1     :     0.000152
      f-1     :     0.000485
      f+2     :     0.000700
      f-2     :     0.000131
      f+3     :     0.001365
      f-3     :     0.001028

  1 C s       :     2.647986  s :     2.647986
      pz      :     0.899383  p :     2.600071
      px      :     0.924742
      py      :     0.775945
      dz2     :     0.101929  d :     0.913921
      dxz     :     0.188835
      dyz     :     0.097404
      dx2y2   :     0.258995
      dxy     :     0.266758
      f0      :     0.006926  f :     0.092439
      f+1     :     0.007248
      f-1     :     0.010669
      f+2     :     0.011486
      f-2     :     0.004883
      f+3     :     0.029217
      f-3     :     0.022011

  2 C s       :     2.722149  s :     2.722149
      pz      :     0.964615  p :     2.599309
      px      :     0.929454
      py      :     0.705240
      dz2     :     0.073364  d :     0.425172
      dxz     :     0.174413
      dyz     :     0.011952
      dx2y2   :     0.096988
      dxy     :     0.068454
      f0      :     0.003453  f :     0.026538
      f+1     :     0.005441
      f-1     :     0.001441
      f+2     :     0.003945
      f-2     :     0.001610
      f+3     :     0.005833
      f-3     :     0.004815

  3 H s       :     0.678642  s :     0.678642
      pz      :     0.112191  p :     0.257265
      px      :     0.084736
      py      :     0.060337
      dz2     :     0.009415  d :     0.030250
      dxz     :     0.008279
      dyz     :     0.005732
      dx2y2   :     0.003568
      dxy     :     0.003256

  4 H s       :     0.680175  s :     0.680175
      pz      :     0.111096  p :     0.258159
      px      :     0.085612
      py      :     0.061452
      dz2     :     0.009364  d :     0.030591
      dxz     :     0.008262
      dyz     :     0.005567
      dx2y2   :     0.003819
      dxy     :     0.003579

  5 H s       :     0.728108  s :     0.728108
      pz      :     0.123168  p :     0.297457
      px      :     0.085623
      py      :     0.088667
      dz2     :     0.009860  d :     0.032157
      dxz     :     0.009325
      dyz     :     0.007531
      dx2y2   :     0.002657
      dxy     :     0.002784

  6 H s       :     0.726685  s :     0.726685
      pz      :     0.123201  p :     0.294613
      px      :     0.083831
      py      :     0.087582
      dz2     :     0.009798  d :     0.031580
      dxz     :     0.009240
      dyz     :     0.007546
      dx2y2   :     0.002438
      dxy     :     0.002558


SPIN
  0 O s       :     0.021680  s :     0.021680
      pz      :     0.775125  p :     0.885643
      px      :     0.052567
      py      :     0.057952
      dz2     :     0.003013  d :     0.021903
      dxz     :     0.000967
      dyz     :     0.010425
      dx2y2   :    -0.000172
      dxy     :     0.007671
      f0      :     0.000106  f :     0.000090
      f+1     :     0.000053
      f-1     :    -0.000117
      f+2     :     0.000067
      f-2     :     0.000017
      f+3     :     0.000009
      f-3     :    -0.000045

  1 C s       :    -0.004182  s :    -0.004182
      pz      :     0.009280  p :    -0.006159
      px      :    -0.008849
      py      :    -0.006590
      dz2     :     0.004024  d :     0.168208
      dxz     :     0.023963
      dyz     :     0.086842
      dx2y2   :     0.040089
      dxy     :     0.013290
      f0      :     0.004337  f :     0.028058
      f+1     :     0.000303
      f-1     :     0.000355
      f+2     :     0.008817
      f-2     :     0.000310
      f+3     :     0.011680
      f-3     :     0.002256

  2 C s       :     0.015818  s :     0.015818
      pz      :     0.011908  p :     0.620191
      px      :     0.020622
      py      :     0.587660
      dz2     :    -0.001687  d :     0.002726
      dxz     :    -0.002481
      dyz     :     0.002611
      dx2y2   :     0.005117
      dxy     :    -0.000834
      f0      :    -0.000178  f :    -0.000710
      f+1     :    -0.000409
      f-1     :     0.000199
      f+2     :    -0.000012
      f-2     :    -0.000077
      f+3     :    -0.000019
      f-3     :    -0.000214

  3 H s       :     0.038704  s :     0.038704
      pz      :     0.001422  p :     0.007780
      px      :    -0.000308
      py      :     0.006667
      dz2     :    -0.000143  d :    -0.000503
      dxz     :    -0.000014
      dyz     :    -0.000227
      dx2y2   :     0.000047
      dxy     :    -0.000166

  4 H s       :     0.037809  s :     0.037809
      pz      :     0.001291  p :     0.007669
      px      :    -0.000276
      py      :     0.006654
      dz2     :    -0.000148  d :    -0.000490
      dxz     :    -0.000004
      dyz     :    -0.000218
      dx2y2   :     0.000059
      dxy     :    -0.000179

  5 H s       :    -0.010824  s :    -0.010824
      pz      :     0.003372  p :     0.078551
      px      :     0.002864
      py      :     0.072316
      dz2     :     0.000587  d :     0.010541
      dxz     :     0.000472
      dyz     :     0.006914
      dx2y2   :     0.000080
      dxy     :     0.002489

  6 H s       :    -0.011112  s :    -0.011112
      pz      :     0.003489  p :     0.078260
      px      :     0.002772
      py      :     0.072000
      dz2     :     0.000535  d :     0.010349
      dxz     :     0.000474
      dyz     :     0.006975
      dx2y2   :     0.000066
      dxy     :     0.002299



                      *****************************
                      * MAYER POPULATION ANALYSIS *
                      *****************************

  NA   - Mulliken gross atomic population
  ZA   - Total nuclear charge
  QA   - Mulliken gross atomic charge
  VA   - Mayer's total valence
  BVA  - Mayer's bonded valence
  FA   - Mayer's free valence

  ATOM       NA         ZA         QA         VA         BVA        FA
  0 O      8.3082     8.0000    -0.3082     1.8502     1.0706     0.7797
  1 C      5.9546     6.0000     0.0454     3.4482     3.4355     0.0127
  2 C      6.6136     6.0000    -0.6136     3.4710     2.7404     0.7306
  3 H      0.8072     1.0000     0.1928     1.0376     1.0347     0.0029
  4 H      0.8036     1.0000     0.1964     1.0392     1.0364     0.0027
  5 H      0.7543     1.0000     0.2457     0.9890     0.9879     0.0011
  6 H      0.7585     1.0000     0.2415     0.9901     0.9890     0.0011

  Mayer bond orders larger than 0.100000
B(  0-O ,  1-C ) :   0.8482 B(  0-O ,  2-C ) :   0.1200 B(  1-C ,  2-C ) :   0.6895 
B(  1-C ,  3-H ) :   0.9799 B(  1-C ,  4-H ) :   0.9800 B(  2-C ,  5-H ) :   0.9882 
B(  2-C ,  6-H ) :   0.9912 

-------
TIMINGS
-------

Total SCF time: 0 days 0 hours 0 min 4 sec 

Total time                  ....       4.645 sec
Sum of individual times     ....       4.638 sec  ( 99.8%)

SCF preparation             ....       0.593 sec  ( 12.8%)
Fock matrix formation       ....       3.330 sec  ( 71.7%)
  Startup                   ....       0.036 sec  (  1.1% of F)
  Split-RI-J                ....       0.197 sec  (  5.9% of F)
  Chain of spheres X        ....       2.087 sec  ( 62.7% of F)
  XC integration            ....       0.887 sec  ( 26.6% of F)
    XC Preparation          ....       0.000 sec  (  0.0% of XC)
    Basis function eval.    ....       0.062 sec  (  7.0% of XC)
    Density eval.           ....       0.242 sec  ( 27.3% of XC)
    XC-Functional eval.     ....       0.020 sec  (  2.3% of XC)
    XC-Potential eval.      ....       0.410 sec  ( 46.3% of XC)
Diagonalization             ....       0.000 sec  (  0.0%)
Density matrix formation    ....       0.084 sec  (  1.8%)
Total Energy calculation    ....       0.060 sec  (  1.3%)
Population analysis         ....       0.026 sec  (  0.6%)
Orbital Transformation      ....       0.053 sec  (  1.1%)
Orbital Orthonormalization  ....       0.000 sec  (  0.0%)
DIIS solution               ....       0.362 sec  (  7.8%)
SOSCF solution              ....       0.127 sec  (  2.7%)
Finished LeanSCF after   4.7 sec

Maximum memory used throughout the entire LEANSCF-calculation: 14.7 MB
[1741042805.257587] [ohm:284614:0]        ib_iface.c:1059 UCX  ERROR ibv_create_cq(cqe=256) failed: Connection timed out
[1741042805.262876] [ohm:284610:0]        ib_iface.c:1059 UCX  ERROR ibv_create_cq(cqe=256) failed: Connection timed out
[1741042805.264043] [ohm:284600:0]        ib_iface.c:1059 UCX  ERROR ibv_create_cq(cqe=256) failed: Connection timed out
[1741042805.266659] [ohm:284631:0]        ib_iface.c:1059 UCX  ERROR ibv_create_cq(cqe=256) failed: Connection timed out
[1741042805.270730] [ohm:284605:0]        ib_iface.c:1059 UCX  ERROR ibv_create_cq(cqe=256) failed: Connection timed out
[1741042805.293325] [ohm:284626:0]        ib_iface.c:1059 UCX  ERROR ibv_create_cq(cqe=256) failed: Connection timed out
[1741042805.293539] [ohm:284638:0]        ib_iface.c:1059 UCX  ERROR ibv_create_cq(cqe=256) failed: Connection timed out
[1741042805.299679] [ohm:284618:0]        ib_iface.c:1059 UCX  ERROR ibv_create_cq(cqe=256) failed: Connection timed out
[1741042805.307909] [ohm:284643:0]        ib_iface.c:1059 UCX  ERROR ibv_create_cq(cqe=256) failed: Connection timed out
[1741042805.310516] [ohm:284598:0]        ib_iface.c:1059 UCX  ERROR ibv_create_cq(cqe=256) failed: Connection timed out
[1741042805.311854] [ohm:284621:0]        ib_iface.c:1059 UCX  ERROR ibv_create_cq(cqe=256) failed: Connection timed out
[1741042805.313446] [ohm:284627:0]        ib_iface.c:1059 UCX  ERROR ibv_create_cq(cqe=256) failed: Connection timed out
[1741042805.313491] [ohm:284611:0]        ib_iface.c:1059 UCX  ERROR ibv_create_cq(cqe=256) failed: Connection timed out
[1741042805.315449] [ohm:284606:0]        ib_iface.c:1059 UCX  ERROR ibv_create_cq(cqe=256) failed: Connection timed out
[1741042805.317518] [ohm:284608:0]        ib_iface.c:1059 UCX  ERROR ibv_create_cq(cqe=256) failed: Connection timed out
[1741042805.317905] [ohm:284603:0]        ib_iface.c:1059 UCX  ERROR ibv_create_cq(cqe=256) failed: Connection timed out
[1741042805.317963] [ohm:284607:0]        ib_iface.c:1059 UCX  ERROR ibv_create_cq(cqe=256) failed: Connection timed out
[1741042805.317978] [ohm:284601:0]        ib_iface.c:1059 UCX  ERROR ibv_create_cq(cqe=256) failed: Connection timed out
[1741042805.318174] [ohm:284630:0]        ib_iface.c:1059 UCX  ERROR ibv_create_cq(cqe=256) failed: Connection timed out
[1741042805.318206] [ohm:284602:0]        ib_iface.c:1059 UCX  ERROR ibv_create_cq(cqe=256) failed: Connection timed out
[1741042805.318375] [ohm:284599:0]        ib_iface.c:1059 UCX  ERROR ibv_create_cq(cqe=256) failed: Connection timed out
[1741042805.319375] [ohm:284609:0]        ib_iface.c:1059 UCX  ERROR ibv_create_cq(cqe=256) failed: Connection timed out
[1741042805.320765] [ohm:284623:0]        ib_iface.c:1059 UCX  ERROR ibv_create_cq(cqe=256) failed: Connection timed out
[1741042805.320781] [ohm:284597:0]        ib_iface.c:1059 UCX  ERROR ibv_create_cq(cqe=256) failed: Connection timed out
[1741042805.321828] [ohm:284636:0]        ib_iface.c:1059 UCX  ERROR ibv_create_cq(cqe=256) failed: Connection timed out
[1741042805.321854] [ohm:284629:0]        ib_iface.c:1059 UCX  ERROR ibv_create_cq(cqe=256) failed: Connection timed out
[1741042805.321857] [ohm:284645:0]        ib_iface.c:1059 UCX  ERROR ibv_create_cq(cqe=256) failed: Connection timed out
[1741042805.322118] [ohm:284628:0]        ib_iface.c:1059 UCX  ERROR ibv_create_cq(cqe=256) failed: Connection timed out
[1741042805.322520] [ohm:284622:0]        ib_iface.c:1059 UCX  ERROR ibv_create_cq(cqe=256) failed: Connection timed out
[1741042805.322640] [ohm:284604:0]        ib_iface.c:1059 UCX  ERROR ibv_create_cq(cqe=256) failed: Connection timed out
[1741042805.322870] [ohm:284615:0]        ib_iface.c:1059 UCX  ERROR ibv_create_cq(cqe=256) failed: Connection timed out
[1741042805.322943] [ohm:284632:0]        ib_iface.c:1059 UCX  ERROR ibv_create_cq(cqe=256) failed: Connection timed out


           ************************************************************
           *        Program running with 32 parallel MPI-processes    *
           *              working on a common directory               *
           ************************************************************

------------------------------------------------------------------------------
                         ORCA PROPERTY INTEGRAL CALCULATIONS
------------------------------------------------------------------------------

GBWName                                   ... orca.gbw
Number of atoms                           ...      7
Number of basis functions                 ...    182
Max core memory                           ...   1024 MB

Dipole integrals                          ... YES
Quadrupole integrals                      ...  NO
Linear momentum integrals                 ... YES
Angular momentum integrals                ... YES
Higher moments length integrals           ...  NO
Higher moments velocity integrals         ...  NO
Kinetic energy integrals                  ...  NO
GIAO right hand sides                     ...  NO
GIAO dipole derivative integrals          ...  NO
SOC integrals                             ...  NO
EPR diamagnetic integrals (GIAO)          ...  NO
EPR gauge integrals                       ...  NO
Field gradient integrals                  ...  NO (   0 nuclei)
Spin-dipole/Fermi contact integrals       ...  NO (   0 nuclei)
Contact density integrals                 ...  NO (   0 nuclei)
Nucleus-orbit integrals                   ...  NO (   0 nuclei)
Geometric perturbations                   ...  NO (   7 nuclei)

Choice of electric origin   ... Center of mass
Position of electric origin ... (  0.2033,  0.0857, -0.0016) 
Choice of magnetic origin   ... GIAO
Position of magnetic origin ... (  0.0000,  0.0000,  0.0000) 

Calculating integrals                     ... Electric Dipole (Length)     done (  0.0 sec)
Calculating integrals                     ... Linear Momentum              done (  0.0 sec)
Calculating integrals                     ... Angular Momentum  (ElOri)    done (  0.0 sec)

Property integrals calculated in   0.0 sec

Maximum memory used throughout the entire PROPINT-calculation: 10.2 MB
[1741042806.200149] [ohm:284779:0]        ib_iface.c:1059 UCX  ERROR ibv_create_cq(cqe=256) failed: Connection timed out
[1741042806.200150] [ohm:284784:0]        ib_iface.c:1059 UCX  ERROR ibv_create_cq(cqe=256) failed: Connection timed out
[1741042806.200151] [ohm:284769:0]        ib_iface.c:1059 UCX  ERROR ibv_create_cq(cqe=256) failed: Connection timed out
[1741042806.200184] [ohm:284773:0]        ib_iface.c:1059 UCX  ERROR ibv_create_cq(cqe=256) failed: Connection timed out
[1741042806.200594] [ohm:284788:0]        ib_iface.c:1059 UCX  ERROR ibv_create_cq(cqe=256) failed: Connection timed out
[1741042806.203036] [ohm:284774:0]        ib_iface.c:1059 UCX  ERROR ibv_create_cq(cqe=256) failed: Connection timed out
[1741042806.203030] [ohm:284776:0]        ib_iface.c:1059 UCX  ERROR ibv_create_cq(cqe=256) failed: Connection timed out
[1741042806.209723] [ohm:284783:0]        ib_iface.c:1059 UCX  ERROR ibv_create_cq(cqe=256) failed: Connection timed out
[1741042806.212806] [ohm:284771:0]        ib_iface.c:1059 UCX  ERROR ibv_create_cq(cqe=256) failed: Connection timed out
[1741042806.236092] [ohm:284811:0]        ib_iface.c:1059 UCX  ERROR ibv_create_cq(cqe=256) failed: Connection timed out
[1741042806.237000] [ohm:284803:0]        ib_iface.c:1059 UCX  ERROR ibv_create_cq(cqe=256) failed: Connection timed out
[1741042806.237902] [ohm:284782:0]        ib_iface.c:1059 UCX  ERROR ibv_create_cq(cqe=256) failed: Connection timed out
[1741042806.240616] [ohm:284770:0]        ib_iface.c:1059 UCX  ERROR ibv_create_cq(cqe=256) failed: Connection timed out
[1741042806.242658] [ohm:284775:0]        ib_iface.c:1059 UCX  ERROR ibv_create_cq(cqe=256) failed: Connection timed out
[1741042806.242657] [ohm:284778:0]        ib_iface.c:1059 UCX  ERROR ibv_create_cq(cqe=256) failed: Connection timed out
[1741042806.242679] [ohm:284772:0]        ib_iface.c:1059 UCX  ERROR ibv_create_cq(cqe=256) failed: Connection timed out
[1741042806.243282] [ohm:284817:0]        ib_iface.c:1059 UCX  ERROR ibv_create_cq(cqe=256) failed: Connection timed out
[1741042806.243403] [ohm:284780:0]        ib_iface.c:1059 UCX  ERROR ibv_create_cq(cqe=256) failed: Connection timed out
[1741042806.243405] [ohm:284781:0]        ib_iface.c:1059 UCX  ERROR ibv_create_cq(cqe=256) failed: Connection timed out
[1741042806.243410] [ohm:284789:0]        ib_iface.c:1059 UCX  ERROR ibv_create_cq(cqe=256) failed: Connection timed out
[1741042806.243486] [ohm:284777:0]        ib_iface.c:1059 UCX  ERROR ibv_create_cq(cqe=256) failed: Connection timed out
[1741042806.243746] [ohm:284785:0]        ib_iface.c:1059 UCX  ERROR ibv_create_cq(cqe=256) failed: Connection timed out
[1741042806.243741] [ohm:284794:0]        ib_iface.c:1059 UCX  ERROR ibv_create_cq(cqe=256) failed: Connection timed out
[1741042806.244873] [ohm:284787:0]        ib_iface.c:1059 UCX  ERROR ibv_create_cq(cqe=256) failed: Connection timed out
[1741042806.247069] [ohm:284813:0]        ib_iface.c:1059 UCX  ERROR ibv_create_cq(cqe=256) failed: Connection timed out
[1741042806.247343] [ohm:284825:0]        ib_iface.c:1059 UCX  ERROR ibv_create_cq(cqe=256) failed: Connection timed out
[1741042806.247380] [ohm:284786:0]        ib_iface.c:1059 UCX  ERROR ibv_create_cq(cqe=256) failed: Connection timed out
[1741042806.247812] [ohm:284809:0]        ib_iface.c:1059 UCX  ERROR ibv_create_cq(cqe=256) failed: Connection timed out
[1741042806.248013] [ohm:284821:0]        ib_iface.c:1059 UCX  ERROR ibv_create_cq(cqe=256) failed: Connection timed out
[1741042806.248422] [ohm:284790:0]        ib_iface.c:1059 UCX  ERROR ibv_create_cq(cqe=256) failed: Connection timed out
[1741042806.248446] [ohm:284797:0]        ib_iface.c:1059 UCX  ERROR ibv_create_cq(cqe=256) failed: Connection timed out
[1741042806.249046] [ohm:284822:0]        ib_iface.c:1059 UCX  ERROR ibv_create_cq(cqe=256) failed: Connection timed out


           ************************************************************
           *        Program running with 32 parallel MPI-processes    *
           *              working on a common directory               *
           ************************************************************
------------------------------------------------------------------------------
                        ORCA TD-DFT/TDA CALCULATION
------------------------------------------------------------------------------

Input orbitals are from        ... orca.gbw
CI-vector output               ... orca.cis
Solver                         ... FN-2001
Tamm-Dancoff approximation     ... operative
CIS-Integral strategy          ... AO-integrals
Integral handling              ... AO integral Direct
Max. core memory used          ... 512 MB
Reference state                ... UHF
Follow IRoot                   ... off
Number of operators            ... 2
Orbital ranges used for CIS calculation:
 Operator 0:  Orbitals   3... 12  to  11...181

-------------------
XC-INTEGRATION GRID
-------------------

General Integration Accuracy     IntAcc      ... 3.467
Radial Grid Type                 RadialGrid  ... OptM3 with GC (2021)
Angular Grid (max. ang.)         AngularGrid ... 1 (Lebedev-50)
Angular grid pruning method      GridPruning ... 4 (adaptive)
Weight generation scheme         WeightScheme... mBecke (2022)
Basis function cutoff            BFCut       ... 1.0000e-11
Integration weight cutoff        WCut        ... 1.0000e-14
Partially contracted basis set               ... off
Rotationally invariant grid construction     ... off
Angular grids for H and He will be reduced by one unit
Diffuse basis detected: some atoms will have their outermost
                        angular grid increased by 1.

Total number of grid points                  ...     4742
Total number of batches                      ...       78
[...]
=> NOW LEAVING ORCA_CIS


-------------------------------------------------------------------------------
                          DFT DISPERSION CORRECTION                            
                                                                               
                              DFTD3 V3.1  Rev 1                                
                          USING Becke-Johnson damping                          
-------------------------------------------------------------------------------
The WB97M functional is recognized
Active option DFTDOPT                   ...         4   

molecular C6(AA) [au] = 394.087272 


            DFT-D V3
 parameters
 s6 scaling factor         :     1.0000 
 a1 scaling factor         :     0.5660 
 s8 scaling factor         :     0.3908 
 a2 scaling factor         :     3.1280 
 ad hoc parameters k1-k3   :    16.0000     1.3333    -4.0000 

 Edisp/kcal,au: -3.543518627388  -0.005646955777 
 E6   /kcal   :  -2.853798813 
 E8   /kcal   :  -0.689719814 
 % E8         :  19.464263829 

-------------------------   ----------------
Dispersion correction           -0.005646956
-------------------------   ----------------


-------------------------   --------------------
FINAL SINGLE POINT ENERGY      -153.778357872271
-------------------------   --------------------

[1741042811.895215] [ohm:284964:0]        ib_iface.c:1059 UCX  ERROR ibv_create_cq(cqe=256) failed: Connection timed out
[1741042811.895216] [ohm:284971:0]        ib_iface.c:1059 UCX  ERROR ibv_create_cq(cqe=256) failed: Connection timed out
[1741042811.895325] [ohm:284962:0]        ib_iface.c:1059 UCX  ERROR ibv_create_cq(cqe=256) failed: Connection timed out
[1741042811.926692] [ohm:284976:0]        ib_iface.c:1059 UCX  ERROR ibv_create_cq(cqe=256) failed: Connection timed out
[1741042811.930689] [ohm:284958:0]        ib_iface.c:1059 UCX  ERROR ibv_create_cq(cqe=256) failed: Connection timed out
[1741042811.931436] [ohm:284963:0]        ib_iface.c:1059 UCX  ERROR ibv_create_cq(cqe=256) failed: Connection timed out
[1741042811.932305] [ohm:284966:0]        ib_iface.c:1059 UCX  ERROR ibv_create_cq(cqe=256) failed: Connection timed out
[1741042811.933914] [ohm:284959:0]        ib_iface.c:1059 UCX  ERROR ibv_create_cq(cqe=256) failed: Connection timed out
[1741042811.934001] [ohm:284961:0]        ib_iface.c:1059 UCX  ERROR ibv_create_cq(cqe=256) failed: Connection timed out
[1741042811.934577] [ohm:284957:0]        ib_iface.c:1059 UCX  ERROR ibv_create_cq(cqe=256) failed: Connection timed out
[1741042811.935318] [ohm:284967:0]        ib_iface.c:1059 UCX  ERROR ibv_create_cq(cqe=256) failed: Connection timed out
[1741042811.939844] [ohm:284972:0]        ib_iface.c:1059 UCX  ERROR ibv_create_cq(cqe=256) failed: Connection timed out
[1741042811.942167] [ohm:284984:0]        ib_iface.c:1059 UCX  ERROR ibv_create_cq(cqe=256) failed: Connection timed out
[1741042811.942240] [ohm:284982:0]        ib_iface.c:1059 UCX  ERROR ibv_create_cq(cqe=256) failed: Connection timed out
[1741042811.944091] [ohm:284997:0]        ib_iface.c:1059 UCX  ERROR ibv_create_cq(cqe=256) failed: Connection timed out
[1741042811.947474] [ohm:284968:0]        ib_iface.c:1059 UCX  ERROR ibv_create_cq(cqe=256) failed: Connection timed out
[1741042811.948511] [ohm:284960:0]        ib_iface.c:1059 UCX  ERROR ibv_create_cq(cqe=256) failed: Connection timed out
[1741042811.953805] [ohm:284973:0]        ib_iface.c:1059 UCX  ERROR ibv_create_cq(cqe=256) failed: Connection timed out
[1741042811.954284] [ohm:284994:0]        ib_iface.c:1059 UCX  ERROR ibv_create_cq(cqe=256) failed: Connection timed out
[1741042811.954275] [ohm:284975:0]        ib_iface.c:1059 UCX  ERROR ibv_create_cq(cqe=256) failed: Connection timed out
[1741042811.954468] [ohm:285005:0]        ib_iface.c:1059 UCX  ERROR ibv_create_cq(cqe=256) failed: Connection timed out
[1741042811.956483] [ohm:284979:0]        ib_iface.c:1059 UCX  ERROR ibv_create_cq(cqe=256) failed: Connection timed out
[1741042811.957098] [ohm:284991:0]        ib_iface.c:1059 UCX  ERROR ibv_create_cq(cqe=256) failed: Connection timed out
[1741042811.957663] [ohm:284978:0]        ib_iface.c:1059 UCX  ERROR ibv_create_cq(cqe=256) failed: Connection timed out
[1741042811.957740] [ohm:284956:0]        ib_iface.c:1059 UCX  ERROR ibv_create_cq(cqe=256) failed: Connection timed out
[1741042811.957741] [ohm:284970:0]        ib_iface.c:1059 UCX  ERROR ibv_create_cq(cqe=256) failed: Connection timed out
[1741042811.958081] [ohm:284969:0]        ib_iface.c:1059 UCX  ERROR ibv_create_cq(cqe=256) failed: Connection timed out
[1741042811.958572] [ohm:285002:0]        ib_iface.c:1059 UCX  ERROR ibv_create_cq(cqe=256) failed: Connection timed out
[1741042811.958568] [ohm:285001:0]        ib_iface.c:1059 UCX  ERROR ibv_create_cq(cqe=256) failed: Connection timed out
[1741042811.958735] [ohm:284989:0]        ib_iface.c:1059 UCX  ERROR ibv_create_cq(cqe=256) failed: Connection timed out
[1741042811.958728] [ohm:284965:0]        ib_iface.c:1059 UCX  ERROR ibv_create_cq(cqe=256) failed: Connection timed out
[1741042811.958710] [ohm:284974:0]        ib_iface.c:1059 UCX  ERROR ibv_create_cq(cqe=256) failed: Connection timed out


           ************************************************************
           *        Program running with 32 parallel MPI-processes    *
           *              working on a common directory               *
           ************************************************************

------------------------------------------------------------------------------
                              ORCA PROPERTY CALCULATIONS
------------------------------------------------------------------------------

GBWName                                 ... orca.gbw
Number of atoms                         ...      7
Number of basis functions               ...    182
Max core memory                         ...   1024 MB

Electric properties:
Dipole moment                           ... YES
Quadrupole moment                       ...  NO
Static polarizability (Dipole/Dipole)   ...  NO
Static polarizability (Dipole/Quad.)    ...  NO
Static polarizability (Quad./Quad.)     ...  NO
Static polarizability (Velocity)        ...  NO

Atomic electric properties:
Dipole moment                           ...  NO
Quadrupole moment                       ...  NO
Static polarizability                   ...  NO

Choice of electric origin               ... Center of mass
Position of electric origin             ...     0.203270     0.085667    -0.001624

General magnetic properties:
Magnetizability                         ...  NO

EPR properties:
g-Tensor (aka g-matrix)                 ...  NO
Zero-Field splitting spin-orbit         ...  NO
Zero-field splitting spin-spin          ...  NO
Hyperfine couplings                     ...  NO (   0 nuclei)
Quadrupole couplings                    ...  NO (   0 nuclei)
Contact density                         ...  NO (   0 nuclei)

NMR properties:
Chemical shifts                         ...  NO (   0 nuclei)
Spin-rotation constants                 ...  NO (   0 nuclei)
Spin-spin couplings                     ...  NO (   0 nuclei,    0 pairs)

Choice of magnetic origin               ... GIAO
Position of magnetic origin             ...     0.000000     0.000000     0.000000

Properties with geometric perturbations:
SCF Hessian                             ...  NO
IR spectrum                             ...  NO
VCD spectrum                            ...  NO
X-ray spectroscopy properties:
SCF XES/XAS/RIXS spectra                ...  NO


-------------
DIPOLE MOMENT
-------------

Method             : SCF
Type of density    : Electron Density
Multiplicity       :   3
Irrep              :   0
Energy             :  -153.7763045493436493 Eh
Relativity type    : 
Basis              : AO
                                X                 Y                 Z
Electronic contribution:      0.758159708       1.999459411      -0.044824482
Nuclear contribution   :     -0.537838733      -2.536632727       0.055895981
                        -----------------------------------------
Total Dipole Moment    :      0.220320975      -0.537173316       0.011071499
                        -----------------------------------------
Magnitude (a.u.)       :      0.580705676
Magnitude (Debye)      :      1.476036525



--------------------
Rotational spectrum 
--------------------
 
Rotational constants in cm-1:             1.182709             0.424515             0.354966 
Rotational constants in MHz :         35456.713527         12726.642852         10641.620869 

Dipole components along the rotational axes: 
x,y,z [a.u.] :    -0.301495     0.496298     0.002906 
x,y,z [Debye]:    -0.766339     1.261489     0.007386 

 

-------------
DIPOLE MOMENT
-------------

Method             : TDA/CIS
Type of density    : Electron Density
Level              : Relaxed density
State              :   1
Multiplicity       :   3
Irrep              :   0
Energy             :     0.0000000000000000 Eh
Relativity type    : 
Basis              : AO
                                X                 Y                 Z
Electronic contribution:      0.019449935       1.125321058      -0.037799956
Nuclear contribution   :     -0.537838733      -2.536632727       0.055895981
                        -----------------------------------------
Total Dipole Moment    :     -0.518388798      -1.411311669       0.018096025
                        -----------------------------------------
Magnitude (a.u.)       :      1.503613993
Magnitude (Debye)      :      3.821883039



--------------------
Rotational spectrum 
--------------------
 
Rotational constants in cm-1:             1.182709             0.424515             0.354966 
Rotational constants in MHz :         35456.713527         12726.642852         10641.620869 

Dipole components along the rotational axes: 
x,y,z [a.u.] :    -1.443490     0.420936    -0.002363 
x,y,z [Debye]:    -3.669059     1.069935    -0.006007 

 

Dipole moment calculation done in   0.0 sec 

Maximum memory used throughout the entire PROP-calculation: 7.4 MB
[1741042812.775577] [ohm:285130:0]        ib_iface.c:1059 UCX  ERROR ibv_create_cq(cqe=256) failed: Connection timed out
[1741042812.775577] [ohm:285134:0]        ib_iface.c:1059 UCX  ERROR ibv_create_cq(cqe=256) failed: Connection timed out
[1741042812.776335] [ohm:285131:0]        ib_iface.c:1059 UCX  ERROR ibv_create_cq(cqe=256) failed: Connection timed out
[1741042812.776697] [ohm:285136:0]        ib_iface.c:1059 UCX  ERROR ibv_create_cq(cqe=256) failed: Connection timed out
[1741042812.799506] [ohm:285148:0]        ib_iface.c:1059 UCX  ERROR ibv_create_cq(cqe=256) failed: Connection timed out
[1741042812.799687] [ohm:285174:0]        ib_iface.c:1059 UCX  ERROR ibv_create_cq(cqe=256) failed: Connection timed out
[1741042812.801180] [ohm:285146:0]        ib_iface.c:1059 UCX  ERROR ibv_create_cq(cqe=256) failed: Connection timed out
[1741042812.805617] [ohm:285137:0]        ib_iface.c:1059 UCX  ERROR ibv_create_cq(cqe=256) failed: Connection timed out
[1741042812.809898] [ohm:285143:0]        ib_iface.c:1059 UCX  ERROR ibv_create_cq(cqe=256) failed: Connection timed out
[1741042812.809966] [ohm:285145:0]        ib_iface.c:1059 UCX  ERROR ibv_create_cq(cqe=256) failed: Connection timed out
[1741042812.810228] [ohm:285129:0]        ib_iface.c:1059 UCX  ERROR ibv_create_cq(cqe=256) failed: Connection timed out
[1741042812.811848] [ohm:285126:0]        ib_iface.c:1059 UCX  ERROR ibv_create_cq(cqe=256) failed: Connection timed out
[1741042812.818765] [ohm:285140:0]        ib_iface.c:1059 UCX  ERROR ibv_create_cq(cqe=256) failed: Connection timed out
[1741042812.818879] [ohm:285124:0]        ib_iface.c:1059 UCX  ERROR ibv_create_cq(cqe=256) failed: Connection timed out
[1741042812.818872] [ohm:285133:0]        ib_iface.c:1059 UCX  ERROR ibv_create_cq(cqe=256) failed: Connection timed out
[1741042812.819609] [ohm:285139:0]        ib_iface.c:1059 UCX  ERROR ibv_create_cq(cqe=256) failed: Connection timed out
[1741042812.819934] [ohm:285127:0]        ib_iface.c:1059 UCX  ERROR ibv_create_cq(cqe=256) failed: Connection timed out
[1741042812.820026] [ohm:285141:0]        ib_iface.c:1059 UCX  ERROR ibv_create_cq(cqe=256) failed: Connection timed out
[1741042812.821923] [ohm:285150:0]        ib_iface.c:1059 UCX  ERROR ibv_create_cq(cqe=256) failed: Connection timed out
[1741042812.822491] [ohm:285144:0]        ib_iface.c:1059 UCX  ERROR ibv_create_cq(cqe=256) failed: Connection timed out
[1741042812.824392] [ohm:285125:0]        ib_iface.c:1059 UCX  ERROR ibv_create_cq(cqe=256) failed: Connection timed out
[1741042812.824747] [ohm:285166:0]        ib_iface.c:1059 UCX  ERROR ibv_create_cq(cqe=256) failed: Connection timed out
[1741042812.827331] [ohm:285175:0]        ib_iface.c:1059 UCX  ERROR ibv_create_cq(cqe=256) failed: Connection timed out
[1741042812.827781] [ohm:285138:0]        ib_iface.c:1059 UCX  ERROR ibv_create_cq(cqe=256) failed: Connection timed out
[1741042812.827829] [ohm:285149:0]        ib_iface.c:1059 UCX  ERROR ibv_create_cq(cqe=256) failed: Connection timed out
[1741042812.827880] [ohm:285147:0]        ib_iface.c:1059 UCX  ERROR ibv_create_cq(cqe=256) failed: Connection timed out
[1741042812.828092] [ohm:285161:0]        ib_iface.c:1059 UCX  ERROR ibv_create_cq(cqe=256) failed: Connection timed out
[1741042812.829456] [ohm:285128:0]        ib_iface.c:1059 UCX  ERROR ibv_create_cq(cqe=256) failed: Connection timed out
[1741042812.829470] [ohm:285132:0]        ib_iface.c:1059 UCX  ERROR ibv_create_cq(cqe=256) failed: Connection timed out
[1741042812.829905] [ohm:285142:0]        ib_iface.c:1059 UCX  ERROR ibv_create_cq(cqe=256) failed: Connection timed out
[1741042812.829962] [ohm:285135:0]        ib_iface.c:1059 UCX  ERROR ibv_create_cq(cqe=256) failed: Connection timed out
[1741042812.841136] [ohm:285159:0]        ib_iface.c:1059 UCX  ERROR ibv_create_cq(cqe=256) failed: Connection timed out

--------------------------------
SUGGESTED CITATIONS FOR THIS RUN
--------------------------------

Below you find a list of papers that are relevant to this ORCA run
We neither can nor want to force you to cite these papers, but we appreciate if you do
You receive ORCA, which is the product of decades of hard work by many enthusiastic individuals, for free
The only thing we kindly ask in return is that you cite our papers,
We deeply appreciate it, if you show your appreciation for ORCA by not just citing the generic ORCA reference.

Please note that relegating all ORCA citations to the supporting information does *not* help us.
SI sections are not indexed - citations you put there will not count into any citation statistics
But we need these citations in order to attract the funding resources that allow us to do what we are doing

Therefore, if you are a happy ORCA user, please consider citing a few of the papers listed below in the main body of your paper

In addition to the list printed below, the program has created the file orca.bibtex that contains the list in bibtex format
You can import this file easily into all common literature databanks and citation aid programs


List of essential papers. We consider these as the minimum necessary citations

  1. Neese,F.
     Software update: the ORCA program system, version 5.0
     WIRES Comput. Molec. Sci., 2022 12(1)e1606
     doi.org/10.1002/wcms.1606

List of papers to cite with high priority. The work reported in these papers was absolutely
necessary for this run to complete.
Our perspective: the developers of density functionals and basis sets usually get cited in chemistry papers
Good! But without the algorithms to do something with them, the functionals or basis sets would not do anything.
Hence, in our opinion, the algorithm design and method developments papers are equally worthy of getting cited

  1. Neese,F.; Olbrich,G.
     Efficient use of the resolution of the identity approximation in time-dependent density functional calculations with hybrid density functionals
     Chem. Phys. Lett., 2002 362 170-178
     doi.org/10.1016/s0009-2614(02)01053-9
  2. Neese,F.
     An improvement of the resolution of the identity approximation for the formation of the Coulomb matrix
     J. Comp. Chem., 2003 24(14)1740-1747
     doi.org/10.1002/jcc.10318
  3. Neese,F.; Wennmohs,F.; Hansen,A.; Becker,U.
     Efficient, approximate and parallel Hartree-Fock and hybrid DFT calculations. A 'chain-of-spheres' algorithm for the Hartree-Fock exchange
     Chem. Phys., 2009 356(1-3)98-109
     doi.org/10.1016/j.chemphys.2008.10.036
  4. Petrenko,T.; Kossmann,S.; Neese,F.
     Efficient time-dependent density functional theory approximations for hybrid density functionals: Analytical gradients and parallelization
     J. Chem. Phys., 2011 134 054116
     doi.org/10.1063/1.3533441
  5. Helmich-Paris,B.; de Souza,B.; Neese,F.; Izsák,R.
     An improved chain of spheres for exchange algorithm
     J. Chem. Phys., 2021 155 104109
     doi.org/doi: 10.1063/5.0058766.
  6. Neese,F.
     The SHARK Integral Generation and Digestion System
     J. Comp. Chem., 2022  1-16
     doi.org/10.1002/jcc.26942
  7. Lehtola,S.; Steigemann,C.; Oliveira,M.; Marques,M.
     Recent developments in Libxc - A comprehensive library of functionals for density functional theory
     Software X, 2018 7 
     doi.org/10.1016/j.softx.2017.11.002
  8. Grimme,S.; Antony,J.; Ehrlich,S.; Krieg,H.
     A consistent and accurate ab initio parametrization of density functional dispersion correction (DFT-D) for the 94 elements H-Pu
     J. Chem. Phys., 2010 132 154104-XXXX
     doi.org/10.1063/1.3382344
  9. Grimme,S.; Ehrlich,S.; Goerigk,L.
     Effect of the damping function in dispersion corrected density functional theory
     J. Comput. Chem., 2011 32(7)1456-1465
     doi.org/10.1002/jcc.21759

List of suggested additional citations. These are papers that are important in the 'surrounding' of 
of this run, or papers that preceded the highly important papers. If you like your results we are grateful for a citation.

  1. Izsak,R.; Neese,F.
     An overlap fitted chain of spheres exchange method
     J. Chem. Phys., 2011 135 144105
     doi.org/10.1063/1.3646921
  2. Izsak,R.; Hansen,A.; Neese,F.
     The resolution of identity and chain of spheres approximations for the LPNO-CCSD singles Fock term
     Molec. Phys., 2012 110 2413-2417
     doi.org/10.1080/00268976.2012.687466
  3. Neese,F.
     The ORCA program system
     WIRES Comput. Molec. Sci., 2012 2(1)73-78
     doi.org/10.1002/wcms.81
  4. Izsak,R.; Neese,F.; Klopper,W.
     Robust fitting techniques in the chain of spheres approximation to the Fock exchange: The role of the complementary space
     J. Chem. Phys., 2013 139 
     doi.org/10.1063/1.4819264
  5. Neese,F.
     Software update: the ORCA program system, version 4.0
     WIRES Comput. Molec. Sci., 2018 8(1)1-6
     doi.org/10.1002/wcms.1327
  6. Neese,F.; Wennmohs,F.; Becker,U.; Riplinger,C.
     The ORCA quantum chemistry program package
     J. Chem. Phys., 2020 152 Art. No. L224108
     doi.org/10.1063/5.0004608

List of optional additional citations

  1. Neese,F.
     Approximate second-order SCF convergence for spin unrestricted wavefunctions
     Chem. Phys. Lett., 2000 325(1-3)93-98
     doi.org/10.1016/s0009-2614(00)00662-x

Timings for individual modules:

Sum of individual times          ...       14.739 sec (=   0.246 min)
Startup calculation              ...        1.202 sec (=   0.020 min)   8.2 %
SCF iterations                   ...        5.995 sec (=   0.100 min)  40.7 %
Property integrals               ...        0.958 sec (=   0.016 min)   6.5 %
Property calculations            ...        0.895 sec (=   0.015 min)   6.1 %
CIS module                       ...        5.690 sec (=   0.095 min)  38.6 %
                             ****ORCA TERMINATED NORMALLY****
TOTAL RUN TIME: 0 days 0 hours 0 minutes 15 seconds 706 msec
