
                                 *****************
                                 * O   R   C   A *
                                 *****************

                                            #,                                       
                                            ###                                      
                                            ####                                     
                                            #####                                    
                                            ######                                   
                                           ########,                                 
                                     ,,################,,,,,                         
                               ,,#################################,,                 
                          ,,##########################################,,             
                       ,#########################################, ''#####,          
                    ,#############################################,,   '####,        
                  ,##################################################,,,,####,       
                ,###########''''           ''''###############################       
              ,#####''   ,,,,##########,,,,          '''####'''          '####       
            ,##' ,,,,###########################,,,                        '##       
           ' ,,###''''                  '''############,,,                           
         ,,##''                                '''############,,,,        ,,,,,,###''
      ,#''                                            '''#######################'''  
     '                                                          ''''####''''         
             ,#######,   #######,   ,#######,      ##                                
            ,#'     '#,  ##    ##  ,#'     '#,    #''#        ,####,   ,####,        
            ##       ##  ##   ,#'  ##            #'  '#       #'       #'  '#        
            ##       ##  #######   ##           ,######,      #####,   #    #        
            '#,     ,#'  ##    ##  '#,     ,#' ,#      #,     #,   #   #,  ,#        
             '#######'   ##     ##  '#######'  #'      '#     '####' # '####'        



                #########################################################
                #                        -***-                          #
                #          Department of theory and spectroscopy        #
                #                                                       #
                #                      Frank Neese                      #
                #                                                       #
                #     Directorship, Architecture, Infrastructure        #
                #                    SHARK, DRIVERS                     #
                #        Core code/Algorithms in most modules           #
                #                                                       #
                #        Max Planck Institute fuer Kohlenforschung      #
                #                Kaiser Wilhelm Platz 1                 #
                #                 D-45470 Muelheim/Ruhr                 #
                #                      Germany                          #
                #                                                       #
                #                  All rights reserved                  #
                #                        -***-                          #
                #########################################################


                         Program Version 6.0.0  -   RELEASE  -


 With contributions from (in alphabetic order):
   Daniel Aravena         : Magnetic Suceptibility
   Michael Atanasov       : Ab Initio Ligand Field Theory (pilot matlab implementation)
   Alexander A. Auer      : GIAO ZORA, VPT2 properties, NMR spectrum
   Ute Becker             : All parallelization in ORCA, NUMFREQ, NUMCALC
   Giovanni Bistoni       : ED, misc. LED, open-shell LED, HFLD
   Martin Brehm           : Molecular dynamics
   Dmytro Bykov           : pre 5.0 version of the SCF Hessian
   Marcos Casanova-Páez   : Triplet and SCS-CIS(D). UHF-(DLPNO)-IP/EA/STEOM-CCSD. UHF-CVS-IP/STEOM-CCSD
   Vijay G. Chilkuri      : MRCI spin determinant printing, contributions to CSF-ICE
   Pauline Colinet        : FMM embedding
   Dipayan Datta          : RHF DLPNO-CCSD density
   Achintya Kumar Dutta   : EOM-CC, STEOM-CC
   Nicolas Foglia         : Exact transition moments, OPA infrastructure, MCD improvements
   Dmitry Ganyushin       : Spin-Orbit,Spin-Spin,Magnetic field MRCI
   Miquel Garcia          : C-PCM and meta-GGA Hessian, CCSD/C-PCM, Gaussian charge scheme
   Tiago L. C. Gouveia    : GS-ROHF, GS-ROCIS
   Yang Guo               : DLPNO-NEVPT2, F12-NEVPT2, CIM, IAO-localization
   Andreas Hansen         : Spin unrestricted coupled pair/coupled cluster methods
   Ingolf Harden          : AUTO-CI MPn and infrastructure 
   Benjamin Helmich-Paris : MC-RPA, TRAH-(SCF,CASSCF), AVAS, COSX integrals, SCF dyn. polar.
   Lee Huntington         : MR-EOM, pCC
   Robert Izsak           : Overlap fitted RIJCOSX, COSX-SCS-MP3, EOM
   Riya Kayal             : Wick's Theorem for AUTO-CI, AUTO-CI UHF-CCSDT
   Emily Kempfer          : AUTO-CI, RHF CISDT and CCSDT
   Christian Kollmar      : KDIIS, OOCD, Brueckner-CCSD(T), CCSD density, CASPT2, CASPT2-K, improved NEVPT2
   Axel Koslowski         : Symmetry handling
   Simone Kossmann        : Meta GGA functionals, TD-DFT gradient, OOMP2, (MP2 Hessian; deprecated post 5.0)
   Lucas Lang             : DCDCAS
   Marvin Lechner         : AUTO-CI (C++ implementation), FIC-MRCC
   Spencer Leger          : CASSCF response
   Dagmar Lenk            : GEPOL surface, SMD, ORCA-2-JSON
   Dimitrios Liakos       : Extrapolation schemes; Compound Job, initial MDCI parallelization
   Dimitrios Manganas     : Further ROCIS development; embedding schemes. LFT, Crystal Embedding
   Dimitrios Pantazis     : SARC Basis sets
   Anastasios Papadopoulos: AUTO-CI, single reference methods and gradients
   Taras Petrenko         : pre 6.0 DFT Hessian and TD-DFT gradient, (ASA, deprecated), ECA, 1-Electron XAS/XES, NRVS
   Peter Pinski           : DLPNO-MP2, DLPNO-MP2 Gradient
   Christoph Reimann      : Effective Core Potentials
   Marius Retegan         : Local ZFS, SOC
   Christoph Riplinger    : Optimizer, TS searches, QM/MM, DLPNO-CCSD(T), (RO)-DLPNO pert. Triples
   Michael Roemelt        : Original ROCIS implementation
   Masaaki Saitow         : Open-shell DLPNO-CCSD energy and density
   Barbara Sandhoefer     : DKH picture change effects
   Kantharuban Sivalingam : CASSCF convergence/infrastructure, NEVPT2 and variants, FIC-MRCI
   Bernardo de Souza      : ESD, SOC TD-DFT
   Georgi Stoychev        : AutoAux, RI-MP2 NMR, DLPNO-MP2 response, X2C
   Van Anh Tran           : RI-MP2 g-tensors
   Willem Van den Heuvel  : Paramagnetic NMR
   Zikuan Wang            : NOTCH, Electric field optimization 
   Frank Wennmohs         : Technical directorship and infrastructure
   Hang Xu                : AUTO-CI-Response properties 


 We gratefully acknowledge several colleagues who have allowed us to
 interface, adapt or use parts of their codes:
   Stefan Grimme, W. Hujo, H. Kruse, P. Pracht,  : VdW corrections, initial TS optimization,
                  C. Bannwarth, S. Ehlert,         DFT functionals, gCP, sTDA/sTD-DF
                  L. Wittmann, M. Mueller
   Ed Valeev, F. Pavosevic, A. Kumar             : LibInt (2-el integral package), F12 methods
   Garnet Chan, S. Sharma, J. Yang, R. Olivares  : DMRG
   Ulf Ekstrom                                   : XCFun DFT Library
   Mihaly Kallay                                 : mrcc  (arbitrary order and MRCC methods)
   Frank Weinhold                                : gennbo (NPA and NBO analysis)
   Simon Mueller                                 : openCOSMO-RS
   Christopher J. Cramer and Donald G. Truhlar   : smd solvation model
   Lars Goerigk                                  : TD-DFT with DH, B97 family of functionals
   V. Asgeirsson, H. Jonsson                     : NEB implementation
   FAccTs GmbH                                   : IRC, NEB, NEB-TS, DLPNO-Multilevel, CI-OPT
                                                   MM, QMMM, 2- and 3-layer-ONIOM, Crystal-QMMM,
                                                   LR-CPCM, SF, NACMEs, symmetry and pop. for TD-DFT,
                                                   nearIR, NL-DFT gradient (VV10), updates on ESD,
                                                   ML-optimized integration grids, MBIS, APM,
                                                   GOAT, DOCKER, SOLVATOR, interface openCOSMO-RS
   S Lehtola, MJT Oliveira, MAL Marques          : LibXC Library
   Liviu Ungur et al                             : ANISO software


 Your calculation uses the libint2 library for the computation of 2-el integrals
 For citations please refer to: http://libint.valeyev.net

 Your ORCA version has been built with support for libXC version: 6.2.2
 For citations please refer to: https://libxc.gitlab.io

 This ORCA versions uses:
   CBLAS   interface :  Fast vector & matrix operations
   LAPACKE interface :  Fast linear algebra routines
   SCALAPACK package :  Parallel linear algebra routines
   Shared memory     :  Shared parallel matrices
   BLAS/LAPACK       :  OpenBLAS 0.3.27  USE64BITINT DYNAMIC_ARCH NO_AFFINITY Zen SINGLE_THREADED
        Core in use  :  Zen
   Copyright (c) 2011-2014, The OpenBLAS Project


Your calculation utilizes the atom-pairwise dispersion correction
with the Becke-Johnson damping scheme (D3BJ)


Warning: RI is on but no J-basis has been assigned. Assigning Def2/J (nothing to worry about!)
================================================================================

----- Orbital basis set information -----
Your calculation utilizes the basis: def2-TZVPPD
   F. Weigend and R. Ahlrichs, Phys. Chem. Chem. Phys. 7, 3297 (2005).
   D. Rappoport and F. Furche, J. Chem. Phys. 133, 134105 (2010)
   D. Rappoport, J. Chem. Phys. 155, 124102 (2021).

----- AuxJ basis set information -----
Your calculation utilizes the auxiliary basis: def2/J
   F. Weigend, Phys. Chem. Chem. Phys. 8, 1057 (2006).

================================================================================
                                        WARNINGS
                       Please study these warnings very carefully!
================================================================================

Using LibXC functional ID 531 : wB97M-V exchange-correlation functional
[ 1]  N. Mardirossian and M. Head-Gordon.,  J. Chem. Phys. 144, 214110 (2016)
Using LibXC functional ID 531 : wB97M-V exchange-correlation functional
[ 1]  N. Mardirossian and M. Head-Gordon.,  J. Chem. Phys. 144, 214110 (2016)

WARNING: B97M-V or wB97M-V functional requested.
  ===> : libXC variant has now been activated.
         Any manually given DFX/HFX/RangeSep scaling parameters are IGNORED!

Your calculation utilizes LibXC
 by S Lehtola, C Steigemann, MJT Oliveira & MAL Marques
Please cite in your paper:
 S Lehtola, C Steigemann, MJT Oliveira & MAL Marques, SoftwareX, 7, (2018), 1.
   


WARNING: your system is open-shell and RHF/RKS was chosen
  ===> : WILL SWITCH to UHF/UKS

INFO   : Checking CIS options ...

WARNING: CIS/ROCIS methods need fully converged wavefunctions
  ===> : Setting SCFConvForced true
         You can overwrite this default with %scf ConvForced false 


================================================================================
                                       INPUT FILE
================================================================================
NAME = orca.inp
|  1> ! Engrad def2-TZVPPD wB97M-D3BJ 
|  2> %pal nprocs 8 end%pal nprocs 64 end 
|  3> %tddft 
|  4>  Iroot 2 Nroots 3 
|  5> sf true 
|  6> end 
|  7> *xyz 0 3 
|  8> O   2.27389346 -0.7965067 -2.45332297
|  9> O   -1.55387044 1.61246531 -1.6752257
| 10> O   -1.30285463 -2.70990191 -0.73525844
| 11> O   -2.99024827 0.81078226 2.38304163
| 12> N   0.06767522 -1.6088632 0.69377601
| 13> N   -0.7223849 0.73884098 2.09104448
| 14> N   0.37898907 -1.46046707 -1.63181827
| 15> N   -2.10906902 0.62231701 0.22511163
| 16> C   2.01418318 -0.71017923 -0.05458231
| 17> C   0.13502005 1.48324903 0.01209176
| 18> C   1.05427491 -0.71509007 1.06432159
| 19> C   0.49703068 0.80813691 1.27908836
| 20> C   3.37863631 -0.28147559 0.2349301
| 21> C   1.11488378 2.30914443 -0.62394871
| 22> C   1.63347862 -0.95266166 -1.45528777
| 23> C   -1.18939797 1.31128592 -0.59562185
| 24> C   -0.39034341 -1.94972383 -0.6104842
| 25> C   -2.03462106 0.72381138 1.61133024
| 26> H   1.57293121 -0.93117427 1.99880476
| 27> H   1.24128885 1.35368077 1.83641447
| 28> H   3.9939397 -0.10453372 -0.61948584
| 29> H   3.38310731 0.694961 0.7650505
| 30> H   3.80653996 -0.95666329 0.9038691
| 31> H   0.82711136 2.59116117 -1.63370414
| 32> H   1.38982607 3.28694594 -0.07140889
| 33> H   2.08543745 1.73851612 -0.6897675
| 34> H   -0.58123999 -1.90971504 1.35429265
| 35> H   -0.70282089 1.00441722 3.0779307
| 36> H   0.15355683 -1.79378667 -2.52035789
| 37> H   -3.02887606 0.5764875 -0.15091909
| 38> *
| 39> 
| 40>                          ****END OF INPUT****
================================================================================

                     *******************************
                     * Energy+Gradient Calculation *
                     *******************************

---------------------------------
CARTESIAN COORDINATES (ANGSTROEM)
---------------------------------
  O      2.273893   -0.796507   -2.453323
  O     -1.553870    1.612465   -1.675226
  O     -1.302855   -2.709902   -0.735258
  O     -2.990248    0.810782    2.383042
  N      0.067675   -1.608863    0.693776
  N     -0.722385    0.738841    2.091044
  N      0.378989   -1.460467   -1.631818
  N     -2.109069    0.622317    0.225112
  C      2.014183   -0.710179   -0.054582
  C      0.135020    1.483249    0.012092
  C      1.054275   -0.715090    1.064322
  C      0.497031    0.808137    1.279088
  C      3.378636   -0.281476    0.234930
  C      1.114884    2.309144   -0.623949
  C      1.633479   -0.952662   -1.455288
  C     -1.189398    1.311286   -0.595622
  C     -0.390343   -1.949724   -0.610484
  C     -2.034621    0.723811    1.611330
  H      1.572931   -0.931174    1.998805
  H      1.241289    1.353681    1.836414
  H      3.993940   -0.104534   -0.619486
  H      3.383107    0.694961    0.765050
  H      3.806540   -0.956663    0.903869
  H      0.827111    2.591161   -1.633704
  H      1.389826    3.286946   -0.071409
  H      2.085437    1.738516   -0.689767
  H     -0.581240   -1.909715    1.354293
  H     -0.702821    1.004417    3.077931
  H      0.153557   -1.793787   -2.520358
  H     -3.028876    0.576488   -0.150919

----------------------------
CARTESIAN COORDINATES (A.U.)
----------------------------
  NO LB      ZA    FRAG     MASS         X           Y           Z
   0 O     8.0000    0    15.999    4.297036   -1.505180   -4.636109
   1 O     8.0000    0    15.999   -2.936390    3.047118   -3.165718
   2 O     8.0000    0    15.999   -2.462038   -5.120972   -1.389437
   3 O     8.0000    0    15.999   -5.650750    1.532156    4.503296
   4 N     7.0000    0    14.007    0.127888   -3.040311    1.311047
   5 N     7.0000    0    14.007   -1.365110    1.396207    3.951501
   6 N     7.0000    0    14.007    0.716186   -2.759883   -3.083690
   7 N     7.0000    0    14.007   -3.985563    1.176009    0.425399
   8 C     6.0000    0    12.011    3.806255   -1.342044   -0.103146
   9 C     6.0000    0    12.011    0.255151    2.802934    0.022850
  10 C     6.0000    0    12.011    1.992291   -1.351324    2.011276
  11 C     6.0000    0    12.011    0.939252    1.527157    2.417127
  12 C     6.0000    0    12.011    6.384697   -0.531912    0.443954
  13 C     6.0000    0    12.011    2.106825    4.363651   -1.179092
  14 C     6.0000    0    12.011    3.086827   -1.800270   -2.750095
  15 C     6.0000    0    12.011   -2.247636    2.477971   -1.125562
  16 C     6.0000    0    12.011   -0.737642   -3.684444   -1.153648
  17 C     6.0000    0    12.011   -3.844877    1.367805    3.044973
  18 H     1.0000    0     1.008    2.972409   -1.759664    3.777194
  19 H     1.0000    0     1.008    2.345696    2.558086    3.470320
  20 H     1.0000    0     1.008    7.547452   -0.197540   -1.170659
  21 H     1.0000    0     1.008    6.393146    1.313286    1.445736
  22 H     1.0000    0     1.008    7.193318   -1.807832    1.708065
  23 H     1.0000    0     1.008    1.563014    4.896585   -3.087253
  24 H     1.0000    0     1.008    2.626391    6.211428   -0.134943
  25 H     1.0000    0     1.008    3.940906    3.285319   -1.303472
  26 H     1.0000    0     1.008   -1.098384   -3.608838    2.559242
  27 H     1.0000    0     1.008   -1.328139    1.898073    5.816446
  28 H     1.0000    0     1.008    0.290180   -3.389766   -4.762786
  29 H     1.0000    0     1.008   -5.723746    1.089403   -0.285196

--------------------------------
INTERNAL COORDINATES (ANGSTROEM)
--------------------------------
 O      0   0   0     0.000000000000     0.00000000     0.00000000
 O      1   0   0     4.589156565284     0.00000000     0.00000000
 O      1   2   0     4.405218934198    58.97910115     0.00000000
 O      2   1   3     4.378973704525   109.54989998    48.52613115
 N      3   1   2     2.265563455290    62.85412222   276.97571506
 N      4   2   1     2.287715486761    64.04261146    32.00096622
 N      1   2   3     2.169418353452    50.79526479     0.17168972
 N      2   1   3     2.213576537420    96.88961939    37.94560297
 C      5   3   1     2.270807409577   120.19919524   355.68879785
 C      6   4   2     2.368824815216   117.44834197     9.10242262
 C      5   3   1     1.381851433069   156.26024556    19.15772061
 C      6   4   2     1.466645500272   153.30271618   357.00648444
 C      9   5   3     1.459224653869   148.47370156   206.39548259
 C     10   6   4     1.430658457001   145.03396958   131.92486775
 C      1   2   3     1.196072656348    58.69840838   318.58401746
 C      2   1   3     1.178598183981    76.30428455    65.96077481
 C      3   1   2     1.194201009423    31.11275544   290.59093003
 C      4   2   1     1.231391801141    34.67128070    15.95456007
 H     11   5   3     1.090392376181   116.18309264   204.74311137
 H     12   6   4     1.078030945606   108.16224867   139.37723715
 H     13   9   5     1.067676582880   115.39071363   165.73464873
 H     13   9   5     1.111069773969   110.89241038   283.00934505
 H     13   9   5     1.042333607649   108.71643292    38.14481096
 H     14  10   6     1.087176359091   112.41894252   202.82073724
 H     14  10   6     1.156282538342   116.01374302   326.00232561
 H     14  10   6     1.127795729572   108.86084828    83.51920528
 H      5   3   1     0.973593863537    82.79335508   180.75730750
 H      6   4   2     1.022182909741    83.54478661   152.39392855
 H      7   1   2     0.975409814840    87.79391517    98.67035190
 H      8   2   1     0.994758481846    85.87140494   225.69754029

---------------------------
INTERNAL COORDINATES (A.U.)
---------------------------
 O      0   0   0     0.000000000000     0.00000000     0.00000000
 O      1   0   0     8.672249094073     0.00000000     0.00000000
 O      1   2   0     8.324657345598    58.97910115     0.00000000
 O      2   1   3     8.275061049194   109.54989998    48.52613115
 N      3   1   2     4.281294469519    62.85412222   276.97571506
 N      4   2   1     4.323155742308    64.04261146    32.00096622
 N      1   2   3     4.099606557926    50.79526479     0.17168972
 N      2   1   3     4.183053432198    96.88961939    37.94560297
 C      5   3   1     4.291204106980   120.19919524   355.68879785
 C      6   4   2     4.476430159995   117.44834197     9.10242262
 C      5   3   1     2.611320766268   156.26024556    19.15772061
 C      6   4   2     2.771558331061   153.30271618   357.00648444
 C      9   5   3     2.757534963679   148.47370156   206.39548259
 C     10   6   4     2.703552674910   145.03396958   131.92486775
 C      1   2   3     2.260249756770    58.69840838   318.58401746
 C      2   1   3     2.227227789661    76.30428455    65.96077481
 C      3   1   2     2.256712856661    31.11275544   290.59093003
 C      4   2   1     2.326993267712    34.67128070    15.95456007
 H     11   5   3     2.060542969497   116.18309264   204.74311137
 H     12   6   4     2.037183251087   108.16224867   139.37723715
 H     13   9   5     2.017616341244   115.39071363   165.73464873
 H     13   9   5     2.099617588480   110.89241038   283.00934505
 H     13   9   5     1.969725058640   108.71643292    38.14481096
 H     14  10   6     2.054465577956   112.41894252   202.82073724
 H     14  10   6     2.185057330901   116.01374302   326.00232561
 H     14  10   6     2.131225063897   108.86084828    83.51920528
 H      5   3   1     1.839825767752    82.79335508   180.75730750
 H      6   4   2     1.931645758184    83.54478661   152.39392855
 H      7   1   2     1.843257418386    87.79391517    98.67035190
 H      8   2   1     1.879821100084    85.87140494   225.69754029

---------------------
BASIS SET INFORMATION
---------------------
There are 4 groups of distinct atoms

 Group   1 Type O   : 12s7p3d1f contracted to 6s4p3d1f pattern {621111/4111/111/1}
 Group   2 Type N   : 12s6p3d1f contracted to 6s3p3d1f pattern {621111/411/111/1}
 Group   3 Type C   : 12s6p3d1f contracted to 6s3p3d1f pattern {621111/411/111/1}
 Group   4 Type H   : 5s3p1d contracted to 3s3p1d pattern {311/111/1}

Atom   0O    basis set group =>   1
Atom   1O    basis set group =>   1
Atom   2O    basis set group =>   1
Atom   3O    basis set group =>   1
Atom   4N    basis set group =>   2
Atom   5N    basis set group =>   2
Atom   6N    basis set group =>   2
Atom   7N    basis set group =>   2
Atom   8C    basis set group =>   3
Atom   9C    basis set group =>   3
Atom  10C    basis set group =>   3
Atom  11C    basis set group =>   3
Atom  12C    basis set group =>   3
Atom  13C    basis set group =>   3
Atom  14C    basis set group =>   3
Atom  15C    basis set group =>   3
Atom  16C    basis set group =>   3
Atom  17C    basis set group =>   3
Atom  18H    basis set group =>   4
Atom  19H    basis set group =>   4
Atom  20H    basis set group =>   4
Atom  21H    basis set group =>   4
Atom  22H    basis set group =>   4
Atom  23H    basis set group =>   4
Atom  24H    basis set group =>   4
Atom  25H    basis set group =>   4
Atom  26H    basis set group =>   4
Atom  27H    basis set group =>   4
Atom  28H    basis set group =>   4
Atom  29H    basis set group =>   4
---------------------------------
AUXILIARY/J BASIS SET INFORMATION
---------------------------------
There are 4 groups of distinct atoms

 Group   1 Type O   : 12s5p4d2f1g contracted to 6s4p3d1f1g pattern {711111/2111/211/2/1}
 Group   2 Type N   : 12s5p4d2f1g contracted to 6s4p3d1f1g pattern {711111/2111/211/2/1}
 Group   3 Type C   : 12s5p4d2f1g contracted to 6s4p3d1f1g pattern {711111/2111/211/2/1}
 Group   4 Type H   : 5s2p1d contracted to 3s1p1d pattern {311/2/1}

Atom   0O    basis set group =>   1
Atom   1O    basis set group =>   1
Atom   2O    basis set group =>   1
Atom   3O    basis set group =>   1
Atom   4N    basis set group =>   2
Atom   5N    basis set group =>   2
Atom   6N    basis set group =>   2
Atom   7N    basis set group =>   2
Atom   8C    basis set group =>   3
Atom   9C    basis set group =>   3
Atom  10C    basis set group =>   3
Atom  11C    basis set group =>   3
Atom  12C    basis set group =>   3
Atom  13C    basis set group =>   3
Atom  14C    basis set group =>   3
Atom  15C    basis set group =>   3
Atom  16C    basis set group =>   3
Atom  17C    basis set group =>   3
Atom  18H    basis set group =>   4
Atom  19H    basis set group =>   4
Atom  20H    basis set group =>   4
Atom  21H    basis set group =>   4
Atom  22H    basis set group =>   4
Atom  23H    basis set group =>   4
Atom  24H    basis set group =>   4
Atom  25H    basis set group =>   4
Atom  26H    basis set group =>   4
Atom  27H    basis set group =>   4
Atom  28H    basis set group =>   4
Atom  29H    basis set group =>   4
[1741391268.962435] [ohm:1243917:0]        ib_iface.c:1059 UCX  ERROR ibv_create_cq(cqe=256) failed: Connection timed out
[1741391268.962971] [ohm:1243922:0]        ib_iface.c:1059 UCX  ERROR ibv_create_cq(cqe=256) failed: Connection timed out
[1741391268.966895] [ohm:1243914:0]        ib_iface.c:1059 UCX  ERROR ibv_create_cq(cqe=256) failed: Connection timed out
[1741391268.973682] [ohm:1243915:0]        ib_iface.c:1059 UCX  ERROR ibv_create_cq(cqe=256) failed: Connection timed out
[1741391268.984990] [ohm:1243916:0]        ib_iface.c:1059 UCX  ERROR ibv_create_cq(cqe=256) failed: Connection timed out
[1741391268.997302] [ohm:1243920:0]        ib_iface.c:1059 UCX  ERROR ibv_create_cq(cqe=256) failed: Connection timed out
[1741391268.999642] [ohm:1243913:0]        ib_iface.c:1059 UCX  ERROR ibv_create_cq(cqe=256) failed: Connection timed out
[1741391268.999760] [ohm:1243930:0]        ib_iface.c:1059 UCX  ERROR ibv_create_cq(cqe=256) failed: Connection timed out
[1741391269.076387] [ohm:1243927:0]        ib_iface.c:1059 UCX  ERROR ibv_create_cq(cqe=256) failed: Connection timed out
[1741391269.076580] [ohm:1243926:0]        ib_iface.c:1059 UCX  ERROR ibv_create_cq(cqe=256) failed: Connection timed out
[1741391269.076740] [ohm:1243921:0]        ib_iface.c:1059 UCX  ERROR ibv_create_cq(cqe=256) failed: Connection timed out
[1741391269.077842] [ohm:1243919:0]        ib_iface.c:1059 UCX  ERROR ibv_create_cq(cqe=256) failed: Connection timed out
[1741391269.088174] [ohm:1243956:0]        ib_iface.c:1059 UCX  ERROR ibv_create_cq(cqe=256) failed: Connection timed out
[1741391269.088547] [ohm:1243931:0]        ib_iface.c:1059 UCX  ERROR ibv_create_cq(cqe=256) failed: Connection timed out
[1741391269.093334] [ohm:1243937:0]        ib_iface.c:1059 UCX  ERROR ibv_create_cq(cqe=256) failed: Connection timed out
[1741391269.094015] [ohm:1243933:0]        ib_iface.c:1059 UCX  ERROR ibv_create_cq(cqe=256) failed: Connection timed out
[1741391269.096501] [ohm:1243936:0]        ib_iface.c:1059 UCX  ERROR ibv_create_cq(cqe=256) failed: Connection timed out
[1741391269.098060] [ohm:1243923:0]        ib_iface.c:1059 UCX  ERROR ibv_create_cq(cqe=256) failed: Connection timed out
[1741391269.101169] [ohm:1243934:0]        ib_iface.c:1059 UCX  ERROR ibv_create_cq(cqe=256) failed: Connection timed out
[1741391269.102893] [ohm:1243928:0]        ib_iface.c:1059 UCX  ERROR ibv_create_cq(cqe=256) failed: Connection timed out
[1741391269.150705] [ohm:1243963:0]        ib_iface.c:1059 UCX  ERROR ibv_create_cq(cqe=256) failed: Connection timed out
[1741391269.161561] [ohm:1243948:0]        ib_iface.c:1059 UCX  ERROR ibv_create_cq(cqe=256) failed: Connection timed out
[1741391269.167602] [ohm:1244071:0]        ib_iface.c:1059 UCX  ERROR ibv_create_cq(cqe=256) failed: Connection timed out
[1741391269.169308] [ohm:1244007:0]        ib_iface.c:1059 UCX  ERROR ibv_create_cq(cqe=256) failed: Connection timed out
[1741391269.190807] [ohm:1243981:0]        ib_iface.c:1059 UCX  ERROR ibv_create_cq(cqe=256) failed: Connection timed out
[1741391269.194440] [ohm:1243935:0]        ib_iface.c:1059 UCX  ERROR ibv_create_cq(cqe=256) failed: Connection timed out
[1741391269.195313] [ohm:1243925:0]        ib_iface.c:1059 UCX  ERROR ibv_create_cq(cqe=256) failed: Connection timed out
[1741391269.195690] [ohm:1243994:0]        ib_iface.c:1059 UCX  ERROR ibv_create_cq(cqe=256) failed: Connection timed out
[1741391269.220645] [ohm:1244049:0]        ib_iface.c:1059 UCX  ERROR ibv_create_cq(cqe=256) failed: Connection timed out
[1741391269.226181] [ohm:1243960:0]        ib_iface.c:1059 UCX  ERROR ibv_create_cq(cqe=256) failed: Connection timed out
[1741391269.226463] [ohm:1244013:0]        ib_iface.c:1059 UCX  ERROR ibv_create_cq(cqe=256) failed: Connection timed out
[1741391269.226812] [ohm:1243918:0]        ib_iface.c:1059 UCX  ERROR ibv_create_cq(cqe=256) failed: Connection timed out
[1741391269.243485] [ohm:1243943:0]        ib_iface.c:1059 UCX  ERROR ibv_create_cq(cqe=256) failed: Connection timed out
[1741391269.246214] [ohm:1244009:0]        ib_iface.c:1059 UCX  ERROR ibv_create_cq(cqe=256) failed: Connection timed out
[1741391269.252076] [ohm:1243938:0]        ib_iface.c:1059 UCX  ERROR ibv_create_cq(cqe=256) failed: Connection timed out
[1741391269.252440] [ohm:1244034:0]        ib_iface.c:1059 UCX  ERROR ibv_create_cq(cqe=256) failed: Connection timed out
[1741391269.262777] [ohm:1244064:0]        ib_iface.c:1059 UCX  ERROR ibv_create_cq(cqe=256) failed: Connection timed out
[1741391269.267034] [ohm:1243940:0]        ib_iface.c:1059 UCX  ERROR ibv_create_cq(cqe=256) failed: Connection timed out
[1741391269.267211] [ohm:1243950:0]        ib_iface.c:1059 UCX  ERROR ibv_create_cq(cqe=256) failed: Connection timed out
[1741391269.267631] [ohm:1244056:0]        ib_iface.c:1059 UCX  ERROR ibv_create_cq(cqe=256) failed: Connection timed out
[1741391269.267619] [ohm:1243929:0]        ib_iface.c:1059 UCX  ERROR ibv_create_cq(cqe=256) failed: Connection timed out
[1741391269.269903] [ohm:1243966:0]        ib_iface.c:1059 UCX  ERROR ibv_create_cq(cqe=256) failed: Connection timed out
[1741391269.275231] [ohm:1244040:0]        ib_iface.c:1059 UCX  ERROR ibv_create_cq(cqe=256) failed: Connection timed out
[1741391269.277943] [ohm:1244020:0]        ib_iface.c:1059 UCX  ERROR ibv_create_cq(cqe=256) failed: Connection timed out
[1741391269.289742] [ohm:1244015:0]        ib_iface.c:1059 UCX  ERROR ibv_create_cq(cqe=256) failed: Connection timed out
[1741391269.295607] [ohm:1243974:0]        ib_iface.c:1059 UCX  ERROR ibv_create_cq(cqe=256) failed: Connection timed out
[1741391269.298073] [ohm:1244031:0]        ib_iface.c:1059 UCX  ERROR ibv_create_cq(cqe=256) failed: Connection timed out
[1741391269.300074] [ohm:1244033:0]        ib_iface.c:1059 UCX  ERROR ibv_create_cq(cqe=256) failed: Connection timed out
[1741391269.309181] [ohm:1244000:0]        ib_iface.c:1059 UCX  ERROR ibv_create_cq(cqe=256) failed: Connection timed out
[1741391269.314552] [ohm:1244024:0]        ib_iface.c:1059 UCX  ERROR ibv_create_cq(cqe=256) failed: Connection timed out
[1741391269.314793] [ohm:1243932:0]        ib_iface.c:1059 UCX  ERROR ibv_create_cq(cqe=256) failed: Connection timed out
[1741391269.318895] [ohm:1243990:0]        ib_iface.c:1059 UCX  ERROR ibv_create_cq(cqe=256) failed: Connection timed out
[1741391269.320142] [ohm:1243959:0]        ib_iface.c:1059 UCX  ERROR ibv_create_cq(cqe=256) failed: Connection timed out
[1741391269.320411] [ohm:1244027:0]        ib_iface.c:1059 UCX  ERROR ibv_create_cq(cqe=256) failed: Connection timed out
[1741391269.322282] [ohm:1243924:0]        ib_iface.c:1059 UCX  ERROR ibv_create_cq(cqe=256) failed: Connection timed out
[1741391269.322779] [ohm:1243971:0]        ib_iface.c:1059 UCX  ERROR ibv_create_cq(cqe=256) failed: Connection timed out
[1741391269.324032] [ohm:1243988:0]        ib_iface.c:1059 UCX  ERROR ibv_create_cq(cqe=256) failed: Connection timed out
[1741391269.325194] [ohm:1244018:0]        ib_iface.c:1059 UCX  ERROR ibv_create_cq(cqe=256) failed: Connection timed out
[1741391269.325880] [ohm:1243961:0]        ib_iface.c:1059 UCX  ERROR ibv_create_cq(cqe=256) failed: Connection timed out
[1741391269.327819] [ohm:1244043:0]        ib_iface.c:1059 UCX  ERROR ibv_create_cq(cqe=256) failed: Connection timed out
[1741391269.327944] [ohm:1243979:0]        ib_iface.c:1059 UCX  ERROR ibv_create_cq(cqe=256) failed: Connection timed out
[1741391269.328896] [ohm:1244004:0]        ib_iface.c:1059 UCX  ERROR ibv_create_cq(cqe=256) failed: Connection timed out
[1741391269.329726] [ohm:1243997:0]        ib_iface.c:1059 UCX  ERROR ibv_create_cq(cqe=256) failed: Connection timed out
[1741391269.332946] [ohm:1244036:0]        ib_iface.c:1059 UCX  ERROR ibv_create_cq(cqe=256) failed: Connection timed out


           ************************************************************
           *        Program running with 64 parallel MPI-processes    *
           *              working on a common directory               *
           ************************************************************
------------------------------------------------------------------------------
                             ORCA STARTUP CALCULATIONS
                           -- RI-GTO INTEGRALS CHOSEN --
------------------------------------------------------------------------------
------------------------------------------------------------------------------
                   ___                                                        
                  /   \      - P O W E R E D   B Y -                         
                 /     \                                                     
                 |  |  |   _    _      __       _____    __    __             
                 |  |  |  | |  | |    /  \     |  _  \  |  |  /  |          
                  \  \/   | |  | |   /    \    | | | |  |  | /  /          
                 / \  \   | |__| |  /  /\  \   | |_| |  |  |/  /          
                |  |  |   |  __  | /  /__\  \  |    /   |      \           
                |  |  |   | |  | | |   __   |  |    \   |  |\   \          
                \     /   | |  | | |  |  |  |  | |\  \  |  | \   \       
                 \___/    |_|  |_| |__|  |__|  |_| \__\ |__|  \__/        
                                                                              
                      - O R C A' S   B I G   F R I E N D -                    
                                      &                                       
                       - I N T E G R A L  F E E D E R -                       
                                                                              
 v1 FN, 2020, v2 2021, v3 2022-2024                                           
------------------------------------------------------------------------------


----------------------
SHARK INTEGRAL PACKAGE
----------------------

Number of atoms                             ...     30
Number of basis functions                   ...    882
Number of shells                            ...    322
Maximum angular momentum                    ...      3
Integral batch strategy                     ... SHARK/LIBINT Hybrid
RI-J (if used) integral strategy            ... SPLIT-RIJ (Revised 2003 algorithm where possible)
Printlevel                                  ...      1
Contraction scheme used                     ... SEGMENTED contraction
Prescreening option                         ... SCHWARTZ
   Thresh                                   ... 2.500e-11
   Tcut                                     ... 2.500e-12
   Tpresel                                  ... 2.500e-12 
Coulomb Range Separation                    ... NOT USED
Exchange Range Separation                   ... Long Range
   Mu parameter                             ... 3.000e-01
   Scaling (regular/separated)              ... 1.500e-01 8.500e-01
Multipole approximations                    ... NOT USED
Finite Nucleus Model                        ... NOT USED
CABS basis                                  ... NOT available
Auxiliary Coulomb fitting basis             ... AVAILABLE
   # of basis functions in Aux-J            ...   1014
   # of shells in Aux-J                     ...    330
   Maximum angular momentum in Aux-J        ...      4
Auxiliary J/K fitting basis                 ... NOT available
Auxiliary Correlation fitting basis         ... NOT available
Auxiliary 'external' fitting basis          ... NOT available

Checking pre-screening integrals            ... done (  0.0 sec) Dimension = 322
Check shell pair data                       ... done (  0.0 sec)
Shell pair information
Shell pair cut-off parameter TPreSel        ...   2.5e-12
Total number of shell pairs                 ...     52003
Shell pairs after pre-screening             ...     45191
Total number of primitive shell pairs       ...    129718
Primitive shell pairs kept                  ...     84609
          la=0 lb=0:   8753 shell pairs
          la=1 lb=0:  11947 shell pairs
          la=1 lb=1:   4121 shell pairs
          la=2 lb=0:   8118 shell pairs
          la=2 lb=1:   5617 shell pairs
          la=2 lb=2:   1933 shell pairs
          la=3 lb=0:   2082 shell pairs
          la=3 lb=1:   1469 shell pairs
          la=3 lb=2:   1007 shell pairs
          la=3 lb=3:    144 shell pairs

Calculating one electron integrals          ... done (  0.2 sec)
Calculating RI/J V-Matrix + Cholesky decomp.... done (  0.1 sec)
Calculating Nuclear repulsion               ... done (  0.0 sec) ENN=   1453.992886444755 Eh

Diagonalization of the overlap matrix:
Smallest eigenvalue                        ... 6.565e-07
Time for diagonalization                   ...    0.124 sec
Threshold for overlap eigenvalues          ... 1.000e-07
Number of eigenvalues below threshold      ... 0

IMPORTANT:
Smallest eigenvalue of S below the DiffSThresh (1.000e-06) while
Thresh>1e-12 and/or TCut>1e-13! In order to avoid SCF convergence issues,
Thresh will be set to at least 1e-12 and TCut to at least 1e-13.
This can be turned off by adding %SCF DiffSThresh -1 END to the input.

Time for construction of square roots      ...    0.125 sec
Total time needed                          ...    0.265 sec

-------------------
DFT GRID GENERATION
-------------------

General Integration Accuracy     IntAcc      ... 4.388
Radial Grid Type                 RadialGrid  ... OptM3 with GC (2021)
Angular Grid (max. ang.)         AngularGrid ... 4 (Lebedev-302)
Angular grid pruning method      GridPruning ... 4 (adaptive)
Weight generation scheme         WeightScheme... mBecke (2022)
Basis function cutoff            BFCut       ... 1.0000e-11
Integration weight cutoff        WCut        ... 1.0000e-14
Partially contracted basis set               ... off
Rotationally invariant grid construction     ... off
Angular grids for H and He will be reduced by one unit
Diffuse basis detected: some atoms will have their outermost
                        angular grid increased by 1.

Total number of grid points                  ...   151753
Total number of batches                      ...     2384
Average number of points per batch           ...       63
Average number of grid points per atom       ...     5058

--------------------
COSX GRID GENERATION
--------------------

GRIDX 1
-------
General Integration Accuracy     IntAcc      ... 3.816
Radial Grid Type                 RadialGrid  ... OptM3 with GC (2021)
Angular Grid (max. ang.)         AngularGrid ... 1 (Lebedev-50)
Angular grid pruning method      GridPruning ... 4 (adaptive)
Weight generation scheme         WeightScheme... mBecke (2022)
Basis function cutoff            BFCut       ... 1.0000e-11
Integration weight cutoff        WCut        ... 1.0000e-14
Partially contracted basis set               ... on
Rotationally invariant grid construction     ... off
Angular grids for H and He will be reduced by one unit
Diffuse basis detected: some atoms will have their outermost
                        angular grid increased by 1.

Total number of grid points                  ...    18997
Total number of batches                      ...      166
Average number of points per batch           ...      114
Average number of grid points per atom       ...      633
UseSFitting                                  ... on

GRIDX 2
-------
General Integration Accuracy     IntAcc      ... 4.020
Radial Grid Type                 RadialGrid  ... OptM3 with GC (2021)
Angular Grid (max. ang.)         AngularGrid ... 2 (Lebedev-110)
Angular grid pruning method      GridPruning ... 4 (adaptive)
Weight generation scheme         WeightScheme... mBecke (2022)
Basis function cutoff            BFCut       ... 1.0000e-11
Integration weight cutoff        WCut        ... 1.0000e-14
Partially contracted basis set               ... on
Rotationally invariant grid construction     ... off
Angular grids for H and He will be reduced by one unit
Diffuse basis detected: some atoms will have their outermost
                        angular grid increased by 1.

Total number of grid points                  ...    45810
Total number of batches                      ...      371
Average number of points per batch           ...      123
Average number of grid points per atom       ...     1527
UseSFitting                                  ... on

GRIDX 3
-------
General Integration Accuracy     IntAcc      ... 4.338
Radial Grid Type                 RadialGrid  ... OptM3 with GC (2021)
Angular Grid (max. ang.)         AngularGrid ... 3 (Lebedev-194)
Angular grid pruning method      GridPruning ... 4 (adaptive)
Weight generation scheme         WeightScheme... mBecke (2022)
Basis function cutoff            BFCut       ... 1.0000e-11
Integration weight cutoff        WCut        ... 1.0000e-14
Partially contracted basis set               ... on
Rotationally invariant grid construction     ... off
Angular grids for H and He will be reduced by one unit
Diffuse basis detected: some atoms will have their outermost
                        angular grid increased by 1.

Total number of grid points                  ...   100717
Total number of batches                      ...      801
Average number of points per batch           ...      125
Average number of grid points per atom       ...     3357
UseSFitting                                  ... on
Initializing property integral containers    ... done (  0.0 sec)

SHARK setup successfully completed in   4.1 seconds

Maximum memory used throughout the entire STARTUP-calculation: 80.2 MB
[1741391275.182999] [ohm:1244274:0]        ib_iface.c:1059 UCX  ERROR ibv_create_cq(cqe=256) failed: Connection timed out
[1741391275.186728] [ohm:1244273:0]        ib_iface.c:1059 UCX  ERROR ibv_create_cq(cqe=256) failed: Connection timed out
[1741391275.189732] [ohm:1244272:0]        ib_iface.c:1059 UCX  ERROR ibv_create_cq(cqe=256) failed: Connection timed out
[1741391275.195641] [ohm:1244276:0]        ib_iface.c:1059 UCX  ERROR ibv_create_cq(cqe=256) failed: Connection timed out
[1741391275.250401] [ohm:1244271:0]        ib_iface.c:1059 UCX  ERROR ibv_create_cq(cqe=256) failed: Connection timed out
[1741391275.265025] [ohm:1244278:0]        ib_iface.c:1059 UCX  ERROR ibv_create_cq(cqe=256) failed: Connection timed out
[1741391275.277980] [ohm:1244275:0]        ib_iface.c:1059 UCX  ERROR ibv_create_cq(cqe=256) failed: Connection timed out
[1741391275.281759] [ohm:1244285:0]        ib_iface.c:1059 UCX  ERROR ibv_create_cq(cqe=256) failed: Connection timed out
[1741391275.292356] [ohm:1244298:0]        ib_iface.c:1059 UCX  ERROR ibv_create_cq(cqe=256) failed: Connection timed out
[1741391275.294974] [ohm:1244296:0]        ib_iface.c:1059 UCX  ERROR ibv_create_cq(cqe=256) failed: Connection timed out
[1741391275.299987] [ohm:1244378:0]        ib_iface.c:1059 UCX  ERROR ibv_create_cq(cqe=256) failed: Connection timed out
[1741391275.299976] [ohm:1244335:0]        ib_iface.c:1059 UCX  ERROR ibv_create_cq(cqe=256) failed: Connection timed out
[1741391275.310894] [ohm:1244283:0]        ib_iface.c:1059 UCX  ERROR ibv_create_cq(cqe=256) failed: Connection timed out
[1741391275.327885] [ohm:1244277:0]        ib_iface.c:1059 UCX  ERROR ibv_create_cq(cqe=256) failed: Connection timed out
[1741391275.330268] [ohm:1244280:0]        ib_iface.c:1059 UCX  ERROR ibv_create_cq(cqe=256) failed: Connection timed out
[1741391275.361241] [ohm:1244279:0]        ib_iface.c:1059 UCX  ERROR ibv_create_cq(cqe=256) failed: Connection timed out
[1741391275.362206] [ohm:1244340:0]        ib_iface.c:1059 UCX  ERROR ibv_create_cq(cqe=256) failed: Connection timed out
[1741391275.367246] [ohm:1244415:0]        ib_iface.c:1059 UCX  ERROR ibv_create_cq(cqe=256) failed: Connection timed out
[1741391275.368249] [ohm:1244310:0]        ib_iface.c:1059 UCX  ERROR ibv_create_cq(cqe=256) failed: Connection timed out
[1741391275.372707] [ohm:1244281:0]        ib_iface.c:1059 UCX  ERROR ibv_create_cq(cqe=256) failed: Connection timed out
[1741391275.372706] [ohm:1244316:0]        ib_iface.c:1059 UCX  ERROR ibv_create_cq(cqe=256) failed: Connection timed out
[1741391275.374331] [ohm:1244312:0]        ib_iface.c:1059 UCX  ERROR ibv_create_cq(cqe=256) failed: Connection timed out
[1741391275.377011] [ohm:1244294:0]        ib_iface.c:1059 UCX  ERROR ibv_create_cq(cqe=256) failed: Connection timed out
[1741391275.384231] [ohm:1244424:0]        ib_iface.c:1059 UCX  ERROR ibv_create_cq(cqe=256) failed: Connection timed out
[1741391275.384392] [ohm:1244351:0]        ib_iface.c:1059 UCX  ERROR ibv_create_cq(cqe=256) failed: Connection timed out
[1741391275.386159] [ohm:1244344:0]        ib_iface.c:1059 UCX  ERROR ibv_create_cq(cqe=256) failed: Connection timed out
[1741391275.387821] [ohm:1244358:0]        ib_iface.c:1059 UCX  ERROR ibv_create_cq(cqe=256) failed: Connection timed out
[1741391275.402443] [ohm:1244341:0]        ib_iface.c:1059 UCX  ERROR ibv_create_cq(cqe=256) failed: Connection timed out
[1741391275.411507] [ohm:1244319:0]        ib_iface.c:1059 UCX  ERROR ibv_create_cq(cqe=256) failed: Connection timed out
[1741391275.417618] [ohm:1244391:0]        ib_iface.c:1059 UCX  ERROR ibv_create_cq(cqe=256) failed: Connection timed out
[1741391275.425787] [ohm:1244338:0]        ib_iface.c:1059 UCX  ERROR ibv_create_cq(cqe=256) failed: Connection timed out
[1741391275.432497] [ohm:1244332:0]        ib_iface.c:1059 UCX  ERROR ibv_create_cq(cqe=256) failed: Connection timed out
[1741391275.446539] [ohm:1244403:0]        ib_iface.c:1059 UCX  ERROR ibv_create_cq(cqe=256) failed: Connection timed out
[1741391275.452126] [ohm:1244397:0]        ib_iface.c:1059 UCX  ERROR ibv_create_cq(cqe=256) failed: Connection timed out
[1741391275.454267] [ohm:1244398:0]        ib_iface.c:1059 UCX  ERROR ibv_create_cq(cqe=256) failed: Connection timed out
[1741391275.458525] [ohm:1244409:0]        ib_iface.c:1059 UCX  ERROR ibv_create_cq(cqe=256) failed: Connection timed out
[1741391275.461448] [ohm:1244282:0]        ib_iface.c:1059 UCX  ERROR ibv_create_cq(cqe=256) failed: Connection timed out
[1741391275.466599] [ohm:1244333:0]        ib_iface.c:1059 UCX  ERROR ibv_create_cq(cqe=256) failed: Connection timed out
[1741391275.469998] [ohm:1244353:0]        ib_iface.c:1059 UCX  ERROR ibv_create_cq(cqe=256) failed: Connection timed out
[1741391275.473765] [ohm:1244334:0]        ib_iface.c:1059 UCX  ERROR ibv_create_cq(cqe=256) failed: Connection timed out
[1741391275.474762] [ohm:1244372:0]        ib_iface.c:1059 UCX  ERROR ibv_create_cq(cqe=256) failed: Connection timed out
[1741391275.486802] [ohm:1244327:0]        ib_iface.c:1059 UCX  ERROR ibv_create_cq(cqe=256) failed: Connection timed out
[1741391275.491904] [ohm:1244374:0]        ib_iface.c:1059 UCX  ERROR ibv_create_cq(cqe=256) failed: Connection timed out
[1741391275.492094] [ohm:1244328:0]        ib_iface.c:1059 UCX  ERROR ibv_create_cq(cqe=256) failed: Connection timed out
[1741391275.493146] [ohm:1244345:0]        ib_iface.c:1059 UCX  ERROR ibv_create_cq(cqe=256) failed: Connection timed out
[1741391275.499644] [ohm:1244367:0]        ib_iface.c:1059 UCX  ERROR ibv_create_cq(cqe=256) failed: Connection timed out
[1741391275.513141] [ohm:1244368:0]        ib_iface.c:1059 UCX  ERROR ibv_create_cq(cqe=256) failed: Connection timed out
[1741391275.515458] [ohm:1244311:0]        ib_iface.c:1059 UCX  ERROR ibv_create_cq(cqe=256) failed: Connection timed out
[1741391275.516677] [ohm:1244318:0]        ib_iface.c:1059 UCX  ERROR ibv_create_cq(cqe=256) failed: Connection timed out
[1741391275.518134] [ohm:1244337:0]        ib_iface.c:1059 UCX  ERROR ibv_create_cq(cqe=256) failed: Connection timed out
[1741391275.523314] [ohm:1244304:0]        ib_iface.c:1059 UCX  ERROR ibv_create_cq(cqe=256) failed: Connection timed out
[1741391275.523699] [ohm:1244419:0]        ib_iface.c:1059 UCX  ERROR ibv_create_cq(cqe=256) failed: Connection timed out
[1741391275.525846] [ohm:1244402:0]        ib_iface.c:1059 UCX  ERROR ibv_create_cq(cqe=256) failed: Connection timed out
[1741391275.526451] [ohm:1244387:0]        ib_iface.c:1059 UCX  ERROR ibv_create_cq(cqe=256) failed: Connection timed out
[1741391275.530380] [ohm:1244300:0]        ib_iface.c:1059 UCX  ERROR ibv_create_cq(cqe=256) failed: Connection timed out
[1741391275.530576] [ohm:1244362:0]        ib_iface.c:1059 UCX  ERROR ibv_create_cq(cqe=256) failed: Connection timed out
[1741391275.531024] [ohm:1244330:0]        ib_iface.c:1059 UCX  ERROR ibv_create_cq(cqe=256) failed: Connection timed out
[1741391275.531967] [ohm:1244323:0]        ib_iface.c:1059 UCX  ERROR ibv_create_cq(cqe=256) failed: Connection timed out
[1741391275.533026] [ohm:1244408:0]        ib_iface.c:1059 UCX  ERROR ibv_create_cq(cqe=256) failed: Connection timed out
[1741391275.535283] [ohm:1244339:0]        ib_iface.c:1059 UCX  ERROR ibv_create_cq(cqe=256) failed: Connection timed out
[1741391275.536521] [ohm:1244307:0]        ib_iface.c:1059 UCX  ERROR ibv_create_cq(cqe=256) failed: Connection timed out
[1741391275.537166] [ohm:1244336:0]        ib_iface.c:1059 UCX  ERROR ibv_create_cq(cqe=256) failed: Connection timed out
[1741391275.537476] [ohm:1244284:0]        ib_iface.c:1059 UCX  ERROR ibv_create_cq(cqe=256) failed: Connection timed out
[1741391275.539449] [ohm:1244382:0]        ib_iface.c:1059 UCX  ERROR ibv_create_cq(cqe=256) failed: Connection timed out


           ************************************************************
           *        Program running with 64 parallel MPI-processes    *
           *              working on a common directory               *
           ************************************************************
-------------------------------------------------------------------------------
                                 ORCA GUESS
                   Start orbitals & Density for SCF / CASSCF
-------------------------------------------------------------------------------

------------
SCF SETTINGS
------------
Hamiltonian:
 Density Functional     Method          .... DFT(GTOs)
  Functional kind                       .... Exchange-Correlation
  Functional name                       .... wB97M-V exchange-correlation functional
  Functional family                     .... Hybrid MGGA
  Functional refs                              
    [ 0] N. Mardirossian and M. Head-Gordon.,  J. Chem. Phys. 144, 214110 (2016), doi: 10.1063/1.4952647
  Fraction of HF Exchange (short range) .... 0.1500
  Fraction of HF Exchange (long range)  .... 1.0000
  Range separation parameter mu         .... 0.3000
  Functional external parameters        .... 17
    Parameter  0 _cx00      =  8.500000e-01 : u^00 coefficient for exchange
    Parameter  1 _cx01      =  1.007000e+00 : u^01 coefficient for exchange
    Parameter  2 _cx10      =  2.590000e-01 : u^10 coefficient for exchange
    Parameter  3 _css00     =  4.430000e-01 : u^00 coefficient for same-spin correlation
    Parameter  4 _css04     = -1.437000e+00 : u^04 coefficient for same-spin correlation
    Parameter  5 _css10     = -4.535000e+00 : u^10 coefficient for same-spin correlation
    Parameter  6 _css20     = -3.390000e+00 : u^20 coefficient for same-spin correlation
    Parameter  7 _css43     =  4.278000e+00 : u^43 coefficient for same-spin correlation
    Parameter  8 _cos00     =  1.000000e+00 : u^00 coefficient for opposite-spin correlation
    Parameter  9 _cos10     =  1.358000e+00 : u^10 coefficient for opposite-spin correlation
    Parameter 10 _cos20     =  2.924000e+00 : u^20 coefficient for opposite-spin correlation
    Parameter 11 _cos21     = -8.812000e+00 : u^21 coefficient for opposite-spin correlation
    Parameter 12 _cos60     = -1.390000e+00 : u^60 coefficient for opposite-spin correlation
    Parameter 13 _cos61     =  9.142000e+00 : u^61 coefficient for opposite-spin correlation
    Parameter 14 _alpha     =  1.000000e+00 : fraction of HF exchange
    Parameter 15 _beta      = -8.500000e-01 : fraction of short-range exchange
    Parameter 16 _omega     =  3.000000e-01 : range-separation constant
 Long-range corrected/Screened/Range-Separated Hybrid DFT is turned on
   Amount of maximum screened exact exchange              ....  0.850000
   Range separation parameter mu (erf(mu*r12)/r12)        ....  0.300000
 RI-approximation to the Coulomb term is turned on
   Number of AuxJ basis functions       .... 1014
   RIJ-COSX (HFX calculated with COS-X)).... on


General Settings:
 Integral files         IntName         .... orca
 Hartree-Fock type      HFTyp           .... UHF
 Total Charge           Charge          ....    0
 Multiplicity           Mult            ....    3
 Number of Electrons    NEL             ....  132
 Basis Dimension        Dim             ....  882
 Nuclear Repulsion      ENuc            ....   1453.9928864448 Eh

Convergence Acceleration:
 AO-DIIS                CNVDIIS         .... on
   Start iteration      DIISMaxIt       ....    12
   Startup error        DIISStart       ....  0.200000
   # of expansion vecs  DIISMaxEq       ....     5
   Bias factor          DIISBfac        ....   1.050
   Max. coefficient     DIISMaxC        ....  10.000
 MO-DIIS                CNVKDIIS        .... off
 Trust-Rad. Augm. Hess. CNVTRAH         .... auto
   Auto Start mean grad. ratio tolernc. ....  1.125000
   Auto Start start iteration           ....    50
   Auto Start num. interpolation iter.  ....    10
   Max. Number of Micro iterations      ....    24
   Max. Number of Macro iterations      .... Maxiter - #DIIS iter
   Number of Davidson start vectors     ....     2
   Converg. threshold    (grad. norm)   ....   1.000e-05
   Grad. Scal. Fac. for Micro threshold ....   0.100
   Minimum threshold for Micro iter.    ....   1.000e-02
   NR start threshold (gradient norm)   ....   1.000e-04
   Initial trust radius                 ....   0.400
   Minimum AH scaling param. (alpha)    ....   1.000
   Maximum AH scaling param. (alpha)    .... 1000.000
   Quad. conv. algorithm                .... NR
   White noise on init. David. guess    .... on
   Maximum white noise                  ....   0.010
   Pseudo random numbers                .... off
   Inactive MOs                         .... canonical
   Orbital update algorithm             .... Taylor
   Preconditioner                       .... Diag
   Full preconditioner red. dimension   ....   250
 SOSCF                  CNVSOSCF        .... on
   Start iteration      SOSCFMaxIt      ....   150
   Startup grad/error   SOSCFStart      ....  0.003300
   Hessian update       SOSCFHessUp     .... L-BFGS
 Level Shifting         CNVShift        .... on
   Level shift para.    LevelShift      ....    0.2500
   Turn off err/grad.   ShiftErr        ....    0.0010
 Zerner damping         CNVZerner       .... off
 Static damping         CNVDamp         .... on
   Fraction old density DampFac         ....    0.7000
   Max. Damping (<1)    DampMax         ....    0.9800
   Min. Damping (>=0)   DampMin         ....    0.0000
   Turn off err/grad.   DampErr         ....    0.1000

SCF Procedure:
 Maximum # iterations   MaxIter         ....   125
 SCF integral mode      SCFMode         .... Direct
   Integral package                     .... SHARK and LIBINT hybrid scheme
 Reset frequency        DirectResetFreq ....    20
 Integral Threshold     Thresh          ....  1.000e-12 Eh
 Primitive CutOff       TCut            ....  1.000e-13 Eh

Convergence Tolerance:
 Convergence Check Mode ConvCheckMode   .... Total+1el-Energy
 Convergence forced     ConvForced      .... 1
 Energy Change          TolE            ....  1.000e-08 Eh
 1-El. energy change                    ....  1.000e-05 Eh
 Orbital Gradient       TolG            ....  1.000e-05
 Orbital Rotation angle TolX            ....  1.000e-05
 DIIS Error             TolErr          ....  5.000e-07

------------------------------
INITIAL GUESS: MODEL POTENTIAL
------------------------------
Loading Hartree-Fock densities                     ... done
Calculating cut-offs                               ... done
Initializing the effective Hamiltonian             ... done
Setting up the integral package (SHARK)            ... done
Starting the Coulomb interaction                   ... done (   0.1 sec)
Making the grid                                    ... done (   0.2 sec)
Mapping shells                                     ... done
Starting the XC term evaluation                    ... done (   0.1 sec)
  promolecular density results
     # of electrons  =    131.987283455
     EX              =   -113.616341376
     EC              =     -4.504695182
     EX+EC           =   -118.121036558
Transforming the Hamiltonian                       ... done (   0.1 sec)
Diagonalizing the Hamiltonian                      ... done (   0.1 sec)
Back transforming the eigenvectors                 ... done (   0.1 sec)
Now organizing SCF variables                       ... done
                      ------------------
                      INITIAL GUESS DONE (   1.1 sec)
                      ------------------
             **** ENERGY FILE WAS UPDATED (orca.en.tmp) ****
Finished Guess after   3.4 sec
Maximum memory used throughout the entire GUESS-calculation: 72.7 MB
[1741391279.331702] [ohm:1244619:0]        ib_iface.c:1059 UCX  ERROR ibv_create_cq(cqe=256) failed: Connection timed out
[1741391279.331936] [ohm:1244622:0]        ib_iface.c:1059 UCX  ERROR ibv_create_cq(cqe=256) failed: Connection timed out
[1741391279.380291] [ohm:1244621:0]        ib_iface.c:1059 UCX  ERROR ibv_create_cq(cqe=256) failed: Connection timed out
[1741391279.383451] [ohm:1244628:0]        ib_iface.c:1059 UCX  ERROR ibv_create_cq(cqe=256) failed: Connection timed out
[1741391279.386383] [ohm:1244624:0]        ib_iface.c:1059 UCX  ERROR ibv_create_cq(cqe=256) failed: Connection timed out
[1741391279.386615] [ohm:1244625:0]        ib_iface.c:1059 UCX  ERROR ibv_create_cq(cqe=256) failed: Connection timed out
[1741391279.398088] [ohm:1244620:0]        ib_iface.c:1059 UCX  ERROR ibv_create_cq(cqe=256) failed: Connection timed out
[1741391279.403189] [ohm:1244630:0]        ib_iface.c:1059 UCX  ERROR ibv_create_cq(cqe=256) failed: Connection timed out
[1741391279.403841] [ohm:1244633:0]        ib_iface.c:1059 UCX  ERROR ibv_create_cq(cqe=256) failed: Connection timed out
[1741391279.446410] [ohm:1244706:0]        ib_iface.c:1059 UCX  ERROR ibv_create_cq(cqe=256) failed: Connection timed out
[1741391279.450111] [ohm:1244631:0]        ib_iface.c:1059 UCX  ERROR ibv_create_cq(cqe=256) failed: Connection timed out
[1741391279.459394] [ohm:1244629:0]        ib_iface.c:1059 UCX  ERROR ibv_create_cq(cqe=256) failed: Connection timed out
[1741391279.464594] [ohm:1244627:0]        ib_iface.c:1059 UCX  ERROR ibv_create_cq(cqe=256) failed: Connection timed out
[1741391279.473644] [ohm:1244623:0]        ib_iface.c:1059 UCX  ERROR ibv_create_cq(cqe=256) failed: Connection timed out
[1741391279.475810] [ohm:1244639:0]        ib_iface.c:1059 UCX  ERROR ibv_create_cq(cqe=256) failed: Connection timed out
[1741391279.482496] [ohm:1244640:0]        ib_iface.c:1059 UCX  ERROR ibv_create_cq(cqe=256) failed: Connection timed out
[1741391279.485281] [ohm:1244642:0]        ib_iface.c:1059 UCX  ERROR ibv_create_cq(cqe=256) failed: Connection timed out
[1741391279.488325] [ohm:1244632:0]        ib_iface.c:1059 UCX  ERROR ibv_create_cq(cqe=256) failed: Connection timed out
[1741391279.493244] [ohm:1244638:0]        ib_iface.c:1059 UCX  ERROR ibv_create_cq(cqe=256) failed: Connection timed out
[1741391279.494055] [ohm:1244636:0]        ib_iface.c:1059 UCX  ERROR ibv_create_cq(cqe=256) failed: Connection timed out
[1741391279.494059] [ohm:1244637:0]        ib_iface.c:1059 UCX  ERROR ibv_create_cq(cqe=256) failed: Connection timed out
[1741391279.505788] [ohm:1244643:0]        ib_iface.c:1059 UCX  ERROR ibv_create_cq(cqe=256) failed: Connection timed out
[1741391279.519356] [ohm:1244712:0]        ib_iface.c:1059 UCX  ERROR ibv_create_cq(cqe=256) failed: Connection timed out
[1741391279.557076] [ohm:1244656:0]        ib_iface.c:1059 UCX  ERROR ibv_create_cq(cqe=256) failed: Connection timed out
[1741391279.564810] [ohm:1244646:0]        ib_iface.c:1059 UCX  ERROR ibv_create_cq(cqe=256) failed: Connection timed out
[1741391279.571644] [ohm:1244626:0]        ib_iface.c:1059 UCX  ERROR ibv_create_cq(cqe=256) failed: Connection timed out
[1741391279.574370] [ohm:1244717:0]        ib_iface.c:1059 UCX  ERROR ibv_create_cq(cqe=256) failed: Connection timed out
[1741391279.584024] [ohm:1244727:0]        ib_iface.c:1059 UCX  ERROR ibv_create_cq(cqe=256) failed: Connection timed out
[1741391279.586418] [ohm:1244634:0]        ib_iface.c:1059 UCX  ERROR ibv_create_cq(cqe=256) failed: Connection timed out
[1741391279.587897] [ohm:1244719:0]        ib_iface.c:1059 UCX  ERROR ibv_create_cq(cqe=256) failed: Connection timed out
[1741391279.596111] [ohm:1244761:0]        ib_iface.c:1059 UCX  ERROR ibv_create_cq(cqe=256) failed: Connection timed out
[1741391279.598587] [ohm:1244742:0]        ib_iface.c:1059 UCX  ERROR ibv_create_cq(cqe=256) failed: Connection timed out
[1741391279.599020] [ohm:1244704:0]        ib_iface.c:1059 UCX  ERROR ibv_create_cq(cqe=256) failed: Connection timed out
[1741391279.599019] [ohm:1244764:0]        ib_iface.c:1059 UCX  ERROR ibv_create_cq(cqe=256) failed: Connection timed out
[1741391279.601136] [ohm:1244645:0]        ib_iface.c:1059 UCX  ERROR ibv_create_cq(cqe=256) failed: Connection timed out
[1741391279.606029] [ohm:1244750:0]        ib_iface.c:1059 UCX  ERROR ibv_create_cq(cqe=256) failed: Connection timed out
[1741391279.607967] [ohm:1244648:0]        ib_iface.c:1059 UCX  ERROR ibv_create_cq(cqe=256) failed: Connection timed out
[1741391279.609894] [ohm:1244672:0]        ib_iface.c:1059 UCX  ERROR ibv_create_cq(cqe=256) failed: Connection timed out
[1741391279.617867] [ohm:1244755:0]        ib_iface.c:1059 UCX  ERROR ibv_create_cq(cqe=256) failed: Connection timed out
[1741391279.632806] [ohm:1244738:0]        ib_iface.c:1059 UCX  ERROR ibv_create_cq(cqe=256) failed: Connection timed out
[1741391279.643791] [ohm:1244732:0]        ib_iface.c:1059 UCX  ERROR ibv_create_cq(cqe=256) failed: Connection timed out
[1741391279.644567] [ohm:1244693:0]        ib_iface.c:1059 UCX  ERROR ibv_create_cq(cqe=256) failed: Connection timed out
[1741391279.647232] [ohm:1244713:0]        ib_iface.c:1059 UCX  ERROR ibv_create_cq(cqe=256) failed: Connection timed out
[1741391279.651348] [ohm:1244647:0]        ib_iface.c:1059 UCX  ERROR ibv_create_cq(cqe=256) failed: Connection timed out
[1741391279.655066] [ohm:1244734:0]        ib_iface.c:1059 UCX  ERROR ibv_create_cq(cqe=256) failed: Connection timed out
[1741391279.659046] [ohm:1244722:0]        ib_iface.c:1059 UCX  ERROR ibv_create_cq(cqe=256) failed: Connection timed out
[1741391279.660796] [ohm:1244758:0]        ib_iface.c:1059 UCX  ERROR ibv_create_cq(cqe=256) failed: Connection timed out
[1741391279.663460] [ohm:1244668:0]        ib_iface.c:1059 UCX  ERROR ibv_create_cq(cqe=256) failed: Connection timed out
[1741391279.666552] [ohm:1244724:0]        ib_iface.c:1059 UCX  ERROR ibv_create_cq(cqe=256) failed: Connection timed out
[1741391279.667867] [ohm:1244641:0]        ib_iface.c:1059 UCX  ERROR ibv_create_cq(cqe=256) failed: Connection timed out
[1741391279.669896] [ohm:1244696:0]        ib_iface.c:1059 UCX  ERROR ibv_create_cq(cqe=256) failed: Connection timed out
[1741391279.671954] [ohm:1244699:0]        ib_iface.c:1059 UCX  ERROR ibv_create_cq(cqe=256) failed: Connection timed out
[1741391279.674029] [ohm:1244678:0]        ib_iface.c:1059 UCX  ERROR ibv_create_cq(cqe=256) failed: Connection timed out
[1741391279.684162] [ohm:1244665:0]        ib_iface.c:1059 UCX  ERROR ibv_create_cq(cqe=256) failed: Connection timed out
[1741391279.685823] [ohm:1244659:0]        ib_iface.c:1059 UCX  ERROR ibv_create_cq(cqe=256) failed: Connection timed out
[1741391279.686435] [ohm:1244635:0]        ib_iface.c:1059 UCX  ERROR ibv_create_cq(cqe=256) failed: Connection timed out
[1741391279.691133] [ohm:1244689:0]        ib_iface.c:1059 UCX  ERROR ibv_create_cq(cqe=256) failed: Connection timed out
[1741391279.693071] [ohm:1244748:0]        ib_iface.c:1059 UCX  ERROR ibv_create_cq(cqe=256) failed: Connection timed out
[1741391279.693887] [ohm:1244644:0]        ib_iface.c:1059 UCX  ERROR ibv_create_cq(cqe=256) failed: Connection timed out
[1741391279.693902] [ohm:1244684:0]        ib_iface.c:1059 UCX  ERROR ibv_create_cq(cqe=256) failed: Connection timed out
[1741391279.694593] [ohm:1244683:0]        ib_iface.c:1059 UCX  ERROR ibv_create_cq(cqe=256) failed: Connection timed out
[1741391279.695636] [ohm:1244651:0]        ib_iface.c:1059 UCX  ERROR ibv_create_cq(cqe=256) failed: Connection timed out
[1741391279.696325] [ohm:1244676:0]        ib_iface.c:1059 UCX  ERROR ibv_create_cq(cqe=256) failed: Connection timed out
[1741391279.697112] [ohm:1244741:0]        ib_iface.c:1059 UCX  ERROR ibv_create_cq(cqe=256) failed: Connection timed out


           ************************************************************
           *        Program running with 64 parallel MPI-processes    *
           *              working on a common directory               *
           ************************************************************

-------------------------------------------------------------------------------------------
                                      ORCA LEAN-SCF
                              memory conserving SCF solver
-------------------------------------------------------------------------------------------

----------------------------------------D-I-I-S--------------------------------------------
Iteration    Energy (Eh)           Delta-E    RMSDP     MaxDP     DIISErr   Damp  Time(sec)
-------------------------------------------------------------------------------------------
               ***  Starting incremental Fock matrix formation  ***
    1    -908.1152653121300773     0.00e+00  1.65e-03  2.89e-01  1.49e-01  0.700   7.9
    2    -908.3834033400064527    -2.68e-01  1.32e-03  2.12e-01  7.20e-02  0.700   6.6
                               ***Turning on AO-DIIS***
    3    -908.5032773078003174    -1.20e-01  9.14e-04  1.48e-01  3.07e-02  0.700   5.8
    4    -908.5765402822009946    -7.33e-02  2.17e-03  3.42e-01  2.06e-02  0.000   5.7
    5    -908.7406705947225873    -1.64e-01  3.18e-04  8.24e-02  5.47e-03  0.000   5.8
                              *** Initializing SOSCF ***
---------------------------------------S-O-S-C-F--------------------------------------
Iteration    Energy (Eh)           Delta-E    RMSDP     MaxDP     MaxGrad    Time(sec)
--------------------------------------------------------------------------------------
    6    -908.7419584086753730    -1.29e-03  1.46e-04  4.89e-02  2.77e-03     6.5
               *** Restarting incremental Fock matrix formation ***
    7    -908.7425196966457861    -5.61e-04  3.93e-04  5.42e-02  5.66e-03     7.5
    8    -908.7429077236531612    -3.88e-04  3.14e-04  6.52e-02  3.11e-03     6.8
    9    -908.7430371260409174    -1.29e-04  2.10e-04  3.17e-02  1.03e-03     6.8
   10    -908.7431073664763517    -7.02e-05  3.12e-05  8.08e-03  4.28e-04     6.6
   11    -908.7431151944845169    -7.83e-06  1.12e-05  1.91e-03  1.43e-04     6.4
   12    -908.7431165049431456    -1.31e-06  7.10e-06  2.17e-03  9.49e-05     6.2
   13    -908.7431171485779942    -6.44e-07  5.10e-06  6.64e-04  3.22e-05     6.1
   14    -908.7431172557764967    -1.07e-07  1.54e-06  3.83e-04  2.88e-05     6.0
   15    -908.7431172897893248    -3.40e-08  1.67e-06  2.28e-04  1.36e-05     5.8
   16    -908.7431173269717419    -3.72e-08  1.53e-06  3.13e-04  3.91e-06     5.6
   17    -908.7431173075476636     1.94e-08  1.78e-06  4.70e-04  2.80e-06     5.5
   18    -908.7431173211855366    -1.36e-08  1.90e-06  4.23e-04  8.24e-07     5.5
                  *** Gradient check signals convergence ***

               *****************************************************
               *                     SUCCESS                       *
               *           SCF CONVERGED AFTER  18 CYCLES          *
               *****************************************************

Recomputing exchange energy using gridx3       ... done (    8.027 sec)
Old exchange energy                            :    -35.064663854 Eh
New exchange energy                            :    -35.064639629 Eh
Exchange energy change after final integration :      0.000024226 Eh
Total energy after final integration           :   -908.743093096 Eh
             **** ENERGY FILE WAS UPDATED (orca.en.tmp) ****

----------------
TOTAL SCF ENERGY
----------------

Total Energy       :       -908.74309309566797 Eh          -24728.15672 eV

Components:
Nuclear Repulsion  :       1453.99288644475450 Eh           39565.15789 eV
Electronic Energy  :      -2362.73600376594004 Eh          -64293.31527 eV
One Electron Energy:      -4124.93201039611267 Eh         -112245.10643 eV
Two Electron Energy:       1762.19600663017263 Eh           47951.79116 eV

Virial components:
Potential Energy   :      -1815.05873855402047 Eh          -49390.25923 eV
Kinetic Energy     :        906.31564545835249 Eh           24662.10251 eV
Virial Ratio       :          2.00267836889883

DFT components:
N(Alpha)           :       67.000061150899 electrons
N(Beta)            :       65.000071486144 electrons
N(Total)           :      132.000132637043 electrons
E(XC)              :      -86.363757703619 Eh       

---------------
SCF CONVERGENCE
---------------

  Last Energy change         ...    1.3638e-08  Tolerance :   1.0000e-08
  Last MAX-Density change    ...    4.2327e-04  Tolerance :   1.0000e-07
  Last RMS-Density change    ...    1.9015e-06  Tolerance :   5.0000e-09
  Last DIIS Error            ...    2.7738e-03  Tolerance :   5.0000e-07
  Last Orbital Gradient      ...    8.2375e-07  Tolerance :   1.0000e-05
  Last Orbital Rotation      ...    6.5176e-06  Tolerance :   1.0000e-05


----------------------
UHF SPIN CONTAMINATION
----------------------

Warning: in a DFT calculation there is little theoretical justification to 
         calculate <S**2> as in Hartree-Fock theory. We will do it anyways
         but you should keep in mind that the values have only limited relevance

Expectation value of <S**2>     :     2.011407
Ideal value S*(S+1) for S=1.0   :     2.000000
Deviation                       :     0.011407

----------------
ORBITAL ENERGIES
----------------
                 SPIN UP ORBITALS
  NO   OCC          E(Eh)            E(eV) 
   0   1.0000     -19.337660      -526.2045 
   1   1.0000     -19.333926      -526.1029 
   2   1.0000     -19.322260      -525.7854 
   3   1.0000     -19.320006      -525.7241 
   4   1.0000     -14.559034      -396.1715 
   5   1.0000     -14.558673      -396.1616 
   6   1.0000     -14.554328      -396.0434 
   7   1.0000     -14.546287      -395.8246 
   8   1.0000     -10.505728      -285.8754 
   9   1.0000     -10.504919      -285.8534 
  10   1.0000     -10.481500      -285.2161 
  11   1.0000     -10.480896      -285.1997 
  12   1.0000     -10.442801      -284.1631 
  13   1.0000     -10.440278      -284.0944 
  14   1.0000     -10.416106      -283.4367 
  15   1.0000     -10.413662      -283.3702 
  16   1.0000     -10.376683      -282.3639 
  17   1.0000     -10.370042      -282.1832 
  18   1.0000      -1.232617       -33.5412 
  19   1.0000      -1.229613       -33.4595 
  20   1.0000      -1.209030       -32.8994 
  21   1.0000      -1.194795       -32.5120 
  22   1.0000      -1.119706       -30.4688 
  23   1.0000      -1.096128       -29.8272 
  24   1.0000      -1.073698       -29.2168 
  25   1.0000      -1.052122       -28.6297 
  26   1.0000      -0.984894       -26.8003 
  27   1.0000      -0.960787       -26.1443 
  28   1.0000      -0.885548       -24.0970 
  29   1.0000      -0.842614       -22.9287 
  30   1.0000      -0.827904       -22.5284 
  31   1.0000      -0.807394       -21.9703 
  32   1.0000      -0.786556       -21.4033 
  33   1.0000      -0.771342       -20.9893 
  34   1.0000      -0.702492       -19.1158 
  35   1.0000      -0.693144       -18.8614 
  36   1.0000      -0.688775       -18.7425 
  37   1.0000      -0.678257       -18.4563 
  38   1.0000      -0.659167       -17.9369 
  39   1.0000      -0.648980       -17.6596 
  40   1.0000      -0.625795       -17.0287 
  41   1.0000      -0.604436       -16.4475 
  42   1.0000      -0.593749       -16.1567 
  43   1.0000      -0.589213       -16.0333 
  44   1.0000      -0.582652       -15.8548 
  45   1.0000      -0.572763       -15.5857 
  46   1.0000      -0.567457       -15.4413 
  47   1.0000      -0.564309       -15.3556 
  48   1.0000      -0.562320       -15.3015 
  49   1.0000      -0.556415       -15.1408 
  50   1.0000      -0.548928       -14.9371 
  51   1.0000      -0.539628       -14.6840 
  52   1.0000      -0.537125       -14.6159 
  53   1.0000      -0.527545       -14.3552 
  54   1.0000      -0.519478       -14.1357 
  55   1.0000      -0.509624       -13.8676 
  56   1.0000      -0.492118       -13.3912 
  57   1.0000      -0.428954       -11.6724 
  58   1.0000      -0.423825       -11.5329 
  59   1.0000      -0.411999       -11.2111 
  60   1.0000      -0.405306       -11.0289 
  61   1.0000      -0.397423       -10.8144 
  62   1.0000      -0.394200       -10.7267 
  63   1.0000      -0.390850       -10.6356 
  64   1.0000      -0.377255       -10.2656 
  65   1.0000      -0.338807        -9.2194 
  66   1.0000      -0.326528        -8.8853 
  67   0.0000       0.007690         0.2093 
  68   0.0000       0.030762         0.8371 
  69   0.0000       0.031645         0.8611 
  70   0.0000       0.036496         0.9931 
  71   0.0000       0.054835         1.4921 
  72   0.0000       0.057356         1.5607 
  73   0.0000       0.062427         1.6987 
  74   0.0000       0.063184         1.7193 
  75   0.0000       0.064560         1.7568 
  76   0.0000       0.074315         2.0222 
  77   0.0000       0.080876         2.2007 

                 SPIN DOWN ORBITALS
  NO   OCC          E(Eh)            E(eV) 
   0   1.0000     -19.333972      -526.1041 
   1   1.0000     -19.330172      -526.0007 
   2   1.0000     -19.322126      -525.7818 
   3   1.0000     -19.319737      -525.7168 
   4   1.0000     -14.558382      -396.1537 
   5   1.0000     -14.558090      -396.1458 
   6   1.0000     -14.553920      -396.0323 
   7   1.0000     -14.546018      -395.8173 
   8   1.0000     -10.505747      -285.8759 
   9   1.0000     -10.504965      -285.8546 
  10   1.0000     -10.482388      -285.2403 
  11   1.0000     -10.481801      -285.2243 
  12   1.0000     -10.442271      -284.1486 
  13   1.0000     -10.439973      -284.0861 
  14   1.0000     -10.404709      -283.1265 
  15   1.0000     -10.402531      -283.0673 
  16   1.0000     -10.377314      -282.3811 
  17   1.0000     -10.370609      -282.1986 
  18   1.0000      -1.229769       -33.4637 
  19   1.0000      -1.224959       -33.3328 
  20   1.0000      -1.206004       -32.8170 
  21   1.0000      -1.193559       -32.4784 
  22   1.0000      -1.116637       -30.3852 
  23   1.0000      -1.093607       -29.7586 
  24   1.0000      -1.071789       -29.1649 
  25   1.0000      -1.050484       -28.5851 
  26   1.0000      -0.971394       -26.4330 
  27   1.0000      -0.944343       -25.6969 
  28   1.0000      -0.880892       -23.9703 
  29   1.0000      -0.836209       -22.7544 
  30   1.0000      -0.819978       -22.3127 
  31   1.0000      -0.801408       -21.8074 
  32   1.0000      -0.785078       -21.3631 
  33   1.0000      -0.769815       -20.9477 
  34   1.0000      -0.696374       -18.9493 
  35   1.0000      -0.687989       -18.7211 
  36   1.0000      -0.681972       -18.5574 
  37   1.0000      -0.672616       -18.3028 
  38   1.0000      -0.647911       -17.6305 
  39   1.0000      -0.642131       -17.4733 
  40   1.0000      -0.619870       -16.8675 
  41   1.0000      -0.599879       -16.3235 
  42   1.0000      -0.588985       -16.0271 
  43   1.0000      -0.580702       -15.8017 
  44   1.0000      -0.573596       -15.6083 
  45   1.0000      -0.566911       -15.4264 
  46   1.0000      -0.562234       -15.2992 
  47   1.0000      -0.559951       -15.2370 
  48   1.0000      -0.554463       -15.0877 
  49   1.0000      -0.551276       -15.0010 
  50   1.0000      -0.537370       -14.6226 
  51   1.0000      -0.533162       -14.5081 
  52   1.0000      -0.528815       -14.3898 
  53   1.0000      -0.518850       -14.1186 
  54   1.0000      -0.511203       -13.9106 
  55   1.0000      -0.502793       -13.6817 
  56   1.0000      -0.487324       -13.2608 
  57   1.0000      -0.423825       -11.5329 
  58   1.0000      -0.420110       -11.4318 
  59   1.0000      -0.403899       -10.9906 
  60   1.0000      -0.394805       -10.7432 
  61   1.0000      -0.390621       -10.6293 
  62   1.0000      -0.387845       -10.5538 
  63   1.0000      -0.387148       -10.5348 
  64   1.0000      -0.364369        -9.9150 
  65   0.0000      -0.057825        -1.5735 
  66   0.0000      -0.055229        -1.5029 
  67   0.0000       0.007084         0.1928 
  68   0.0000       0.030180         0.8212 
  69   0.0000       0.031360         0.8533 
  70   0.0000       0.036394         0.9903 
  71   0.0000       0.054732         1.4893 
  72   0.0000       0.057443         1.5631 
  73   0.0000       0.062090         1.6895 
  74   0.0000       0.063297         1.7224 
  75   0.0000       0.064808         1.7635 
*Only the first 10 virtual orbitals were printed.

                    ********************************
                    * MULLIKEN POPULATION ANALYSIS *
                    ********************************

--------------------------------------------
MULLIKEN ATOMIC CHARGES AND SPIN POPULATIONS
--------------------------------------------
   0 O :   -0.663428    0.137043
   1 O :   -0.620413    0.134473
   2 O :   -0.634610    0.005173
   3 O :   -0.666788    0.008840
   4 N :   -0.295627    0.022255
   5 N :   -0.278678    0.028220
   6 N :    0.095150    0.030936
   7 N :    0.131412    0.018387
   8 C :   -0.330523    0.470981
   9 C :   -0.025705    0.432506
  10 C :    0.423537    0.097185
  11 C :    0.508061    0.130709
  12 C :   -1.477156    0.020108
  13 C :   -1.324433    0.028116
  14 C :    0.968968    0.178108
  15 C :    0.458226    0.150691
  16 C :    0.360186   -0.016828
  17 C :    0.316669   -0.003024
  18 H :    0.494570   -0.003513
  19 H :    0.605440    0.013323
  20 H :    0.287525    0.007017
  21 H :    0.355027    0.018345
  22 H :    0.426986    0.021407
  23 H :    0.296004    0.007921
  24 H :    0.322994    0.032013
  25 H :    0.191200    0.028275
  26 H :   -0.045075   -0.000123
  27 H :    0.086112    0.002981
  28 H :   -0.015264   -0.000342
  29 H :    0.049633   -0.001181
Sum of atomic charges         :   -0.0000000
Sum of atomic spin populations:    2.0000000

-----------------------------------------------------
MULLIKEN REDUCED ORBITAL CHARGES AND SPIN POPULATIONS
-----------------------------------------------------
CHARGE
  0 O s       :     4.090087  s :     4.090087
      pz      :     1.437536  p :     4.540753
      px      :     1.639817
      py      :     1.463400
      dz2     :     0.006455  d :     0.030590
      dxz     :     0.008245
      dyz     :     0.011148
      dx2y2   :     0.002336
      dxy     :     0.002406
      f0      :     0.000421  f :     0.001998
[...]
[1741391568.895715] [ohm:1247154:0]        ib_iface.c:1059 UCX  ERROR ibv_create_cq(cqe=256) failed: Connection timed out
[1741391568.898187] [ohm:1247191:0]        ib_iface.c:1059 UCX  ERROR ibv_create_cq(cqe=256) failed: Connection timed out
[1741391568.898208] [ohm:1247227:0]        ib_iface.c:1059 UCX  ERROR ibv_create_cq(cqe=256) failed: Connection timed out
[1741391568.898819] [ohm:1247224:0]        ib_iface.c:1059 UCX  ERROR ibv_create_cq(cqe=256) failed: Connection timed out
[1741391568.898848] [ohm:1247199:0]        ib_iface.c:1059 UCX  ERROR ibv_create_cq(cqe=256) failed: Connection timed out
[1741391568.898904] [ohm:1247134:0]        ib_iface.c:1059 UCX  ERROR ibv_create_cq(cqe=256) failed: Connection timed out
[1741391568.900663] [ohm:1247132:0]        ib_iface.c:1059 UCX  ERROR ibv_create_cq(cqe=256) failed: Connection timed out
[1741391568.902132] [ohm:1247219:0]        ib_iface.c:1059 UCX  ERROR ibv_create_cq(cqe=256) failed: Connection timed out
[1741391568.904571] [ohm:1247106:0]        ib_iface.c:1059 UCX  ERROR ibv_create_cq(cqe=256) failed: Connection timed out
[1741391568.904680] [ohm:1247109:0]        ib_iface.c:1059 UCX  ERROR ibv_create_cq(cqe=256) failed: Connection timed out


           ************************************************************
           *        Program running with 64 parallel MPI-processes    *
           *              working on a common directory               *
           ************************************************************

------------------------------------------------------------------------------
                              ORCA PROPERTY CALCULATIONS
------------------------------------------------------------------------------

GBWName                                 ... orca.gbw
Number of atoms                         ...     30
Number of basis functions               ...    882
Max core memory                         ...   1024 MB

Electric properties:
Dipole moment                           ... YES
Quadrupole moment                       ...  NO
Static polarizability (Dipole/Dipole)   ...  NO
Static polarizability (Dipole/Quad.)    ...  NO
Static polarizability (Quad./Quad.)     ...  NO
Static polarizability (Velocity)        ...  NO

Atomic electric properties:
Dipole moment                           ...  NO
Quadrupole moment                       ...  NO
Static polarizability                   ...  NO

Choice of electric origin               ... Center of mass
Position of electric origin             ...    -0.012657    -0.084817    -0.043081

General magnetic properties:
Magnetizability                         ...  NO

EPR properties:
g-Tensor (aka g-matrix)                 ...  NO
Zero-Field splitting spin-orbit         ...  NO
Zero-field splitting spin-spin          ...  NO
Hyperfine couplings                     ...  NO (   0 nuclei)
Quadrupole couplings                    ...  NO (   0 nuclei)
Contact density                         ...  NO (   0 nuclei)

NMR properties:
Chemical shifts                         ...  NO (   0 nuclei)
Spin-rotation constants                 ...  NO (   0 nuclei)
Spin-spin couplings                     ...  NO (   0 nuclei,    0 pairs)

Choice of magnetic origin               ... GIAO
Position of magnetic origin             ...     0.000000     0.000000     0.000000

Properties with geometric perturbations:
SCF Hessian                             ...  NO
IR spectrum                             ...  NO
VCD spectrum                            ...  NO
X-ray spectroscopy properties:
SCF XES/XAS/RIXS spectra                ...  NO


-------------
DIPOLE MOMENT
-------------

Method             : SCF
Type of density    : Electron Density
Multiplicity       :   3
Irrep              :   0
Energy             :  -908.7430930956679731 Eh
Relativity type    : 
Basis              : AO
                                X                 Y                 Z
Electronic contribution:    -11.033466357      -5.004679077      -2.690775882
Nuclear contribution   :     13.276541972       5.690676772       4.217334649
                        -----------------------------------------
Total Dipole Moment    :      2.243075615       0.685997695       1.526558767
                        -----------------------------------------
Magnitude (a.u.)       :      2.798635868
Magnitude (Debye)      :      7.113567053



--------------------
Rotational spectrum 
--------------------
 
Rotational constants in cm-1:             0.021452             0.013263             0.012333 
Rotational constants in MHz :           643.105552           397.613046           369.741531 

Dipole components along the rotational axes: 
x,y,z [a.u.] :    -0.837332    -1.964253     1.809130 
x,y,z [Debye]:    -2.128328    -4.992734     4.598442 

 

-------------
DIPOLE MOMENT
-------------

Method             : TDA/CIS
Type of density    : Electron Density
Level              : Relaxed density
State              :   2
Multiplicity       :   3
Irrep              :   0
Energy             :     0.0000000000000000 Eh
Relativity type    : 
Basis              : AO
                                X                 Y                 Z
Electronic contribution:    -11.057959173      -4.909432162      -2.534736698
Nuclear contribution   :     13.276541972       5.690676772       4.217334649
                        -----------------------------------------
Total Dipole Moment    :      2.218582799       0.781244610       1.682597950
                        -----------------------------------------
Magnitude (a.u.)       :      2.891986971
Magnitude (Debye)      :      7.350846698



--------------------
Rotational spectrum 
--------------------
 
Rotational constants in cm-1:             0.021452             0.013263             0.012333 
Rotational constants in MHz :           643.105552           397.613046           369.741531 

Dipole components along the rotational axes: 
x,y,z [a.u.] :    -0.709677    -2.063374     1.898008 
x,y,z [Debye]:    -1.803856    -5.244680     4.824353 

 

Dipole moment calculation done in   0.2 sec 

Maximum memory used throughout the entire PROP-calculation: 81.8 MB
[1741391571.390212] [ohm:1247446:0]        ib_iface.c:1059 UCX  ERROR ibv_create_cq(cqe=256) failed: Connection timed out
[1741391571.394942] [ohm:1247467:0]        ib_iface.c:1059 UCX  ERROR ibv_create_cq(cqe=256) failed: Connection timed out
[1741391571.409428] [ohm:1247445:0]        ib_iface.c:1059 UCX  ERROR ibv_create_cq(cqe=256) failed: Connection timed out
[1741391571.421785] [ohm:1247450:0]        ib_iface.c:1059 UCX  ERROR ibv_create_cq(cqe=256) failed: Connection timed out
[1741391571.430214] [ohm:1247460:0]        ib_iface.c:1059 UCX  ERROR ibv_create_cq(cqe=256) failed: Connection timed out
[1741391571.432439] [ohm:1247457:0]        ib_iface.c:1059 UCX  ERROR ibv_create_cq(cqe=256) failed: Connection timed out
[1741391571.445098] [ohm:1247458:0]        ib_iface.c:1059 UCX  ERROR ibv_create_cq(cqe=256) failed: Connection timed out
[1741391571.447650] [ohm:1247464:0]        ib_iface.c:1059 UCX  ERROR ibv_create_cq(cqe=256) failed: Connection timed out
[1741391571.448106] [ohm:1247452:0]        ib_iface.c:1059 UCX  ERROR ibv_create_cq(cqe=256) failed: Connection timed out
[1741391571.455003] [ohm:1247448:0]        ib_iface.c:1059 UCX  ERROR ibv_create_cq(cqe=256) failed: Connection timed out
[1741391571.456286] [ohm:1247444:0]        ib_iface.c:1059 UCX  ERROR ibv_create_cq(cqe=256) failed: Connection timed out
[1741391571.457853] [ohm:1247510:0]        ib_iface.c:1059 UCX  ERROR ibv_create_cq(cqe=256) failed: Connection timed out
[1741391571.514645] [ohm:1247505:0]        ib_iface.c:1059 UCX  ERROR ibv_create_cq(cqe=256) failed: Connection timed out
[1741391571.552601] [ohm:1247453:0]        ib_iface.c:1059 UCX  ERROR ibv_create_cq(cqe=256) failed: Connection timed out
[1741391571.559439] [ohm:1247502:0]        ib_iface.c:1059 UCX  ERROR ibv_create_cq(cqe=256) failed: Connection timed out
[1741391571.583634] [ohm:1247455:0]        ib_iface.c:1059 UCX  ERROR ibv_create_cq(cqe=256) failed: Connection timed out
[1741391571.592300] [ohm:1247538:0]        ib_iface.c:1059 UCX  ERROR ibv_create_cq(cqe=256) failed: Connection timed out
[1741391571.593398] [ohm:1247478:0]        ib_iface.c:1059 UCX  ERROR ibv_create_cq(cqe=256) failed: Connection timed out
[1741391571.601041] [ohm:1247472:0]        ib_iface.c:1059 UCX  ERROR ibv_create_cq(cqe=256) failed: Connection timed out
[1741391571.605519] [ohm:1247530:0]        ib_iface.c:1059 UCX  ERROR ibv_create_cq(cqe=256) failed: Connection timed out
[1741391571.606350] [ohm:1247526:0]        ib_iface.c:1059 UCX  ERROR ibv_create_cq(cqe=256) failed: Connection timed out
[1741391571.609771] [ohm:1247454:0]        ib_iface.c:1059 UCX  ERROR ibv_create_cq(cqe=256) failed: Connection timed out
[1741391571.614849] [ohm:1247449:0]        ib_iface.c:1059 UCX  ERROR ibv_create_cq(cqe=256) failed: Connection timed out
[1741391571.633803] [ohm:1247469:0]        ib_iface.c:1059 UCX  ERROR ibv_create_cq(cqe=256) failed: Connection timed out
[1741391571.639273] [ohm:1247565:0]        ib_iface.c:1059 UCX  ERROR ibv_create_cq(cqe=256) failed: Connection timed out
[1741391571.639418] [ohm:1247468:0]        ib_iface.c:1059 UCX  ERROR ibv_create_cq(cqe=256) failed: Connection timed out
[1741391571.639491] [ohm:1247518:0]        ib_iface.c:1059 UCX  ERROR ibv_create_cq(cqe=256) failed: Connection timed out
[1741391571.640360] [ohm:1247498:0]        ib_iface.c:1059 UCX  ERROR ibv_create_cq(cqe=256) failed: Connection timed out
[1741391571.647998] [ohm:1247554:0]        ib_iface.c:1059 UCX  ERROR ibv_create_cq(cqe=256) failed: Connection timed out
[1741391571.652985] [ohm:1247567:0]        ib_iface.c:1059 UCX  ERROR ibv_create_cq(cqe=256) failed: Connection timed out
[1741391571.658348] [ohm:1247573:0]        ib_iface.c:1059 UCX  ERROR ibv_create_cq(cqe=256) failed: Connection timed out
[1741391571.666726] [ohm:1247475:0]        ib_iface.c:1059 UCX  ERROR ibv_create_cq(cqe=256) failed: Connection timed out
[1741391571.671295] [ohm:1247494:0]        ib_iface.c:1059 UCX  ERROR ibv_create_cq(cqe=256) failed: Connection timed out
[1741391571.674459] [ohm:1247463:0]        ib_iface.c:1059 UCX  ERROR ibv_create_cq(cqe=256) failed: Connection timed out
[1741391571.678927] [ohm:1247562:0]        ib_iface.c:1059 UCX  ERROR ibv_create_cq(cqe=256) failed: Connection timed out
[1741391571.685776] [ohm:1247496:0]        ib_iface.c:1059 UCX  ERROR ibv_create_cq(cqe=256) failed: Connection timed out
[1741391571.688250] [ohm:1247550:0]        ib_iface.c:1059 UCX  ERROR ibv_create_cq(cqe=256) failed: Connection timed out
[1741391571.695166] [ohm:1247544:0]        ib_iface.c:1059 UCX  ERROR ibv_create_cq(cqe=256) failed: Connection timed out
[1741391571.698618] [ohm:1247470:0]        ib_iface.c:1059 UCX  ERROR ibv_create_cq(cqe=256) failed: Connection timed out
[1741391571.702471] [ohm:1247471:0]        ib_iface.c:1059 UCX  ERROR ibv_create_cq(cqe=256) failed: Connection timed out
[1741391571.703311] [ohm:1247525:0]        ib_iface.c:1059 UCX  ERROR ibv_create_cq(cqe=256) failed: Connection timed out
[1741391571.706200] [ohm:1247474:0]        ib_iface.c:1059 UCX  ERROR ibv_create_cq(cqe=256) failed: Connection timed out
[1741391571.706174] [ohm:1247541:0]        ib_iface.c:1059 UCX  ERROR ibv_create_cq(cqe=256) failed: Connection timed out
[1741391571.711846] [ohm:1247491:0]        ib_iface.c:1059 UCX  ERROR ibv_create_cq(cqe=256) failed: Connection timed out
[1741391571.713087] [ohm:1247451:0]        ib_iface.c:1059 UCX  ERROR ibv_create_cq(cqe=256) failed: Connection timed out
[1741391571.716627] [ohm:1247570:0]        ib_iface.c:1059 UCX  ERROR ibv_create_cq(cqe=256) failed: Connection timed out
[1741391571.726915] [ohm:1247486:0]        ib_iface.c:1059 UCX  ERROR ibv_create_cq(cqe=256) failed: Connection timed out
[1741391571.728382] [ohm:1247557:0]        ib_iface.c:1059 UCX  ERROR ibv_create_cq(cqe=256) failed: Connection timed out
[1741391571.735594] [ohm:1247515:0]        ib_iface.c:1059 UCX  ERROR ibv_create_cq(cqe=256) failed: Connection timed out
[1741391571.737626] [ohm:1247456:0]        ib_iface.c:1059 UCX  ERROR ibv_create_cq(cqe=256) failed: Connection timed out
[1741391571.738047] [ohm:1247548:0]        ib_iface.c:1059 UCX  ERROR ibv_create_cq(cqe=256) failed: Connection timed out
[1741391571.738601] [ohm:1247482:0]        ib_iface.c:1059 UCX  ERROR ibv_create_cq(cqe=256) failed: Connection timed out
[1741391571.741596] [ohm:1247462:0]        ib_iface.c:1059 UCX  ERROR ibv_create_cq(cqe=256) failed: Connection timed out
[1741391571.745733] [ohm:1247466:0]        ib_iface.c:1059 UCX  ERROR ibv_create_cq(cqe=256) failed: Connection timed out
[1741391571.747999] [ohm:1247447:0]        ib_iface.c:1059 UCX  ERROR ibv_create_cq(cqe=256) failed: Connection timed out
[1741391571.748413] [ohm:1247582:0]        ib_iface.c:1059 UCX  ERROR ibv_create_cq(cqe=256) failed: Connection timed out
[1741391571.750544] [ohm:1247459:0]        ib_iface.c:1059 UCX  ERROR ibv_create_cq(cqe=256) failed: Connection timed out
[1741391571.751391] [ohm:1247575:0]        ib_iface.c:1059 UCX  ERROR ibv_create_cq(cqe=256) failed: Connection timed out
[1741391571.751875] [ohm:1247579:0]        ib_iface.c:1059 UCX  ERROR ibv_create_cq(cqe=256) failed: Connection timed out
[1741391571.752793] [ohm:1247461:0]        ib_iface.c:1059 UCX  ERROR ibv_create_cq(cqe=256) failed: Connection timed out
[1741391571.753545] [ohm:1247584:0]        ib_iface.c:1059 UCX  ERROR ibv_create_cq(cqe=256) failed: Connection timed out
[1741391571.753665] [ohm:1247465:0]        ib_iface.c:1059 UCX  ERROR ibv_create_cq(cqe=256) failed: Connection timed out
[1741391571.754207] [ohm:1247534:0]        ib_iface.c:1059 UCX  ERROR ibv_create_cq(cqe=256) failed: Connection timed out
[1741391571.755844] [ohm:1247529:0]        ib_iface.c:1059 UCX  ERROR ibv_create_cq(cqe=256) failed: Connection timed out

--------------------------------
SUGGESTED CITATIONS FOR THIS RUN
--------------------------------

Below you find a list of papers that are relevant to this ORCA run
We neither can nor want to force you to cite these papers, but we appreciate if you do
You receive ORCA, which is the product of decades of hard work by many enthusiastic individuals, for free
The only thing we kindly ask in return is that you cite our papers,
We deeply appreciate it, if you show your appreciation for ORCA by not just citing the generic ORCA reference.

Please note that relegating all ORCA citations to the supporting information does *not* help us.
SI sections are not indexed - citations you put there will not count into any citation statistics
But we need these citations in order to attract the funding resources that allow us to do what we are doing

Therefore, if you are a happy ORCA user, please consider citing a few of the papers listed below in the main body of your paper

In addition to the list printed below, the program has created the file orca.bibtex that contains the list in bibtex format
You can import this file easily into all common literature databanks and citation aid programs


List of essential papers. We consider these as the minimum necessary citations

  1. Neese,F.
     Software update: the ORCA program system, version 5.0
     WIRES Comput. Molec. Sci., 2022 12(1)e1606
     doi.org/10.1002/wcms.1606

List of papers to cite with high priority. The work reported in these papers was absolutely
necessary for this run to complete.
Our perspective: the developers of density functionals and basis sets usually get cited in chemistry papers
Good! But without the algorithms to do something with them, the functionals or basis sets would not do anything.
Hence, in our opinion, the algorithm design and method developments papers are equally worthy of getting cited

  1. Neese,F.; Olbrich,G.
     Efficient use of the resolution of the identity approximation in time-dependent density functional calculations with hybrid density functionals
     Chem. Phys. Lett., 2002 362 170-178
     doi.org/10.1016/s0009-2614(02)01053-9
  2. Neese,F.
     An improvement of the resolution of the identity approximation for the formation of the Coulomb matrix
     J. Comp. Chem., 2003 24(14)1740-1747
     doi.org/10.1002/jcc.10318
  3. Neese,F.; Wennmohs,F.; Hansen,A.; Becker,U.
     Efficient, approximate and parallel Hartree-Fock and hybrid DFT calculations. A 'chain-of-spheres' algorithm for the Hartree-Fock exchange
     Chem. Phys., 2009 356(1-3)98-109
     doi.org/10.1016/j.chemphys.2008.10.036
  4. Petrenko,T.; Kossmann,S.; Neese,F.
     Efficient time-dependent density functional theory approximations for hybrid density functionals: Analytical gradients and parallelization
     J. Chem. Phys., 2011 134 054116
     doi.org/10.1063/1.3533441
  5. Helmich-Paris,B.; de Souza,B.; Neese,F.; Izsák,R.
     An improved chain of spheres for exchange algorithm
     J. Chem. Phys., 2021 155 104109
     doi.org/doi: 10.1063/5.0058766.
  6. Neese,F.
     The SHARK Integral Generation and Digestion System
     J. Comp. Chem., 2022  1-16
     doi.org/10.1002/jcc.26942
  7. Lehtola,S.; Steigemann,C.; Oliveira,M.; Marques,M.
     Recent developments in Libxc - A comprehensive library of functionals for density functional theory
     Software X, 2018 7 
     doi.org/10.1016/j.softx.2017.11.002
  8. Grimme,S.; Antony,J.; Ehrlich,S.; Krieg,H.
     A consistent and accurate ab initio parametrization of density functional dispersion correction (DFT-D) for the 94 elements H-Pu
     J. Chem. Phys., 2010 132 154104-XXXX
     doi.org/10.1063/1.3382344
  9. Grimme,S.; Ehrlich,S.; Goerigk,L.
     Effect of the damping function in dispersion corrected density functional theory
     J. Comput. Chem., 2011 32(7)1456-1465
     doi.org/10.1002/jcc.21759

List of suggested additional citations. These are papers that are important in the 'surrounding' of 
of this run, or papers that preceded the highly important papers. If you like your results we are grateful for a citation.

  1. Izsak,R.; Neese,F.
     An overlap fitted chain of spheres exchange method
     J. Chem. Phys., 2011 135 144105
     doi.org/10.1063/1.3646921
  2. Izsak,R.; Hansen,A.; Neese,F.
     The resolution of identity and chain of spheres approximations for the LPNO-CCSD singles Fock term
     Molec. Phys., 2012 110 2413-2417
     doi.org/10.1080/00268976.2012.687466
  3. Neese,F.
     The ORCA program system
     WIRES Comput. Molec. Sci., 2012 2(1)73-78
     doi.org/10.1002/wcms.81
  4. Izsak,R.; Neese,F.; Klopper,W.
     Robust fitting techniques in the chain of spheres approximation to the Fock exchange: The role of the complementary space
     J. Chem. Phys., 2013 139 
     doi.org/10.1063/1.4819264
  5. Neese,F.
     Software update: the ORCA program system, version 4.0
     WIRES Comput. Molec. Sci., 2018 8(1)1-6
     doi.org/10.1002/wcms.1327
  6. Neese,F.; Wennmohs,F.; Becker,U.; Riplinger,C.
     The ORCA quantum chemistry program package
     J. Chem. Phys., 2020 152 Art. No. L224108
     doi.org/10.1063/5.0004608

List of optional additional citations

  1. Neese,F.
     Approximate second-order SCF convergence for spin unrestricted wavefunctions
     Chem. Phys. Lett., 2000 325(1-3)93-98
     doi.org/10.1016/s0009-2614(00)00662-x

Timings for individual modules:

Sum of individual times          ...      302.282 sec (=   5.038 min)
Startup calculation              ...        6.235 sec (=   0.104 min)   2.1 %
SCF iterations                   ...      130.739 sec (=   2.179 min)  43.3 %
Property integrals               ...        4.127 sec (=   0.069 min)   1.4 %
Property calculations            ...        2.820 sec (=   0.047 min)   0.9 %
CIS module                       ...      158.360 sec (=   2.639 min)  52.4 %
                             ****ORCA TERMINATED NORMALLY****
TOTAL RUN TIME: 0 days 0 hours 5 minutes 4 seconds 409 msec
