30
Properties=species:S:1:pos:R:3:momenta:R:3:forces:R:3 Coordinates=T from=T ORCA-job=T orca=T E=T -908.755158719449=T energy=-24728.791256244098 free_energy=-24728.791256244098 stress="-4.889093462892166e-07 -5.847807965383422e-07 1.110785629398222e-06 -5.847807965383422e-07 -1.9755731585508124e-06 1.4488308338225841e-06 1.110785629398222e-06 1.4488308338225841e-06 2.768291256130271e-07" pbc="F F F"
O        4.04220114      -0.18149767       0.75525350      -0.21785922       0.51446398      -0.44799841       1.89208266       0.66687821       0.20652661
O       -2.13910803       1.84102182      -2.01642591       0.33726165      -0.50014818       0.92856446       0.10364263       1.13009523      -0.73744157
O        1.09069579      -2.86978740      -1.18273829      -0.80134920      -1.15495425      -0.51130180       0.28050355      -0.43688395      -0.33396884
O       -3.46497830      -1.64946246       0.36033424      -0.17351817      -0.30748811       0.23752246      -0.17661393      -0.76759605       0.32404629
N        0.47039361      -0.86598538      -0.38428366       0.08197528       0.33840595       0.27226139      -0.62020381      -0.06425104      -0.16092308
N       -1.93680664      -0.25077281       1.34263291      -0.38152407       0.32198852      -0.71927849       0.73329721       0.89489171      -0.68878071
N        2.56212221      -1.70980783       0.18617744       0.36928112       0.03152412      -0.41628229      -1.22560758      -1.06530526      -1.43937110
N       -2.69375512       0.08989273      -0.80637313      -0.00492127      -0.20426623      -0.06917352      -0.33532631      -1.18122053       0.15744538
C        1.82234742       0.42423153       1.06427423      -0.27796817       0.69747510       0.90620130      -0.05085186       0.01681124      -0.27945760
C       -1.01724665       1.62037125       0.07014838       0.25646975       1.14953480      -0.96425104      -1.23114753      -0.46224178       0.35963260
C        0.48197495      -0.20208851       0.90503686       0.88655037       0.38917414       0.84364364       0.39205679       0.05517656       0.61719177
C       -0.76304240       0.65349543       1.18520926       0.19468218       0.30334496       0.03439580      -0.33927415      -0.43863907      -0.11191160
C        2.14750396       1.68174959       1.76713074      -0.62392249      -0.55433436       0.42058055      -0.02404811       0.39245307       0.89410899
C       -0.36658719       2.93238817       0.02328592       0.61597115      -0.28252609       0.44156541      -0.07058032      -0.15004369      -0.08088630
C        2.89117348      -0.46525487       0.63421824      -0.47506878      -0.29814564       0.32115745      -0.58999513       0.98501457       0.63308943
C       -1.98202527       1.24435507      -0.99043342       0.31969350       0.09162483      -0.19545024       0.70343769      -0.09898705       0.54231232
C        1.34564815      -1.90320534      -0.52272382      -0.70280140      -0.28578191      -0.40612355       0.54766139      -0.05966496       0.36095521
C       -2.71513263      -0.72040778       0.31541021      -0.23554712      -0.28385765       0.08841335       0.01712507       1.09591906       0.27875961
H        0.52833709      -0.95143256       1.71729785      -0.03197464       0.04360037      -0.03496411      -0.54876507      -0.07560497      -0.13225815
H       -0.53995457       1.16773427       2.15368590       0.21697880       0.05122384       0.12641726      -0.47071830      -0.26149050      -0.73105294
H        3.11921091       1.59853319       2.27450708       0.11951244       0.10755049      -0.02604981      -0.23202104      -0.17972922      -0.16268540
H        2.27114076       2.55405060       1.11707687       0.09706817       0.11957417       0.02572369      -0.18234864      -0.19042958      -0.17662227
H        1.38833904       1.97204640       2.53653349      -0.01491444      -0.01686856       0.12875403       0.45202059      -0.26637400      -0.54503784
H       -0.08703478       3.27218335       1.03801267      -0.14445333      -0.15414458      -0.10142943      -0.17502461      -0.01236350      -0.56018998
H        0.54927710       2.74179350      -0.55311391       0.13808783      -0.11050174      -0.09779302      -0.03360571       0.67224151      -0.04273287
H       -1.06122410       3.63224945      -0.48550164       0.07677280      -0.06565790      -0.36376032       0.74501105      -0.18084798       0.17174885
H       -0.39644407      -1.11367880      -0.86029079       0.16284875       0.07476463      -0.12204585       0.02788869       0.25439080       0.45882591
H       -1.98675467      -0.77955341       2.16156141       0.11949201      -0.29499780      -0.32822794      -0.01459296      -0.65068778       0.87673539
H        3.32542927      -2.17781179      -0.28821831       0.18068290       0.00735390      -0.08457185       0.02424097      -0.14235120       0.32870289
H       -3.35302211      -0.26711647      -1.49987121      -0.08750639       0.27206923       0.11350087       0.40175676       0.52084017      -0.02676097
