
                                 *****************
                                 * O   R   C   A *
                                 *****************

                                            #,                                       
                                            ###                                      
                                            ####                                     
                                            #####                                    
                                            ######                                   
                                           ########,                                 
                                     ,,################,,,,,                         
                               ,,#################################,,                 
                          ,,##########################################,,             
                       ,#########################################, ''#####,          
                    ,#############################################,,   '####,        
                  ,##################################################,,,,####,       
                ,###########''''           ''''###############################       
              ,#####''   ,,,,##########,,,,          '''####'''          '####       
            ,##' ,,,,###########################,,,                        '##       
           ' ,,###''''                  '''############,,,                           
         ,,##''                                '''############,,,,        ,,,,,,###''
      ,#''                                            '''#######################'''  
     '                                                          ''''####''''         
             ,#######,   #######,   ,#######,      ##                                
            ,#'     '#,  ##    ##  ,#'     '#,    #''#        ,####,   ,####,        
            ##       ##  ##   ,#'  ##            #'  '#       #'       #'  '#        
            ##       ##  #######   ##           ,######,      #####,   #    #        
            '#,     ,#'  ##    ##  '#,     ,#' ,#      #,     #,   #   #,  ,#        
             '#######'   ##     ##  '#######'  #'      '#     '####' # '####'        



                #########################################################
                #                        -***-                          #
                #          Department of theory and spectroscopy        #
                #                                                       #
                #                      Frank Neese                      #
                #                                                       #
                #     Directorship, Architecture, Infrastructure        #
                #                    SHARK, DRIVERS                     #
                #        Core code/Algorithms in most modules           #
                #                                                       #
                #        Max Planck Institute fuer Kohlenforschung      #
                #                Kaiser Wilhelm Platz 1                 #
                #                 D-45470 Muelheim/Ruhr                 #
                #                      Germany                          #
                #                                                       #
                #                  All rights reserved                  #
                #                        -***-                          #
                #########################################################


                         Program Version 6.0.0  -   RELEASE  -


 With contributions from (in alphabetic order):
   Daniel Aravena         : Magnetic Suceptibility
   Michael Atanasov       : Ab Initio Ligand Field Theory (pilot matlab implementation)
   Alexander A. Auer      : GIAO ZORA, VPT2 properties, NMR spectrum
   Ute Becker             : All parallelization in ORCA, NUMFREQ, NUMCALC
   Giovanni Bistoni       : ED, misc. LED, open-shell LED, HFLD
   Martin Brehm           : Molecular dynamics
   Dmytro Bykov           : pre 5.0 version of the SCF Hessian
   Marcos Casanova-Páez   : Triplet and SCS-CIS(D). UHF-(DLPNO)-IP/EA/STEOM-CCSD. UHF-CVS-IP/STEOM-CCSD
   Vijay G. Chilkuri      : MRCI spin determinant printing, contributions to CSF-ICE
   Pauline Colinet        : FMM embedding
   Dipayan Datta          : RHF DLPNO-CCSD density
   Achintya Kumar Dutta   : EOM-CC, STEOM-CC
   Nicolas Foglia         : Exact transition moments, OPA infrastructure, MCD improvements
   Dmitry Ganyushin       : Spin-Orbit,Spin-Spin,Magnetic field MRCI
   Miquel Garcia          : C-PCM and meta-GGA Hessian, CCSD/C-PCM, Gaussian charge scheme
   Tiago L. C. Gouveia    : GS-ROHF, GS-ROCIS
   Yang Guo               : DLPNO-NEVPT2, F12-NEVPT2, CIM, IAO-localization
   Andreas Hansen         : Spin unrestricted coupled pair/coupled cluster methods
   Ingolf Harden          : AUTO-CI MPn and infrastructure 
   Benjamin Helmich-Paris : MC-RPA, TRAH-(SCF,CASSCF), AVAS, COSX integrals, SCF dyn. polar.
   Lee Huntington         : MR-EOM, pCC
   Robert Izsak           : Overlap fitted RIJCOSX, COSX-SCS-MP3, EOM
   Riya Kayal             : Wick's Theorem for AUTO-CI, AUTO-CI UHF-CCSDT
   Emily Kempfer          : AUTO-CI, RHF CISDT and CCSDT
   Christian Kollmar      : KDIIS, OOCD, Brueckner-CCSD(T), CCSD density, CASPT2, CASPT2-K, improved NEVPT2
   Axel Koslowski         : Symmetry handling
   Simone Kossmann        : Meta GGA functionals, TD-DFT gradient, OOMP2, (MP2 Hessian; deprecated post 5.0)
   Lucas Lang             : DCDCAS
   Marvin Lechner         : AUTO-CI (C++ implementation), FIC-MRCC
   Spencer Leger          : CASSCF response
   Dagmar Lenk            : GEPOL surface, SMD, ORCA-2-JSON
   Dimitrios Liakos       : Extrapolation schemes; Compound Job, initial MDCI parallelization
   Dimitrios Manganas     : Further ROCIS development; embedding schemes. LFT, Crystal Embedding
   Dimitrios Pantazis     : SARC Basis sets
   Anastasios Papadopoulos: AUTO-CI, single reference methods and gradients
   Taras Petrenko         : pre 6.0 DFT Hessian and TD-DFT gradient, (ASA, deprecated), ECA, 1-Electron XAS/XES, NRVS
   Peter Pinski           : DLPNO-MP2, DLPNO-MP2 Gradient
   Christoph Reimann      : Effective Core Potentials
   Marius Retegan         : Local ZFS, SOC
   Christoph Riplinger    : Optimizer, TS searches, QM/MM, DLPNO-CCSD(T), (RO)-DLPNO pert. Triples
   Michael Roemelt        : Original ROCIS implementation
   Masaaki Saitow         : Open-shell DLPNO-CCSD energy and density
   Barbara Sandhoefer     : DKH picture change effects
   Kantharuban Sivalingam : CASSCF convergence/infrastructure, NEVPT2 and variants, FIC-MRCI
   Bernardo de Souza      : ESD, SOC TD-DFT
   Georgi Stoychev        : AutoAux, RI-MP2 NMR, DLPNO-MP2 response, X2C
   Van Anh Tran           : RI-MP2 g-tensors
   Willem Van den Heuvel  : Paramagnetic NMR
   Zikuan Wang            : NOTCH, Electric field optimization 
   Frank Wennmohs         : Technical directorship and infrastructure
   Hang Xu                : AUTO-CI-Response properties 


 We gratefully acknowledge several colleagues who have allowed us to
 interface, adapt or use parts of their codes:
   Stefan Grimme, W. Hujo, H. Kruse, P. Pracht,  : VdW corrections, initial TS optimization,
                  C. Bannwarth, S. Ehlert,         DFT functionals, gCP, sTDA/sTD-DF
                  L. Wittmann, M. Mueller
   Ed Valeev, F. Pavosevic, A. Kumar             : LibInt (2-el integral package), F12 methods
   Garnet Chan, S. Sharma, J. Yang, R. Olivares  : DMRG
   Ulf Ekstrom                                   : XCFun DFT Library
   Mihaly Kallay                                 : mrcc  (arbitrary order and MRCC methods)
   Frank Weinhold                                : gennbo (NPA and NBO analysis)
   Simon Mueller                                 : openCOSMO-RS
   Christopher J. Cramer and Donald G. Truhlar   : smd solvation model
   Lars Goerigk                                  : TD-DFT with DH, B97 family of functionals
   V. Asgeirsson, H. Jonsson                     : NEB implementation
   FAccTs GmbH                                   : IRC, NEB, NEB-TS, DLPNO-Multilevel, CI-OPT
                                                   MM, QMMM, 2- and 3-layer-ONIOM, Crystal-QMMM,
                                                   LR-CPCM, SF, NACMEs, symmetry and pop. for TD-DFT,
                                                   nearIR, NL-DFT gradient (VV10), updates on ESD,
                                                   ML-optimized integration grids, MBIS, APM,
                                                   GOAT, DOCKER, SOLVATOR, interface openCOSMO-RS
   S Lehtola, MJT Oliveira, MAL Marques          : LibXC Library
   Liviu Ungur et al                             : ANISO software


 Your calculation uses the libint2 library for the computation of 2-el integrals
 For citations please refer to: http://libint.valeyev.net

 Your ORCA version has been built with support for libXC version: 6.2.2
 For citations please refer to: https://libxc.gitlab.io

 This ORCA versions uses:
   CBLAS   interface :  Fast vector & matrix operations
   LAPACKE interface :  Fast linear algebra routines
   SCALAPACK package :  Parallel linear algebra routines
   Shared memory     :  Shared parallel matrices
   BLAS/LAPACK       :  OpenBLAS 0.3.27  USE64BITINT DYNAMIC_ARCH NO_AFFINITY Zen SINGLE_THREADED
        Core in use  :  Zen
   Copyright (c) 2011-2014, The OpenBLAS Project


Your calculation utilizes the atom-pairwise dispersion correction
with the Becke-Johnson damping scheme (D3BJ)


Warning: RI is on but no J-basis has been assigned. Assigning Def2/J (nothing to worry about!)
================================================================================

----- Orbital basis set information -----
Your calculation utilizes the basis: def2-TZVPPD
   F. Weigend and R. Ahlrichs, Phys. Chem. Chem. Phys. 7, 3297 (2005).
   D. Rappoport and F. Furche, J. Chem. Phys. 133, 134105 (2010)
   D. Rappoport, J. Chem. Phys. 155, 124102 (2021).

----- AuxJ basis set information -----
Your calculation utilizes the auxiliary basis: def2/J
   F. Weigend, Phys. Chem. Chem. Phys. 8, 1057 (2006).

================================================================================
                                        WARNINGS
                       Please study these warnings very carefully!
================================================================================

Using LibXC functional ID 531 : wB97M-V exchange-correlation functional
[ 1]  N. Mardirossian and M. Head-Gordon.,  J. Chem. Phys. 144, 214110 (2016)
Using LibXC functional ID 531 : wB97M-V exchange-correlation functional
[ 1]  N. Mardirossian and M. Head-Gordon.,  J. Chem. Phys. 144, 214110 (2016)

WARNING: B97M-V or wB97M-V functional requested.
  ===> : libXC variant has now been activated.
         Any manually given DFX/HFX/RangeSep scaling parameters are IGNORED!

Your calculation utilizes LibXC
 by S Lehtola, C Steigemann, MJT Oliveira & MAL Marques
Please cite in your paper:
 S Lehtola, C Steigemann, MJT Oliveira & MAL Marques, SoftwareX, 7, (2018), 1.
   


WARNING: your system is open-shell and RHF/RKS was chosen
  ===> : WILL SWITCH to UHF/UKS

INFO   : Checking CIS options ...

WARNING: CIS/ROCIS methods need fully converged wavefunctions
  ===> : Setting SCFConvForced true
         You can overwrite this default with %scf ConvForced false 


================================================================================
                                       INPUT FILE
================================================================================
NAME = orca.inp
|  1> ! Engrad def2-TZVPPD wB97M-D3BJ 
|  2> %pal nprocs 8 end%pal nprocs 64 end 
|  3> %tddft 
|  4>  Iroot 2 Nroots 3 
|  5> sf true 
|  6> end 
|  7> *xyz 0 3 
|  8> O   3.00617299 -0.89324119 -1.81150097
|  9> O   -1.67153388 1.08757778 -2.0306678
| 10> O   -0.9648793 -2.78133223 -0.69431317
| 11> O   -3.10182314 -0.08094942 2.12615166
| 12> N   0.08933563 -1.43676354 0.82962936
| 13> N   -1.05435453 0.98895611 1.91260673
| 14> N   0.81166918 -1.43490683 -1.35166212
| 15> N   -2.41179392 0.77744113 0.06783101
| 16> C   2.14711636 -0.31607968 0.24902593
| 17> C   -0.17890485 1.51586392 -0.2826497
| 18> C   0.97891996 -0.33204762 1.11804835
| 19> C   0.14213671 1.04869245 1.0534124
| 20> C   3.45154953 0.20786612 0.66172009
| 21> C   0.69420755 2.34126996 -1.16052255
| 22> C   2.0546527 -0.92823605 -1.07103121
| 23> C   -1.4614716 1.12263423 -0.83224352
| 24> C   -0.14707656 -1.94940866 -0.40967627
| 25> C   -2.22042411 0.49093867 1.41031366
| 26> H   1.2691973 -0.33421098 2.18290707
| 27> H   0.85370455 1.74804952 1.54282463
| 28> H   4.32549537 -0.37485013 0.48453325
| 29> H   3.77107146 1.05777606 -0.01185929
| 30> H   3.38009579 0.56658083 1.66121203
| 31> H   0.72817116 1.93620974 -2.17174477
| 32> H   0.36309077 3.38201183 -1.35513849
| 33> H   1.64976992 2.39627861 -0.68081562
| 34> H   -0.68397242 -1.55202394 1.45861413
| 35> H   -0.93966012 0.8377438 2.85857747
| 36> H   0.70225094 -1.85932452 -2.28587171
| 37> H   -3.21669539 0.28866063 -0.38161613
| 38> *
| 39> 
| 40>                          ****END OF INPUT****
================================================================================

                     *******************************
                     * Energy+Gradient Calculation *
                     *******************************

---------------------------------
CARTESIAN COORDINATES (ANGSTROEM)
---------------------------------
  O      3.006173   -0.893241   -1.811501
  O     -1.671534    1.087578   -2.030668
  O     -0.964879   -2.781332   -0.694313
  O     -3.101823   -0.080949    2.126152
  N      0.089336   -1.436764    0.829629
  N     -1.054355    0.988956    1.912607
  N      0.811669   -1.434907   -1.351662
  N     -2.411794    0.777441    0.067831
  C      2.147116   -0.316080    0.249026
  C     -0.178905    1.515864   -0.282650
  C      0.978920   -0.332048    1.118048
  C      0.142137    1.048692    1.053412
  C      3.451550    0.207866    0.661720
  C      0.694208    2.341270   -1.160523
  C      2.054653   -0.928236   -1.071031
  C     -1.461472    1.122634   -0.832244
  C     -0.147077   -1.949409   -0.409676
  C     -2.220424    0.490939    1.410314
  H      1.269197   -0.334211    2.182907
  H      0.853705    1.748050    1.542825
  H      4.325495   -0.374850    0.484533
  H      3.771071    1.057776   -0.011859
  H      3.380096    0.566581    1.661212
  H      0.728171    1.936210   -2.171745
  H      0.363091    3.382012   -1.355138
  H      1.649770    2.396279   -0.680816
  H     -0.683972   -1.552024    1.458614
  H     -0.939660    0.837744    2.858577
  H      0.702251   -1.859325   -2.285872
  H     -3.216695    0.288661   -0.381616

----------------------------
CARTESIAN COORDINATES (A.U.)
----------------------------
  NO LB      ZA    FRAG     MASS         X           Y           Z
   0 O     8.0000    0    15.999    5.680844   -1.687981   -3.423241
   1 O     8.0000    0    15.999   -3.158741    2.055224   -3.837406
   2 O     8.0000    0    15.999   -1.823358   -5.255956   -1.312062
   3 O     8.0000    0    15.999   -5.861596   -0.152972    4.017844
   4 N     7.0000    0    14.007    0.168820   -2.715090    1.567772
   5 N     7.0000    0    14.007   -1.992441    1.868856    3.614303
   6 N     7.0000    0    14.007    1.533832   -2.711581   -2.554271
   7 N     7.0000    0    14.007   -4.557630    1.469151    0.128182
   8 C     6.0000    0    12.011    4.057462   -0.597304    0.470591
   9 C     6.0000    0    12.011   -0.338081    2.864568   -0.534131
  10 C     6.0000    0    12.011    1.849891   -0.627479    2.112805
  11 C     6.0000    0    12.011    0.268599    1.981742    1.990661
  12 C     6.0000    0    12.011    6.522483    0.392810    1.250470
  13 C     6.0000    0    12.011    1.311862    4.424359   -2.193070
  14 C     6.0000    0    12.011    3.882731   -1.754112   -2.023956
  15 C     6.0000    0    12.011   -2.761781    2.121471   -1.572712
  16 C     6.0000    0    12.011   -0.277934   -3.683848   -0.774176
  17 C     6.0000    0    12.011   -4.195993    0.927740    2.665107
  18 H     1.0000    0     1.008    2.398435   -0.631567    4.125097
  19 H     1.0000    0     1.008    1.613268    3.303335    2.915516
  20 H     1.0000    0     1.008    8.174002   -0.708364    0.915635
  21 H     1.0000    0     1.008    7.126292    1.998907   -0.022411
  22 H     1.0000    0     1.008    6.387455    1.070683    3.139236
  23 H     1.0000    0     1.008    1.376044    3.658906   -4.104003
  24 H     1.0000    0     1.008    0.686142    6.391076   -2.560841
  25 H     1.0000    0     1.008    3.117613    4.528310   -1.286555
  26 H     1.0000    0     1.008   -1.292521   -2.932900    2.756381
  27 H     1.0000    0     1.008   -1.775700    1.583106    5.401929
  28 H     1.0000    0     1.008    1.327062   -3.513614   -4.319672
  29 H     1.0000    0     1.008   -6.078673    0.545490   -0.721150

--------------------------------
INTERNAL COORDINATES (ANGSTROEM)
--------------------------------
 O      0   0   0     0.000000000000     0.00000000     0.00000000
 O      1   0   0     5.084547123681     0.00000000     0.00000000
 O      2   1   0     4.153753610656    57.77532846     0.00000000
 O      3   2   1     4.451249055392    63.71257760   123.12942629
 N      3   2   1     2.289461708679    75.25440497    63.95236534
 N      4   3   2     2.320005816628    78.33230534   296.99627565
 N      5   3   2     2.297781914270    60.87862133   296.46939999
 N      2   1   3     2.246745852130   102.06849202    54.14977657
 C      1   2   3     2.305832779669    66.31288163   285.35970421
 C      2   1   3     2.338148352189    56.75871229    99.25482961
 C      5   3   2     1.447391812149   149.75618511   311.43658521
 C     10   2   1     1.451336901166   140.39688517   264.21239664
 C      9   1   2     1.465053434531    90.54591596   220.55231672
 C     10   2   1     1.488046079485    92.01285917    70.49922180
 C      1   2   3     1.206196902658    46.52995494   318.12940155
 C      2   1   3     1.217200012758    79.04786566    74.78420414
 C      3   2   1     1.200798198164    63.05239881    36.20188250
 C      4   3   2     1.271355292518    65.37330832   324.88912627
 H     11   5   3     1.103716316725   110.63415121   193.82409216
 H     12  10   2     1.111284586933   110.15059809   190.79099599
 H     13   9   1     1.065239285577   119.20835343   313.05496852
 H     13   9   1     1.130553117294   110.65015105    61.05210181
 H     13   9   1     1.064314811630   108.98343148   180.85784565
 H     14  10   2     1.089861315422   111.07007261   324.00151733
 H     14  10   2     1.109349956538   116.66352241    79.31341872
 H     14  10   2     1.070627915396   106.72964776   199.16364105
 H      5   3   2     1.003450118788    89.70890668   100.50115397
 H      6   4   3     0.964821543767    86.69727956   242.10298754
 H      7   5   3     1.031915832264   145.66497324   355.35864398
 H      8   2   1     1.043444049886    85.21057808   234.69366853

---------------------------
INTERNAL COORDINATES (A.U.)
---------------------------
 O      0   0   0     0.000000000000     0.00000000     0.00000000
 O      1   0   0     9.608401578773     0.00000000     0.00000000
 O      2   1   0     7.849456751926    57.77532846     0.00000000
 O      3   2   1     8.411641668566    63.71257760   123.12942629
 N      3   2   1     4.326455623502    75.25440497    63.95236534
 N      4   3   2     4.384175622532    78.33230534   296.99627565
 N      5   3   2     4.342178533448    60.87862133   296.46939999
 N      2   1   3     4.245734353050   102.06849202    54.14977657
 C      1   2   3     4.357392464193    66.31288163   285.35970421
 C      2   1   3     4.418460046116    56.75871229    99.25482961
 C      5   3   2     2.735174133441   149.75618511   311.43658521
 C     10   2   1     2.742629271257   140.39688517   264.21239664
 C      9   1   2     2.768549762825    90.54591596   220.55231672
 C     10   2   1     2.811999564881    92.01285917    70.49922180
 C      1   2   3     2.279381809608    46.52995494   318.12940155
 C      2   1   3     2.300174674319    79.04786566    74.78420414
 C      3   2   1     2.269179736637    63.05239881    36.20188250
 C      4   3   2     2.402513321770    65.37330832   324.88912627
 H     11   5   3     2.085721568150   110.63415121   193.82409216
 H     12  10   2     2.100023526151   110.15059809   190.79099599
 H     13   9   1     2.013010516834   119.20835343   313.05496852
 H     13   9   1     2.136435771536   110.65015105    61.05210181
 H     13   9   1     2.011263514257   108.98343148   180.85784565
 H     14  10   2     2.059539410102   111.07007261   324.00151733
 H     14  10   2     2.096367604534   116.66352241    79.31341872
 H     14  10   2     2.023193551429   106.72964776   199.16364105
 H      5   3   2     1.896245913559    89.70890668   100.50115397
 H      6   4   3     1.823248485827    86.69727956   242.10298754
 H      7   5   3     1.950038316237   145.66497324   355.35864398
 H      8   2   1     1.971823490354    85.21057808   234.69366853

---------------------
BASIS SET INFORMATION
---------------------
There are 4 groups of distinct atoms

 Group   1 Type O   : 12s7p3d1f contracted to 6s4p3d1f pattern {621111/4111/111/1}
 Group   2 Type N   : 12s6p3d1f contracted to 6s3p3d1f pattern {621111/411/111/1}
 Group   3 Type C   : 12s6p3d1f contracted to 6s3p3d1f pattern {621111/411/111/1}
 Group   4 Type H   : 5s3p1d contracted to 3s3p1d pattern {311/111/1}

Atom   0O    basis set group =>   1
Atom   1O    basis set group =>   1
Atom   2O    basis set group =>   1
Atom   3O    basis set group =>   1
Atom   4N    basis set group =>   2
Atom   5N    basis set group =>   2
Atom   6N    basis set group =>   2
Atom   7N    basis set group =>   2
Atom   8C    basis set group =>   3
Atom   9C    basis set group =>   3
Atom  10C    basis set group =>   3
Atom  11C    basis set group =>   3
Atom  12C    basis set group =>   3
Atom  13C    basis set group =>   3
Atom  14C    basis set group =>   3
Atom  15C    basis set group =>   3
Atom  16C    basis set group =>   3
Atom  17C    basis set group =>   3
Atom  18H    basis set group =>   4
Atom  19H    basis set group =>   4
Atom  20H    basis set group =>   4
Atom  21H    basis set group =>   4
Atom  22H    basis set group =>   4
Atom  23H    basis set group =>   4
Atom  24H    basis set group =>   4
Atom  25H    basis set group =>   4
Atom  26H    basis set group =>   4
Atom  27H    basis set group =>   4
Atom  28H    basis set group =>   4
Atom  29H    basis set group =>   4
---------------------------------
AUXILIARY/J BASIS SET INFORMATION
---------------------------------
There are 4 groups of distinct atoms

 Group   1 Type O   : 12s5p4d2f1g contracted to 6s4p3d1f1g pattern {711111/2111/211/2/1}
 Group   2 Type N   : 12s5p4d2f1g contracted to 6s4p3d1f1g pattern {711111/2111/211/2/1}
 Group   3 Type C   : 12s5p4d2f1g contracted to 6s4p3d1f1g pattern {711111/2111/211/2/1}
 Group   4 Type H   : 5s2p1d contracted to 3s1p1d pattern {311/2/1}

Atom   0O    basis set group =>   1
Atom   1O    basis set group =>   1
Atom   2O    basis set group =>   1
Atom   3O    basis set group =>   1
Atom   4N    basis set group =>   2
Atom   5N    basis set group =>   2
Atom   6N    basis set group =>   2
Atom   7N    basis set group =>   2
Atom   8C    basis set group =>   3
Atom   9C    basis set group =>   3
Atom  10C    basis set group =>   3
Atom  11C    basis set group =>   3
Atom  12C    basis set group =>   3
Atom  13C    basis set group =>   3
Atom  14C    basis set group =>   3
Atom  15C    basis set group =>   3
Atom  16C    basis set group =>   3
Atom  17C    basis set group =>   3
Atom  18H    basis set group =>   4
Atom  19H    basis set group =>   4
Atom  20H    basis set group =>   4
Atom  21H    basis set group =>   4
Atom  22H    basis set group =>   4
Atom  23H    basis set group =>   4
Atom  24H    basis set group =>   4
Atom  25H    basis set group =>   4
Atom  26H    basis set group =>   4
Atom  27H    basis set group =>   4
Atom  28H    basis set group =>   4
Atom  29H    basis set group =>   4
[1741419221.981830] [ohm:1657434:0]        ib_iface.c:1059 UCX  ERROR ibv_create_cq(cqe=256) failed: Connection timed out
[1741419221.995251] [ohm:1657411:0]        ib_iface.c:1059 UCX  ERROR ibv_create_cq(cqe=256) failed: Connection timed out
[1741419221.999760] [ohm:1657444:0]        ib_iface.c:1059 UCX  ERROR ibv_create_cq(cqe=256) failed: Connection timed out
[1741419222.006243] [ohm:1657410:0]        ib_iface.c:1059 UCX  ERROR ibv_create_cq(cqe=256) failed: Connection timed out
[1741419222.006692] [ohm:1657414:0]        ib_iface.c:1059 UCX  ERROR ibv_create_cq(cqe=256) failed: Connection timed out
[1741419222.007877] [ohm:1657424:0]        ib_iface.c:1059 UCX  ERROR ibv_create_cq(cqe=256) failed: Connection timed out
[1741419222.011211] [ohm:1657436:0]        ib_iface.c:1059 UCX  ERROR ibv_create_cq(cqe=256) failed: Connection timed out
[1741419222.060165] [ohm:1657413:0]        ib_iface.c:1059 UCX  ERROR ibv_create_cq(cqe=256) failed: Connection timed out
[1741419222.064316] [ohm:1657429:0]        ib_iface.c:1059 UCX  ERROR ibv_create_cq(cqe=256) failed: Connection timed out
[1741419222.064411] [ohm:1657419:0]        ib_iface.c:1059 UCX  ERROR ibv_create_cq(cqe=256) failed: Connection timed out
[1741419222.077557] [ohm:1657412:0]        ib_iface.c:1059 UCX  ERROR ibv_create_cq(cqe=256) failed: Connection timed out
[1741419222.126117] [ohm:1657426:0]        ib_iface.c:1059 UCX  ERROR ibv_create_cq(cqe=256) failed: Connection timed out
[1741419222.133468] [ohm:1657421:0]        ib_iface.c:1059 UCX  ERROR ibv_create_cq(cqe=256) failed: Connection timed out
[1741419222.137417] [ohm:1657435:0]        ib_iface.c:1059 UCX  ERROR ibv_create_cq(cqe=256) failed: Connection timed out
[1741419222.161910] [ohm:1657449:0]        ib_iface.c:1059 UCX  ERROR ibv_create_cq(cqe=256) failed: Connection timed out
[1741419222.171574] [ohm:1657418:0]        ib_iface.c:1059 UCX  ERROR ibv_create_cq(cqe=256) failed: Connection timed out
[1741419222.178783] [ohm:1657415:0]        ib_iface.c:1059 UCX  ERROR ibv_create_cq(cqe=256) failed: Connection timed out
[1741419222.185271] [ohm:1657440:0]        ib_iface.c:1059 UCX  ERROR ibv_create_cq(cqe=256) failed: Connection timed out
[1741419222.188899] [ohm:1657502:0]        ib_iface.c:1059 UCX  ERROR ibv_create_cq(cqe=256) failed: Connection timed out
[1741419222.206800] [ohm:1657545:0]        ib_iface.c:1059 UCX  ERROR ibv_create_cq(cqe=256) failed: Connection timed out
[1741419222.213173] [ohm:1657493:0]        ib_iface.c:1059 UCX  ERROR ibv_create_cq(cqe=256) failed: Connection timed out
[1741419222.213904] [ohm:1657438:0]        ib_iface.c:1059 UCX  ERROR ibv_create_cq(cqe=256) failed: Connection timed out
[1741419222.218686] [ohm:1657464:0]        ib_iface.c:1059 UCX  ERROR ibv_create_cq(cqe=256) failed: Connection timed out
[1741419222.220182] [ohm:1657523:0]        ib_iface.c:1059 UCX  ERROR ibv_create_cq(cqe=256) failed: Connection timed out
[1741419222.223899] [ohm:1657512:0]        ib_iface.c:1059 UCX  ERROR ibv_create_cq(cqe=256) failed: Connection timed out
[1741419222.229107] [ohm:1657507:0]        ib_iface.c:1059 UCX  ERROR ibv_create_cq(cqe=256) failed: Connection timed out
[1741419222.229651] [ohm:1657544:0]        ib_iface.c:1059 UCX  ERROR ibv_create_cq(cqe=256) failed: Connection timed out
[1741419222.240008] [ohm:1657420:0]        ib_iface.c:1059 UCX  ERROR ibv_create_cq(cqe=256) failed: Connection timed out
[1741419222.250251] [ohm:1657474:0]        ib_iface.c:1059 UCX  ERROR ibv_create_cq(cqe=256) failed: Connection timed out
[1741419222.257868] [ohm:1657430:0]        ib_iface.c:1059 UCX  ERROR ibv_create_cq(cqe=256) failed: Connection timed out
[1741419222.265675] [ohm:1657511:0]        ib_iface.c:1059 UCX  ERROR ibv_create_cq(cqe=256) failed: Connection timed out
[1741419222.274746] [ohm:1657468:0]        ib_iface.c:1059 UCX  ERROR ibv_create_cq(cqe=256) failed: Connection timed out
[1741419222.277255] [ohm:1657553:0]        ib_iface.c:1059 UCX  ERROR ibv_create_cq(cqe=256) failed: Connection timed out
[1741419222.279443] [ohm:1657439:0]        ib_iface.c:1059 UCX  ERROR ibv_create_cq(cqe=256) failed: Connection timed out
[1741419222.280700] [ohm:1657476:0]        ib_iface.c:1059 UCX  ERROR ibv_create_cq(cqe=256) failed: Connection timed out
[1741419222.288444] [ohm:1657423:0]        ib_iface.c:1059 UCX  ERROR ibv_create_cq(cqe=256) failed: Connection timed out
[1741419222.296293] [ohm:1657458:0]        ib_iface.c:1059 UCX  ERROR ibv_create_cq(cqe=256) failed: Connection timed out
[1741419222.303377] [ohm:1657422:0]        ib_iface.c:1059 UCX  ERROR ibv_create_cq(cqe=256) failed: Connection timed out
[1741419222.305830] [ohm:1657484:0]        ib_iface.c:1059 UCX  ERROR ibv_create_cq(cqe=256) failed: Connection timed out
[1741419222.309987] [ohm:1657447:0]        ib_iface.c:1059 UCX  ERROR ibv_create_cq(cqe=256) failed: Connection timed out
[1741419222.311313] [ohm:1657432:0]        ib_iface.c:1059 UCX  ERROR ibv_create_cq(cqe=256) failed: Connection timed out
[1741419222.314077] [ohm:1657428:0]        ib_iface.c:1059 UCX  ERROR ibv_create_cq(cqe=256) failed: Connection timed out
[1741419222.316865] [ohm:1657433:0]        ib_iface.c:1059 UCX  ERROR ibv_create_cq(cqe=256) failed: Connection timed out
[1741419222.318505] [ohm:1657425:0]        ib_iface.c:1059 UCX  ERROR ibv_create_cq(cqe=256) failed: Connection timed out
[1741419222.319454] [ohm:1657416:0]        ib_iface.c:1059 UCX  ERROR ibv_create_cq(cqe=256) failed: Connection timed out
[1741419222.329276] [ohm:1657537:0]        ib_iface.c:1059 UCX  ERROR ibv_create_cq(cqe=256) failed: Connection timed out
[1741419222.330639] [ohm:1657552:0]        ib_iface.c:1059 UCX  ERROR ibv_create_cq(cqe=256) failed: Connection timed out
[1741419222.331016] [ohm:1657417:0]        ib_iface.c:1059 UCX  ERROR ibv_create_cq(cqe=256) failed: Connection timed out
[1741419222.335759] [ohm:1657455:0]        ib_iface.c:1059 UCX  ERROR ibv_create_cq(cqe=256) failed: Connection timed out
[1741419222.346110] [ohm:1657520:0]        ib_iface.c:1059 UCX  ERROR ibv_create_cq(cqe=256) failed: Connection timed out
[1741419222.346544] [ohm:1657491:0]        ib_iface.c:1059 UCX  ERROR ibv_create_cq(cqe=256) failed: Connection timed out
[1741419222.348892] [ohm:1657539:0]        ib_iface.c:1059 UCX  ERROR ibv_create_cq(cqe=256) failed: Connection timed out
[1741419222.351863] [ohm:1657462:0]        ib_iface.c:1059 UCX  ERROR ibv_create_cq(cqe=256) failed: Connection timed out
[1741419222.356612] [ohm:1657437:0]        ib_iface.c:1059 UCX  ERROR ibv_create_cq(cqe=256) failed: Connection timed out
[1741419222.358041] [ohm:1657427:0]        ib_iface.c:1059 UCX  ERROR ibv_create_cq(cqe=256) failed: Connection timed out
[1741419222.359677] [ohm:1657529:0]        ib_iface.c:1059 UCX  ERROR ibv_create_cq(cqe=256) failed: Connection timed out
[1741419222.362276] [ohm:1657500:0]        ib_iface.c:1059 UCX  ERROR ibv_create_cq(cqe=256) failed: Connection timed out
[1741419222.362672] [ohm:1657431:0]        ib_iface.c:1059 UCX  ERROR ibv_create_cq(cqe=256) failed: Connection timed out
[1741419222.363130] [ohm:1657471:0]        ib_iface.c:1059 UCX  ERROR ibv_create_cq(cqe=256) failed: Connection timed out
[1741419222.363963] [ohm:1657505:0]        ib_iface.c:1059 UCX  ERROR ibv_create_cq(cqe=256) failed: Connection timed out
[1741419222.364161] [ohm:1657516:0]        ib_iface.c:1059 UCX  ERROR ibv_create_cq(cqe=256) failed: Connection timed out
[1741419222.365213] [ohm:1657483:0]        ib_iface.c:1059 UCX  ERROR ibv_create_cq(cqe=256) failed: Connection timed out
[1741419222.365940] [ohm:1657548:0]        ib_iface.c:1059 UCX  ERROR ibv_create_cq(cqe=256) failed: Connection timed out
[1741419222.366136] [ohm:1657532:0]        ib_iface.c:1059 UCX  ERROR ibv_create_cq(cqe=256) failed: Connection timed out


           ************************************************************
           *        Program running with 64 parallel MPI-processes    *
           *              working on a common directory               *
           ************************************************************
------------------------------------------------------------------------------
                             ORCA STARTUP CALCULATIONS
                           -- RI-GTO INTEGRALS CHOSEN --
------------------------------------------------------------------------------
------------------------------------------------------------------------------
                   ___                                                        
                  /   \      - P O W E R E D   B Y -                         
                 /     \                                                     
                 |  |  |   _    _      __       _____    __    __             
                 |  |  |  | |  | |    /  \     |  _  \  |  |  /  |          
                  \  \/   | |  | |   /    \    | | | |  |  | /  /          
                 / \  \   | |__| |  /  /\  \   | |_| |  |  |/  /          
                |  |  |   |  __  | /  /__\  \  |    /   |      \           
                |  |  |   | |  | | |   __   |  |    \   |  |\   \          
                \     /   | |  | | |  |  |  |  | |\  \  |  | \   \       
                 \___/    |_|  |_| |__|  |__|  |_| \__\ |__|  \__/        
                                                                              
                      - O R C A' S   B I G   F R I E N D -                    
                                      &                                       
                       - I N T E G R A L  F E E D E R -                       
                                                                              
 v1 FN, 2020, v2 2021, v3 2022-2024                                           
------------------------------------------------------------------------------


----------------------
SHARK INTEGRAL PACKAGE
----------------------

Number of atoms                             ...     30
Number of basis functions                   ...    882
Number of shells                            ...    322
Maximum angular momentum                    ...      3
Integral batch strategy                     ... SHARK/LIBINT Hybrid
RI-J (if used) integral strategy            ... SPLIT-RIJ (Revised 2003 algorithm where possible)
Printlevel                                  ...      1
Contraction scheme used                     ... SEGMENTED contraction
Prescreening option                         ... SCHWARTZ
   Thresh                                   ... 2.500e-11
   Tcut                                     ... 2.500e-12
   Tpresel                                  ... 2.500e-12 
Coulomb Range Separation                    ... NOT USED
Exchange Range Separation                   ... Long Range
   Mu parameter                             ... 3.000e-01
   Scaling (regular/separated)              ... 1.500e-01 8.500e-01
Multipole approximations                    ... NOT USED
Finite Nucleus Model                        ... NOT USED
CABS basis                                  ... NOT available
Auxiliary Coulomb fitting basis             ... AVAILABLE
   # of basis functions in Aux-J            ...   1014
   # of shells in Aux-J                     ...    330
   Maximum angular momentum in Aux-J        ...      4
Auxiliary J/K fitting basis                 ... NOT available
Auxiliary Correlation fitting basis         ... NOT available
Auxiliary 'external' fitting basis          ... NOT available

Checking pre-screening integrals            ... done (  0.0 sec) Dimension = 322
Check shell pair data                       ... done (  0.0 sec)
Shell pair information
Shell pair cut-off parameter TPreSel        ...   2.5e-12
Total number of shell pairs                 ...     52003
Shell pairs after pre-screening             ...     45041
Total number of primitive shell pairs       ...    129718
Primitive shell pairs kept                  ...     84168
          la=0 lb=0:   8722 shell pairs
          la=1 lb=0:  11922 shell pairs
          la=1 lb=1:   4119 shell pairs
          la=2 lb=0:   8085 shell pairs
          la=2 lb=1:   5608 shell pairs
          la=2 lb=2:   1929 shell pairs
          la=3 lb=0:   2062 shell pairs
          la=3 lb=1:   1458 shell pairs
          la=3 lb=2:    993 shell pairs
          la=3 lb=3:    143 shell pairs

Calculating one electron integrals          ... done (  0.2 sec)
Calculating RI/J V-Matrix + Cholesky decomp.... done (  0.1 sec)
Calculating Nuclear repulsion               ... done (  0.0 sec) ENN=   1444.475782800735 Eh

Diagonalization of the overlap matrix:
Smallest eigenvalue                        ... 5.115e-07
Time for diagonalization                   ...    0.124 sec
Threshold for overlap eigenvalues          ... 1.000e-07
Number of eigenvalues below threshold      ... 0

IMPORTANT:
Smallest eigenvalue of S below the DiffSThresh (1.000e-06) while
Thresh>1e-12 and/or TCut>1e-13! In order to avoid SCF convergence issues,
Thresh will be set to at least 1e-12 and TCut to at least 1e-13.
This can be turned off by adding %SCF DiffSThresh -1 END to the input.

Time for construction of square roots      ...    0.135 sec
Total time needed                          ...    0.274 sec

-------------------
DFT GRID GENERATION
-------------------

General Integration Accuracy     IntAcc      ... 4.388
Radial Grid Type                 RadialGrid  ... OptM3 with GC (2021)
Angular Grid (max. ang.)         AngularGrid ... 4 (Lebedev-302)
Angular grid pruning method      GridPruning ... 4 (adaptive)
Weight generation scheme         WeightScheme... mBecke (2022)
Basis function cutoff            BFCut       ... 1.0000e-11
Integration weight cutoff        WCut        ... 1.0000e-14
Partially contracted basis set               ... off
Rotationally invariant grid construction     ... off
Angular grids for H and He will be reduced by one unit
Diffuse basis detected: some atoms will have their outermost
                        angular grid increased by 1.

Total number of grid points                  ...   151906
Total number of batches                      ...     2390
Average number of points per batch           ...       63
Average number of grid points per atom       ...     5064

--------------------
COSX GRID GENERATION
--------------------

GRIDX 1
-------
General Integration Accuracy     IntAcc      ... 3.816
Radial Grid Type                 RadialGrid  ... OptM3 with GC (2021)
Angular Grid (max. ang.)         AngularGrid ... 1 (Lebedev-50)
Angular grid pruning method      GridPruning ... 4 (adaptive)
Weight generation scheme         WeightScheme... mBecke (2022)
Basis function cutoff            BFCut       ... 1.0000e-11
Integration weight cutoff        WCut        ... 1.0000e-14
Partially contracted basis set               ... on
Rotationally invariant grid construction     ... off
Angular grids for H and He will be reduced by one unit
Diffuse basis detected: some atoms will have their outermost
                        angular grid increased by 1.

Total number of grid points                  ...    19012
Total number of batches                      ...      166
Average number of points per batch           ...      114
Average number of grid points per atom       ...      634
UseSFitting                                  ... on

GRIDX 2
-------
General Integration Accuracy     IntAcc      ... 4.020
Radial Grid Type                 RadialGrid  ... OptM3 with GC (2021)
Angular Grid (max. ang.)         AngularGrid ... 2 (Lebedev-110)
Angular grid pruning method      GridPruning ... 4 (adaptive)
Weight generation scheme         WeightScheme... mBecke (2022)
Basis function cutoff            BFCut       ... 1.0000e-11
Integration weight cutoff        WCut        ... 1.0000e-14
Partially contracted basis set               ... on
Rotationally invariant grid construction     ... off
Angular grids for H and He will be reduced by one unit
Diffuse basis detected: some atoms will have their outermost
                        angular grid increased by 1.

Total number of grid points                  ...    45840
Total number of batches                      ...      373
Average number of points per batch           ...      122
Average number of grid points per atom       ...     1528
UseSFitting                                  ... on

GRIDX 3
-------
General Integration Accuracy     IntAcc      ... 4.338
Radial Grid Type                 RadialGrid  ... OptM3 with GC (2021)
Angular Grid (max. ang.)         AngularGrid ... 3 (Lebedev-194)
Angular grid pruning method      GridPruning ... 4 (adaptive)
Weight generation scheme         WeightScheme... mBecke (2022)
Basis function cutoff            BFCut       ... 1.0000e-11
Integration weight cutoff        WCut        ... 1.0000e-14
Partially contracted basis set               ... on
Rotationally invariant grid construction     ... off
Angular grids for H and He will be reduced by one unit
Diffuse basis detected: some atoms will have their outermost
                        angular grid increased by 1.

Total number of grid points                  ...   100888
Total number of batches                      ...      804
Average number of points per batch           ...      125
Average number of grid points per atom       ...     3363
UseSFitting                                  ... on
Initializing property integral containers    ... done (  0.0 sec)

SHARK setup successfully completed in   4.1 seconds

Maximum memory used throughout the entire STARTUP-calculation: 80.1 MB
[1741419228.543818] [ohm:1657780:0]        ib_iface.c:1059 UCX  ERROR ibv_create_cq(cqe=256) failed: Connection timed out
[1741419228.544726] [ohm:1657774:0]        ib_iface.c:1059 UCX  ERROR ibv_create_cq(cqe=256) failed: Connection timed out
[1741419228.544713] [ohm:1657778:0]        ib_iface.c:1059 UCX  ERROR ibv_create_cq(cqe=256) failed: Connection timed out
[1741419228.553871] [ohm:1657776:0]        ib_iface.c:1059 UCX  ERROR ibv_create_cq(cqe=256) failed: Connection timed out
[1741419228.556903] [ohm:1657773:0]        ib_iface.c:1059 UCX  ERROR ibv_create_cq(cqe=256) failed: Connection timed out
[1741419228.560035] [ohm:1657777:0]        ib_iface.c:1059 UCX  ERROR ibv_create_cq(cqe=256) failed: Connection timed out
[1741419228.561757] [ohm:1657775:0]        ib_iface.c:1059 UCX  ERROR ibv_create_cq(cqe=256) failed: Connection timed out
[1741419228.562947] [ohm:1657790:0]        ib_iface.c:1059 UCX  ERROR ibv_create_cq(cqe=256) failed: Connection timed out
[1741419228.563129] [ohm:1657791:0]        ib_iface.c:1059 UCX  ERROR ibv_create_cq(cqe=256) failed: Connection timed out
[1741419228.570814] [ohm:1657781:0]        ib_iface.c:1059 UCX  ERROR ibv_create_cq(cqe=256) failed: Connection timed out
[1741419228.570886] [ohm:1657779:0]        ib_iface.c:1059 UCX  ERROR ibv_create_cq(cqe=256) failed: Connection timed out
[1741419228.574219] [ohm:1657795:0]        ib_iface.c:1059 UCX  ERROR ibv_create_cq(cqe=256) failed: Connection timed out
[1741419228.575123] [ohm:1657784:0]        ib_iface.c:1059 UCX  ERROR ibv_create_cq(cqe=256) failed: Connection timed out
[1741419228.653987] [ohm:1657796:0]        ib_iface.c:1059 UCX  ERROR ibv_create_cq(cqe=256) failed: Connection timed out
[1741419228.666109] [ohm:1657849:0]        ib_iface.c:1059 UCX  ERROR ibv_create_cq(cqe=256) failed: Connection timed out
[1741419228.666413] [ohm:1657783:0]        ib_iface.c:1059 UCX  ERROR ibv_create_cq(cqe=256) failed: Connection timed out
[1741419228.668341] [ohm:1657812:0]        ib_iface.c:1059 UCX  ERROR ibv_create_cq(cqe=256) failed: Connection timed out
[1741419228.676853] [ohm:1657873:0]        ib_iface.c:1059 UCX  ERROR ibv_create_cq(cqe=256) failed: Connection timed out
[1741419228.680492] [ohm:1657906:0]        ib_iface.c:1059 UCX  ERROR ibv_create_cq(cqe=256) failed: Connection timed out
[1741419228.685449] [ohm:1657789:0]        ib_iface.c:1059 UCX  ERROR ibv_create_cq(cqe=256) failed: Connection timed out
[1741419228.689905] [ohm:1657792:0]        ib_iface.c:1059 UCX  ERROR ibv_create_cq(cqe=256) failed: Connection timed out
[1741419228.699690] [ohm:1657782:0]        ib_iface.c:1059 UCX  ERROR ibv_create_cq(cqe=256) failed: Connection timed out
[1741419228.710452] [ohm:1657834:0]        ib_iface.c:1059 UCX  ERROR ibv_create_cq(cqe=256) failed: Connection timed out
[1741419228.714208] [ohm:1657801:0]        ib_iface.c:1059 UCX  ERROR ibv_create_cq(cqe=256) failed: Connection timed out
[1741419228.718010] [ohm:1657908:0]        ib_iface.c:1059 UCX  ERROR ibv_create_cq(cqe=256) failed: Connection timed out
[1741419228.752090] [ohm:1657794:0]        ib_iface.c:1059 UCX  ERROR ibv_create_cq(cqe=256) failed: Connection timed out
[1741419228.753955] [ohm:1657872:0]        ib_iface.c:1059 UCX  ERROR ibv_create_cq(cqe=256) failed: Connection timed out
[1741419228.769520] [ohm:1657793:0]        ib_iface.c:1059 UCX  ERROR ibv_create_cq(cqe=256) failed: Connection timed out
[1741419228.769593] [ohm:1657822:0]        ib_iface.c:1059 UCX  ERROR ibv_create_cq(cqe=256) failed: Connection timed out
[1741419228.771272] [ohm:1657826:0]        ib_iface.c:1059 UCX  ERROR ibv_create_cq(cqe=256) failed: Connection timed out
[1741419228.771640] [ohm:1657864:0]        ib_iface.c:1059 UCX  ERROR ibv_create_cq(cqe=256) failed: Connection timed out
[1741419228.773405] [ohm:1657802:0]        ib_iface.c:1059 UCX  ERROR ibv_create_cq(cqe=256) failed: Connection timed out
[1741419228.774387] [ohm:1657867:0]        ib_iface.c:1059 UCX  ERROR ibv_create_cq(cqe=256) failed: Connection timed out
[1741419228.776948] [ohm:1657817:0]        ib_iface.c:1059 UCX  ERROR ibv_create_cq(cqe=256) failed: Connection timed out
[1741419228.781866] [ohm:1657798:0]        ib_iface.c:1059 UCX  ERROR ibv_create_cq(cqe=256) failed: Connection timed out
[1741419228.783176] [ohm:1657900:0]        ib_iface.c:1059 UCX  ERROR ibv_create_cq(cqe=256) failed: Connection timed out
[1741419228.788704] [ohm:1657837:0]        ib_iface.c:1059 UCX  ERROR ibv_create_cq(cqe=256) failed: Connection timed out
[1741419228.792092] [ohm:1657885:0]        ib_iface.c:1059 UCX  ERROR ibv_create_cq(cqe=256) failed: Connection timed out
[1741419228.794878] [ohm:1657886:0]        ib_iface.c:1059 UCX  ERROR ibv_create_cq(cqe=256) failed: Connection timed out
[1741419228.797052] [ohm:1657890:0]        ib_iface.c:1059 UCX  ERROR ibv_create_cq(cqe=256) failed: Connection timed out
[1741419228.798905] [ohm:1657897:0]        ib_iface.c:1059 UCX  ERROR ibv_create_cq(cqe=256) failed: Connection timed out
[1741419228.800631] [ohm:1657853:0]        ib_iface.c:1059 UCX  ERROR ibv_create_cq(cqe=256) failed: Connection timed out
[1741419228.804997] [ohm:1657788:0]        ib_iface.c:1059 UCX  ERROR ibv_create_cq(cqe=256) failed: Connection timed out
[1741419228.814247] [ohm:1657832:0]        ib_iface.c:1059 UCX  ERROR ibv_create_cq(cqe=256) failed: Connection timed out
[1741419228.818421] [ohm:1657828:0]        ib_iface.c:1059 UCX  ERROR ibv_create_cq(cqe=256) failed: Connection timed out
[1741419228.821063] [ohm:1657805:0]        ib_iface.c:1059 UCX  ERROR ibv_create_cq(cqe=256) failed: Connection timed out
[1741419228.821303] [ohm:1657799:0]        ib_iface.c:1059 UCX  ERROR ibv_create_cq(cqe=256) failed: Connection timed out
[1741419228.824173] [ohm:1657787:0]        ib_iface.c:1059 UCX  ERROR ibv_create_cq(cqe=256) failed: Connection timed out
[1741419228.824798] [ohm:1657785:0]        ib_iface.c:1059 UCX  ERROR ibv_create_cq(cqe=256) failed: Connection timed out
[1741419228.825731] [ohm:1657810:0]        ib_iface.c:1059 UCX  ERROR ibv_create_cq(cqe=256) failed: Connection timed out
[1741419228.827288] [ohm:1657803:0]        ib_iface.c:1059 UCX  ERROR ibv_create_cq(cqe=256) failed: Connection timed out
[1741419228.831766] [ohm:1657894:0]        ib_iface.c:1059 UCX  ERROR ibv_create_cq(cqe=256) failed: Connection timed out
[1741419228.834262] [ohm:1657797:0]        ib_iface.c:1059 UCX  ERROR ibv_create_cq(cqe=256) failed: Connection timed out
[1741419228.834397] [ohm:1657910:0]        ib_iface.c:1059 UCX  ERROR ibv_create_cq(cqe=256) failed: Connection timed out
[1741419228.835391] [ohm:1657859:0]        ib_iface.c:1059 UCX  ERROR ibv_create_cq(cqe=256) failed: Connection timed out
[1741419228.837065] [ohm:1657877:0]        ib_iface.c:1059 UCX  ERROR ibv_create_cq(cqe=256) failed: Connection timed out
[1741419228.837373] [ohm:1657786:0]        ib_iface.c:1059 UCX  ERROR ibv_create_cq(cqe=256) failed: Connection timed out
[1741419228.837716] [ohm:1657920:0]        ib_iface.c:1059 UCX  ERROR ibv_create_cq(cqe=256) failed: Connection timed out
[1741419228.838674] [ohm:1657861:0]        ib_iface.c:1059 UCX  ERROR ibv_create_cq(cqe=256) failed: Connection timed out
[1741419228.839276] [ohm:1657866:0]        ib_iface.c:1059 UCX  ERROR ibv_create_cq(cqe=256) failed: Connection timed out
[1741419228.840310] [ohm:1657842:0]        ib_iface.c:1059 UCX  ERROR ibv_create_cq(cqe=256) failed: Connection timed out
[1741419228.841135] [ohm:1657878:0]        ib_iface.c:1059 UCX  ERROR ibv_create_cq(cqe=256) failed: Connection timed out
[1741419228.843093] [ohm:1657902:0]        ib_iface.c:1059 UCX  ERROR ibv_create_cq(cqe=256) failed: Connection timed out
[1741419228.848029] [ohm:1657800:0]        ib_iface.c:1059 UCX  ERROR ibv_create_cq(cqe=256) failed: Connection timed out


           ************************************************************
           *        Program running with 64 parallel MPI-processes    *
           *              working on a common directory               *
           ************************************************************
-------------------------------------------------------------------------------
                                 ORCA GUESS
                   Start orbitals & Density for SCF / CASSCF
-------------------------------------------------------------------------------

------------
SCF SETTINGS
------------
Hamiltonian:
 Density Functional     Method          .... DFT(GTOs)
  Functional kind                       .... Exchange-Correlation
  Functional name                       .... wB97M-V exchange-correlation functional
  Functional family                     .... Hybrid MGGA
  Functional refs                              
    [ 0] N. Mardirossian and M. Head-Gordon.,  J. Chem. Phys. 144, 214110 (2016), doi: 10.1063/1.4952647
  Fraction of HF Exchange (short range) .... 0.1500
  Fraction of HF Exchange (long range)  .... 1.0000
  Range separation parameter mu         .... 0.3000
  Functional external parameters        .... 17
    Parameter  0 _cx00      =  8.500000e-01 : u^00 coefficient for exchange
    Parameter  1 _cx01      =  1.007000e+00 : u^01 coefficient for exchange
    Parameter  2 _cx10      =  2.590000e-01 : u^10 coefficient for exchange
    Parameter  3 _css00     =  4.430000e-01 : u^00 coefficient for same-spin correlation
    Parameter  4 _css04     = -1.437000e+00 : u^04 coefficient for same-spin correlation
    Parameter  5 _css10     = -4.535000e+00 : u^10 coefficient for same-spin correlation
    Parameter  6 _css20     = -3.390000e+00 : u^20 coefficient for same-spin correlation
    Parameter  7 _css43     =  4.278000e+00 : u^43 coefficient for same-spin correlation
    Parameter  8 _cos00     =  1.000000e+00 : u^00 coefficient for opposite-spin correlation
    Parameter  9 _cos10     =  1.358000e+00 : u^10 coefficient for opposite-spin correlation
    Parameter 10 _cos20     =  2.924000e+00 : u^20 coefficient for opposite-spin correlation
    Parameter 11 _cos21     = -8.812000e+00 : u^21 coefficient for opposite-spin correlation
    Parameter 12 _cos60     = -1.390000e+00 : u^60 coefficient for opposite-spin correlation
    Parameter 13 _cos61     =  9.142000e+00 : u^61 coefficient for opposite-spin correlation
    Parameter 14 _alpha     =  1.000000e+00 : fraction of HF exchange
    Parameter 15 _beta      = -8.500000e-01 : fraction of short-range exchange
    Parameter 16 _omega     =  3.000000e-01 : range-separation constant
 Long-range corrected/Screened/Range-Separated Hybrid DFT is turned on
   Amount of maximum screened exact exchange              ....  0.850000
   Range separation parameter mu (erf(mu*r12)/r12)        ....  0.300000
 RI-approximation to the Coulomb term is turned on
   Number of AuxJ basis functions       .... 1014
   RIJ-COSX (HFX calculated with COS-X)).... on


General Settings:
 Integral files         IntName         .... orca
 Hartree-Fock type      HFTyp           .... UHF
 Total Charge           Charge          ....    0
 Multiplicity           Mult            ....    3
 Number of Electrons    NEL             ....  132
 Basis Dimension        Dim             ....  882
 Nuclear Repulsion      ENuc            ....   1444.4757828007 Eh

Convergence Acceleration:
 AO-DIIS                CNVDIIS         .... on
   Start iteration      DIISMaxIt       ....    12
   Startup error        DIISStart       ....  0.200000
   # of expansion vecs  DIISMaxEq       ....     5
   Bias factor          DIISBfac        ....   1.050
   Max. coefficient     DIISMaxC        ....  10.000
 MO-DIIS                CNVKDIIS        .... off
 Trust-Rad. Augm. Hess. CNVTRAH         .... auto
   Auto Start mean grad. ratio tolernc. ....  1.125000
   Auto Start start iteration           ....    50
   Auto Start num. interpolation iter.  ....    10
   Max. Number of Micro iterations      ....    24
   Max. Number of Macro iterations      .... Maxiter - #DIIS iter
   Number of Davidson start vectors     ....     2
   Converg. threshold    (grad. norm)   ....   1.000e-05
   Grad. Scal. Fac. for Micro threshold ....   0.100
   Minimum threshold for Micro iter.    ....   1.000e-02
   NR start threshold (gradient norm)   ....   1.000e-04
   Initial trust radius                 ....   0.400
   Minimum AH scaling param. (alpha)    ....   1.000
   Maximum AH scaling param. (alpha)    .... 1000.000
   Quad. conv. algorithm                .... NR
   White noise on init. David. guess    .... on
   Maximum white noise                  ....   0.010
   Pseudo random numbers                .... off
   Inactive MOs                         .... canonical
   Orbital update algorithm             .... Taylor
   Preconditioner                       .... Diag
   Full preconditioner red. dimension   ....   250
 SOSCF                  CNVSOSCF        .... on
   Start iteration      SOSCFMaxIt      ....   150
   Startup grad/error   SOSCFStart      ....  0.003300
   Hessian update       SOSCFHessUp     .... L-BFGS
 Level Shifting         CNVShift        .... on
   Level shift para.    LevelShift      ....    0.2500
   Turn off err/grad.   ShiftErr        ....    0.0010
 Zerner damping         CNVZerner       .... off
 Static damping         CNVDamp         .... on
   Fraction old density DampFac         ....    0.7000
   Max. Damping (<1)    DampMax         ....    0.9800
   Min. Damping (>=0)   DampMin         ....    0.0000
   Turn off err/grad.   DampErr         ....    0.1000

SCF Procedure:
 Maximum # iterations   MaxIter         ....   125
 SCF integral mode      SCFMode         .... Direct
   Integral package                     .... SHARK and LIBINT hybrid scheme
 Reset frequency        DirectResetFreq ....    20
 Integral Threshold     Thresh          ....  1.000e-12 Eh
 Primitive CutOff       TCut            ....  1.000e-13 Eh

Convergence Tolerance:
 Convergence Check Mode ConvCheckMode   .... Total+1el-Energy
 Convergence forced     ConvForced      .... 1
 Energy Change          TolE            ....  1.000e-08 Eh
 1-El. energy change                    ....  1.000e-05 Eh
 Orbital Gradient       TolG            ....  1.000e-05
 Orbital Rotation angle TolX            ....  1.000e-05
 DIIS Error             TolErr          ....  5.000e-07

------------------------------
INITIAL GUESS: MODEL POTENTIAL
------------------------------
Loading Hartree-Fock densities                     ... done
Calculating cut-offs                               ... done
Initializing the effective Hamiltonian             ... done
Setting up the integral package (SHARK)            ... done
Starting the Coulomb interaction                   ... done (   0.1 sec)
Making the grid                                    ... done (   0.2 sec)
Mapping shells                                     ... done
Starting the XC term evaluation                    ... done (   0.1 sec)
  promolecular density results
     # of electrons  =    131.994567151
     EX              =   -113.569604487
     EC              =     -4.497079637
     EX+EC           =   -118.066684124
Transforming the Hamiltonian                       ... done (   0.1 sec)
Diagonalizing the Hamiltonian                      ... done (   0.1 sec)
Back transforming the eigenvectors                 ... done (   0.1 sec)
Now organizing SCF variables                       ... done
                      ------------------
                      INITIAL GUESS DONE (   1.1 sec)
                      ------------------
             **** ENERGY FILE WAS UPDATED (orca.en.tmp) ****
Finished Guess after   3.7 sec
Maximum memory used throughout the entire GUESS-calculation: 72.4 MB
[1741419232.544053] [ohm:1658132:0]        ib_iface.c:1059 UCX  ERROR ibv_create_cq(cqe=256) failed: Connection timed out
[1741419232.554944] [ohm:1658128:0]        ib_iface.c:1059 UCX  ERROR ibv_create_cq(cqe=256) failed: Connection timed out
[1741419232.555213] [ohm:1658143:0]        ib_iface.c:1059 UCX  ERROR ibv_create_cq(cqe=256) failed: Connection timed out
[1741419232.556958] [ohm:1658126:0]        ib_iface.c:1059 UCX  ERROR ibv_create_cq(cqe=256) failed: Connection timed out
[1741419232.576013] [ohm:1658127:0]        ib_iface.c:1059 UCX  ERROR ibv_create_cq(cqe=256) failed: Connection timed out
[1741419232.622121] [ohm:1658162:0]        ib_iface.c:1059 UCX  ERROR ibv_create_cq(cqe=256) failed: Connection timed out
[1741419232.631152] [ohm:1658158:0]        ib_iface.c:1059 UCX  ERROR ibv_create_cq(cqe=256) failed: Connection timed out
[1741419232.633661] [ohm:1658142:0]        ib_iface.c:1059 UCX  ERROR ibv_create_cq(cqe=256) failed: Connection timed out
[1741419232.637210] [ohm:1658141:0]        ib_iface.c:1059 UCX  ERROR ibv_create_cq(cqe=256) failed: Connection timed out
[1741419232.651543] [ohm:1658190:0]        ib_iface.c:1059 UCX  ERROR ibv_create_cq(cqe=256) failed: Connection timed out
[1741419232.651841] [ohm:1658148:0]        ib_iface.c:1059 UCX  ERROR ibv_create_cq(cqe=256) failed: Connection timed out
[1741419232.654266] [ohm:1658125:0]        ib_iface.c:1059 UCX  ERROR ibv_create_cq(cqe=256) failed: Connection timed out
[1741419232.665940] [ohm:1658197:0]        ib_iface.c:1059 UCX  ERROR ibv_create_cq(cqe=256) failed: Connection timed out
[1741419232.676866] [ohm:1658145:0]        ib_iface.c:1059 UCX  ERROR ibv_create_cq(cqe=256) failed: Connection timed out
[1741419232.683156] [ohm:1658134:0]        ib_iface.c:1059 UCX  ERROR ibv_create_cq(cqe=256) failed: Connection timed out
[1741419232.703425] [ohm:1658170:0]        ib_iface.c:1059 UCX  ERROR ibv_create_cq(cqe=256) failed: Connection timed out
[1741419232.726359] [ohm:1658186:0]        ib_iface.c:1059 UCX  ERROR ibv_create_cq(cqe=256) failed: Connection timed out
[1741419232.727026] [ohm:1658259:0]        ib_iface.c:1059 UCX  ERROR ibv_create_cq(cqe=256) failed: Connection timed out
[1741419232.728823] [ohm:1658133:0]        ib_iface.c:1059 UCX  ERROR ibv_create_cq(cqe=256) failed: Connection timed out
[1741419232.730660] [ohm:1658179:0]        ib_iface.c:1059 UCX  ERROR ibv_create_cq(cqe=256) failed: Connection timed out
[1741419232.758958] [ohm:1658257:0]        ib_iface.c:1059 UCX  ERROR ibv_create_cq(cqe=256) failed: Connection timed out
[1741419232.772451] [ohm:1658150:0]        ib_iface.c:1059 UCX  ERROR ibv_create_cq(cqe=256) failed: Connection timed out
[1741419232.781260] [ohm:1658246:0]        ib_iface.c:1059 UCX  ERROR ibv_create_cq(cqe=256) failed: Connection timed out
[1741419232.781558] [ohm:1658194:0]        ib_iface.c:1059 UCX  ERROR ibv_create_cq(cqe=256) failed: Connection timed out
[1741419232.786710] [ohm:1658243:0]        ib_iface.c:1059 UCX  ERROR ibv_create_cq(cqe=256) failed: Connection timed out
[1741419232.792088] [ohm:1658217:0]        ib_iface.c:1059 UCX  ERROR ibv_create_cq(cqe=256) failed: Connection timed out
[1741419232.795617] [ohm:1658215:0]        ib_iface.c:1059 UCX  ERROR ibv_create_cq(cqe=256) failed: Connection timed out
[1741419232.800223] [ohm:1658131:0]        ib_iface.c:1059 UCX  ERROR ibv_create_cq(cqe=256) failed: Connection timed out
[1741419232.800345] [ohm:1658266:0]        ib_iface.c:1059 UCX  ERROR ibv_create_cq(cqe=256) failed: Connection timed out
[1741419232.800572] [ohm:1658140:0]        ib_iface.c:1059 UCX  ERROR ibv_create_cq(cqe=256) failed: Connection timed out
[1741419232.801273] [ohm:1658136:0]        ib_iface.c:1059 UCX  ERROR ibv_create_cq(cqe=256) failed: Connection timed out
[1741419232.810375] [ohm:1658209:0]        ib_iface.c:1059 UCX  ERROR ibv_create_cq(cqe=256) failed: Connection timed out
[1741419232.815367] [ohm:1658137:0]        ib_iface.c:1059 UCX  ERROR ibv_create_cq(cqe=256) failed: Connection timed out
[1741419232.818791] [ohm:1658139:0]        ib_iface.c:1059 UCX  ERROR ibv_create_cq(cqe=256) failed: Connection timed out
[1741419232.822923] [ohm:1658253:0]        ib_iface.c:1059 UCX  ERROR ibv_create_cq(cqe=256) failed: Connection timed out
[1741419232.828107] [ohm:1658237:0]        ib_iface.c:1059 UCX  ERROR ibv_create_cq(cqe=256) failed: Connection timed out
[1741419232.854311] [ohm:1658239:0]        ib_iface.c:1059 UCX  ERROR ibv_create_cq(cqe=256) failed: Connection timed out
[1741419232.858631] [ohm:1658220:0]        ib_iface.c:1059 UCX  ERROR ibv_create_cq(cqe=256) failed: Connection timed out
[1741419232.859990] [ohm:1658154:0]        ib_iface.c:1059 UCX  ERROR ibv_create_cq(cqe=256) failed: Connection timed out
[1741419232.867268] [ohm:1658130:0]        ib_iface.c:1059 UCX  ERROR ibv_create_cq(cqe=256) failed: Connection timed out
[1741419232.869885] [ohm:1658124:0]        ib_iface.c:1059 UCX  ERROR ibv_create_cq(cqe=256) failed: Connection timed out
[1741419232.870724] [ohm:1658151:0]        ib_iface.c:1059 UCX  ERROR ibv_create_cq(cqe=256) failed: Connection timed out
[1741419232.872990] [ohm:1658177:0]        ib_iface.c:1059 UCX  ERROR ibv_create_cq(cqe=256) failed: Connection timed out
[1741419232.875153] [ohm:1658251:0]        ib_iface.c:1059 UCX  ERROR ibv_create_cq(cqe=256) failed: Connection timed out
[1741419232.876443] [ohm:1658225:0]        ib_iface.c:1059 UCX  ERROR ibv_create_cq(cqe=256) failed: Connection timed out
[1741419232.880960] [ohm:1658149:0]        ib_iface.c:1059 UCX  ERROR ibv_create_cq(cqe=256) failed: Connection timed out
[1741419232.888771] [ohm:1658208:0]        ib_iface.c:1059 UCX  ERROR ibv_create_cq(cqe=256) failed: Connection timed out
[1741419232.889510] [ohm:1658144:0]        ib_iface.c:1059 UCX  ERROR ibv_create_cq(cqe=256) failed: Connection timed out
[1741419232.893381] [ohm:1658129:0]        ib_iface.c:1059 UCX  ERROR ibv_create_cq(cqe=256) failed: Connection timed out
[1741419232.893741] [ohm:1658234:0]        ib_iface.c:1059 UCX  ERROR ibv_create_cq(cqe=256) failed: Connection timed out
[1741419232.899420] [ohm:1658223:0]        ib_iface.c:1059 UCX  ERROR ibv_create_cq(cqe=256) failed: Connection timed out
[1741419232.899639] [ohm:1658229:0]        ib_iface.c:1059 UCX  ERROR ibv_create_cq(cqe=256) failed: Connection timed out
[1741419232.900794] [ohm:1658262:0]        ib_iface.c:1059 UCX  ERROR ibv_create_cq(cqe=256) failed: Connection timed out
[1741419232.900934] [ohm:1658232:0]        ib_iface.c:1059 UCX  ERROR ibv_create_cq(cqe=256) failed: Connection timed out
[1741419232.900925] [ohm:1658135:0]        ib_iface.c:1059 UCX  ERROR ibv_create_cq(cqe=256) failed: Connection timed out
[1741419232.901262] [ohm:1658165:0]        ib_iface.c:1059 UCX  ERROR ibv_create_cq(cqe=256) failed: Connection timed out
[1741419232.902294] [ohm:1658138:0]        ib_iface.c:1059 UCX  ERROR ibv_create_cq(cqe=256) failed: Connection timed out
[1741419232.902346] [ohm:1658153:0]        ib_iface.c:1059 UCX  ERROR ibv_create_cq(cqe=256) failed: Connection timed out
[1741419232.905008] [ohm:1658146:0]        ib_iface.c:1059 UCX  ERROR ibv_create_cq(cqe=256) failed: Connection timed out
[1741419232.905009] [ohm:1658173:0]        ib_iface.c:1059 UCX  ERROR ibv_create_cq(cqe=256) failed: Connection timed out
[1741419232.905759] [ohm:1658202:0]        ib_iface.c:1059 UCX  ERROR ibv_create_cq(cqe=256) failed: Connection timed out
[1741419232.908447] [ohm:1658152:0]        ib_iface.c:1059 UCX  ERROR ibv_create_cq(cqe=256) failed: Connection timed out
[1741419232.909082] [ohm:1658183:0]        ib_iface.c:1059 UCX  ERROR ibv_create_cq(cqe=256) failed: Connection timed out
[1741419232.915019] [ohm:1658147:0]        ib_iface.c:1059 UCX  ERROR ibv_create_cq(cqe=256) failed: Connection timed out


           ************************************************************
           *        Program running with 64 parallel MPI-processes    *
           *              working on a common directory               *
           ************************************************************

-------------------------------------------------------------------------------------------
                                      ORCA LEAN-SCF
                              memory conserving SCF solver
-------------------------------------------------------------------------------------------

----------------------------------------D-I-I-S--------------------------------------------
Iteration    Energy (Eh)           Delta-E    RMSDP     MaxDP     DIISErr   Damp  Time(sec)
-------------------------------------------------------------------------------------------
               ***  Starting incremental Fock matrix formation  ***
    1    -908.1258379617572700     0.00e+00  2.00e-03  3.36e-01  1.48e-01  0.700   7.8
    2    -908.3933185316534491    -2.67e-01  1.58e-03  2.41e-01  7.11e-02  0.700   6.6
                               ***Turning on AO-DIIS***
    3    -908.5110816321755465    -1.18e-01  1.09e-03  1.57e-01  2.80e-02  0.700   5.8
    4    -908.5835484027318216    -7.25e-02  2.53e-03  3.42e-01  1.93e-02  0.000   5.8
    5    -908.7463742044540140    -1.63e-01  3.22e-04  8.11e-02  5.41e-03  0.000   6.0
                              *** Initializing SOSCF ***
---------------------------------------S-O-S-C-F--------------------------------------
Iteration    Energy (Eh)           Delta-E    RMSDP     MaxDP     MaxGrad    Time(sec)
--------------------------------------------------------------------------------------
    6    -908.7476561153960120    -1.28e-03  1.60e-04  4.81e-02  2.48e-03     6.7
               *** Restarting incremental Fock matrix formation ***
    7    -908.7482196649341404    -5.64e-04  1.85e-04  3.61e-02  4.78e-03     7.4
    8    -908.7485708116366823    -3.51e-04  2.54e-04  7.59e-02  2.43e-03     6.6
    9    -908.7486809720078327    -1.10e-04  8.03e-05  9.58e-03  9.01e-04     6.7
   10    -908.7487424002772514    -6.14e-05  3.65e-05  1.20e-02  4.09e-04     6.5
   11    -908.7487499620649487    -7.56e-06  6.57e-06  8.94e-04  1.32e-04     6.2
   12    -908.7487513434991797    -1.38e-06  6.08e-06  1.29e-03  1.37e-04     6.0
   13    -908.7487520769930143    -7.33e-07  3.82e-06  6.41e-04  3.02e-05     6.0
   14    -908.7487522240455746    -1.47e-07  2.19e-06  5.16e-04  2.14e-05     5.9
   15    -908.7487522575536332    -3.35e-08  1.50e-06  2.33e-04  8.20e-06     5.7
   16    -908.7487522531707782     4.38e-09  1.23e-06  2.37e-04  2.53e-06     5.6
                 **** Energy Check signals convergence ****

               *****************************************************
               *                     SUCCESS                       *
               *           SCF CONVERGED AFTER  16 CYCLES          *
               *****************************************************

Recomputing exchange energy using gridx3       ... done (    7.925 sec)
Old exchange energy                            :    -35.041856071 Eh
New exchange energy                            :    -35.041848392 Eh
Exchange energy change after final integration :      0.000007679 Eh
Total energy after final integration           :   -908.748744574 Eh
             **** ENERGY FILE WAS UPDATED (orca.en.tmp) ****

----------------
TOTAL SCF ENERGY
----------------

Total Energy       :       -908.74874457426563 Eh          -24728.31050 eV

Components:
Nuclear Repulsion  :       1444.47578280073481 Eh           39306.18434 eV
Electronic Energy  :      -2353.22453505390558 Eh          -64034.49505 eV
One Electron Energy:      -4105.64992743936727 Eh         -111720.41428 eV
Two Electron Energy:       1752.42539238546169 Eh           47685.91923 eV

Virial components:
Potential Energy   :      -1814.62469452839514 Eh          -49378.44829 eV
Kinetic Energy     :        905.87594995412951 Eh           24650.13779 eV
Virial Ratio       :          2.00317128920387

DFT components:
N(Alpha)           :       66.999953346727 electrons
N(Beta)            :       64.999971232719 electrons
N(Total)           :      131.999924579446 electrons
E(XC)              :      -86.281179276047 Eh       

---------------
SCF CONVERGENCE
---------------

  Last Energy change         ...   -4.3829e-09  Tolerance :   1.0000e-08
  Last MAX-Density change    ...    2.3702e-04  Tolerance :   1.0000e-07
  Last RMS-Density change    ...    1.2291e-06  Tolerance :   5.0000e-09
  Last DIIS Error            ...    2.4814e-03  Tolerance :   5.0000e-07
  Last Orbital Gradient      ...    2.5279e-06  Tolerance :   1.0000e-05
  Last Orbital Rotation      ...    1.0788e-05  Tolerance :   1.0000e-05


----------------------
UHF SPIN CONTAMINATION
----------------------

Warning: in a DFT calculation there is little theoretical justification to 
         calculate <S**2> as in Hartree-Fock theory. We will do it anyways
         but you should keep in mind that the values have only limited relevance

Expectation value of <S**2>     :     2.011394
Ideal value S*(S+1) for S=1.0   :     2.000000
Deviation                       :     0.011394

----------------
ORBITAL ENERGIES
----------------
                 SPIN UP ORBITALS
  NO   OCC          E(Eh)            E(eV) 
   0   1.0000     -19.332723      -526.0701 
   1   1.0000     -19.332295      -526.0585 
   2   1.0000     -19.331803      -526.0451 
   3   1.0000     -19.328213      -525.9474 
   4   1.0000     -14.572617      -396.5411 
   5   1.0000     -14.570680      -396.4884 
   6   1.0000     -14.565663      -396.3518 
   7   1.0000     -14.563047      -396.2807 
   8   1.0000     -10.519132      -286.2401 
   9   1.0000     -10.514163      -286.1049 
  10   1.0000     -10.477539      -285.1083 
  11   1.0000     -10.476921      -285.0915 
  12   1.0000     -10.450919      -284.3840 
  13   1.0000     -10.450659      -284.3769 
  14   1.0000     -10.413454      -283.3645 
  15   1.0000     -10.412651      -283.3426 
  16   1.0000     -10.373743      -282.2839 
  17   1.0000     -10.371721      -282.2289 
  18   1.0000      -1.225528       -33.3483 
  19   1.0000      -1.217778       -33.1374 
  20   1.0000      -1.203867       -32.7589 
  21   1.0000      -1.188269       -32.3344 
  22   1.0000      -1.125101       -30.6156 
  23   1.0000      -1.103652       -30.0319 
  24   1.0000      -1.074212       -29.2308 
  25   1.0000      -1.058723       -28.8093 
  26   1.0000      -0.989716       -26.9315 
  27   1.0000      -0.961668       -26.1683 
  28   1.0000      -0.892630       -24.2897 
  29   1.0000      -0.849765       -23.1233 
  30   1.0000      -0.826611       -22.4932 
  31   1.0000      -0.804245       -21.8846 
  32   1.0000      -0.800697       -21.7881 
  33   1.0000      -0.786221       -21.3942 
  34   1.0000      -0.702919       -19.1274 
  35   1.0000      -0.698736       -19.0136 
  36   1.0000      -0.692960       -18.8564 
  37   1.0000      -0.683657       -18.6033 
  38   1.0000      -0.659234       -17.9387 
  39   1.0000      -0.639451       -17.4004 
  40   1.0000      -0.624905       -17.0045 
  41   1.0000      -0.603947       -16.4342 
  42   1.0000      -0.598512       -16.2863 
  43   1.0000      -0.588309       -16.0087 
  44   1.0000      -0.578104       -15.7310 
  45   1.0000      -0.572628       -15.5820 
  46   1.0000      -0.570079       -15.5127 
  47   1.0000      -0.564898       -15.3716 
  48   1.0000      -0.558024       -15.1846 
  49   1.0000      -0.556475       -15.1424 
  50   1.0000      -0.549303       -14.9473 
  51   1.0000      -0.539491       -14.6803 
  52   1.0000      -0.534527       -14.5452 
  53   1.0000      -0.520294       -14.1579 
  54   1.0000      -0.517848       -14.0914 
  55   1.0000      -0.504409       -13.7257 
  56   1.0000      -0.501964       -13.6591 
  57   1.0000      -0.429686       -11.6924 
  58   1.0000      -0.427402       -11.6302 
  59   1.0000      -0.410330       -11.1657 
  60   1.0000      -0.407946       -11.1008 
  61   1.0000      -0.403434       -10.9780 
  62   1.0000      -0.397928       -10.8282 
  63   1.0000      -0.393908       -10.7188 
  64   1.0000      -0.388442       -10.5700 
  65   1.0000      -0.345323        -9.3967 
  66   1.0000      -0.319790        -8.7019 
  67   0.0000       0.006141         0.1671 
  68   0.0000       0.029805         0.8110 
  69   0.0000       0.032752         0.8912 
  70   0.0000       0.036497         0.9931 
  71   0.0000       0.051241         1.3944 
  72   0.0000       0.055475         1.5096 
  73   0.0000       0.057912         1.5759 
  74   0.0000       0.062466         1.6998 
  75   0.0000       0.063552         1.7293 
  76   0.0000       0.067237         1.8296 
  77   0.0000       0.074211         2.0194 

                 SPIN DOWN ORBITALS
  NO   OCC          E(Eh)            E(eV) 
   0   1.0000     -19.332167      -526.0550 
   1   1.0000     -19.329211      -525.9746 
   2   1.0000     -19.328116      -525.9448 
   3   1.0000     -19.328098      -525.9443 
   4   1.0000     -14.572110      -396.5273 
   5   1.0000     -14.570220      -396.4759 
   6   1.0000     -14.565380      -396.3442 
   7   1.0000     -14.562214      -396.2580 
   8   1.0000     -10.519182      -286.2415 
   9   1.0000     -10.514212      -286.1063 
  10   1.0000     -10.478447      -285.1330 
  11   1.0000     -10.477849      -285.1168 
  12   1.0000     -10.450227      -284.3651 
  13   1.0000     -10.450056      -284.3605 
  14   1.0000     -10.402060      -283.0545 
  15   1.0000     -10.401464      -283.0382 
  16   1.0000     -10.374372      -282.3010 
  17   1.0000     -10.372272      -282.2439 
  18   1.0000      -1.224211       -33.3125 
  19   1.0000      -1.214763       -33.0554 
  20   1.0000      -1.199384       -32.6369 
  21   1.0000      -1.185338       -32.2547 
  22   1.0000      -1.122585       -30.5471 
  23   1.0000      -1.101692       -29.9786 
  24   1.0000      -1.072309       -29.1790 
  25   1.0000      -1.056973       -28.7617 
  26   1.0000      -0.976264       -26.5655 
  27   1.0000      -0.944440       -25.6995 
  28   1.0000      -0.886566       -24.1247 
  29   1.0000      -0.844971       -22.9928 
  30   1.0000      -0.817927       -22.2569 
  31   1.0000      -0.802679       -21.8420 
  32   1.0000      -0.795351       -21.6426 
  33   1.0000      -0.784435       -21.3456 
  34   1.0000      -0.697314       -18.9749 
  35   1.0000      -0.694349       -18.8942 
  36   1.0000      -0.685751       -18.6602 
  37   1.0000      -0.676286       -18.4027 
  38   1.0000      -0.646261       -17.5856 
  39   1.0000      -0.634636       -17.2693 
  40   1.0000      -0.620312       -16.8795 
  41   1.0000      -0.600111       -16.3298 
  42   1.0000      -0.592173       -16.1139 
  43   1.0000      -0.583990       -15.8912 
  44   1.0000      -0.573347       -15.6016 
  45   1.0000      -0.569085       -15.4856 
  46   1.0000      -0.563388       -15.3306 
  47   1.0000      -0.555846       -15.1253 
  48   1.0000      -0.547612       -14.9013 
  49   1.0000      -0.546718       -14.8769 
  50   1.0000      -0.542094       -14.7511 
  51   1.0000      -0.530978       -14.4486 
  52   1.0000      -0.525371       -14.2961 
  53   1.0000      -0.515071       -14.0158 
  54   1.0000      -0.511509       -13.9189 
  55   1.0000      -0.497903       -13.5486 
  56   1.0000      -0.493304       -13.4235 
  57   1.0000      -0.425468       -11.5776 
  58   1.0000      -0.421800       -11.4777 
  59   1.0000      -0.406255       -11.0548 
  60   1.0000      -0.398113       -10.8332 
  61   1.0000      -0.392584       -10.6828 
  62   1.0000      -0.391576       -10.6553 
  63   1.0000      -0.388501       -10.5717 
  64   1.0000      -0.379813       -10.3352 
  65   0.0000      -0.062787        -1.7085 
  66   0.0000      -0.047311        -1.2874 
  67   0.0000       0.005731         0.1560 
  68   0.0000       0.029378         0.7994 
  69   0.0000       0.032766         0.8916 
  70   0.0000       0.036418         0.9910 
  71   0.0000       0.055398         1.5075 
  72   0.0000       0.056402         1.5348 
  73   0.0000       0.059173         1.6102 
  74   0.0000       0.062676         1.7055 
  75   0.0000       0.064334         1.7506 
*Only the first 10 virtual orbitals were printed.

                    ********************************
                    * MULLIKEN POPULATION ANALYSIS *
                    ********************************

--------------------------------------------
MULLIKEN ATOMIC CHARGES AND SPIN POPULATIONS
--------------------------------------------
   0 O :   -0.666730    0.131898
   1 O :   -0.659114    0.138667
   2 O :   -0.625063    0.004192
   3 O :   -0.668752    0.004656
   4 N :   -0.263025    0.031766
   5 N :   -0.178965    0.036263
   6 N :    0.044455    0.037736
   7 N :   -0.061420    0.021413
   8 C :   -0.328866    0.452309
   9 C :   -0.272867    0.384585
  10 C :    0.689143    0.163460
  11 C :    0.922033    0.231036
  12 C :   -1.378739    0.003121
  13 C :   -1.434464   -0.015964
  14 C :    0.586606    0.101450
  15 C :    0.395929    0.111306
  16 C :    0.363087   -0.007903
  17 C :    0.344105   -0.006258
  18 H :    0.549583    0.008792
  19 H :    0.437380    0.035500
  20 H :    0.336933    0.030705
  21 H :    0.260261    0.038317
  22 H :    0.367382   -0.002581
  23 H :    0.289951    0.025749
  24 H :    0.365123    0.033980
  25 H :    0.313927    0.009896
  26 H :    0.054699    0.000319
  27 H :    0.031151   -0.001764
  28 H :    0.080537   -0.002181
  29 H :    0.105721   -0.000465
Sum of atomic charges         :   -0.0000000
Sum of atomic spin populations:    2.0000000

-----------------------------------------------------
MULLIKEN REDUCED ORBITAL CHARGES AND SPIN POPULATIONS
-----------------------------------------------------
CHARGE
  0 O s       :     4.096110  s :     4.096110
      pz      :     1.587042  p :     4.537807
      px      :     1.429701
      py      :     1.521064
      dz2     :     0.005395  d :     0.030884
      dxz     :     0.007990
      dyz     :     0.005330
      dx2y2   :     0.004587
      dxy     :     0.007582
      f0      :     0.000201  f :     0.001929
      f+1     :     0.000521
      f-1     :     0.000037
      f+2     :     0.000381
      f-2     :     0.000392
      f+3     :     0.000172
[...]
[1741419509.571782] [ohm:1660678:0]        ib_iface.c:1059 UCX  ERROR ibv_create_cq(cqe=256) failed: Connection timed out
[1741419509.572149] [ohm:1660569:0]        ib_iface.c:1059 UCX  ERROR ibv_create_cq(cqe=256) failed: Connection timed out
[1741419509.573444] [ohm:1660683:0]        ib_iface.c:1059 UCX  ERROR ibv_create_cq(cqe=256) failed: Connection timed out
[1741419509.573452] [ohm:1660586:0]        ib_iface.c:1059 UCX  ERROR ibv_create_cq(cqe=256) failed: Connection timed out
[1741419509.574169] [ohm:1660654:0]        ib_iface.c:1059 UCX  ERROR ibv_create_cq(cqe=256) failed: Connection timed out
[1741419509.575290] [ohm:1660568:0]        ib_iface.c:1059 UCX  ERROR ibv_create_cq(cqe=256) failed: Connection timed out
[1741419509.575935] [ohm:1660656:0]        ib_iface.c:1059 UCX  ERROR ibv_create_cq(cqe=256) failed: Connection timed out
[1741419509.576889] [ohm:1660594:0]        ib_iface.c:1059 UCX  ERROR ibv_create_cq(cqe=256) failed: Connection timed out
[1741419509.577682] [ohm:1660666:0]        ib_iface.c:1059 UCX  ERROR ibv_create_cq(cqe=256) failed: Connection timed out
[1741419509.579493] [ohm:1660715:0]        ib_iface.c:1059 UCX  ERROR ibv_create_cq(cqe=256) failed: Connection timed out


           ************************************************************
           *        Program running with 64 parallel MPI-processes    *
           *              working on a common directory               *
           ************************************************************

------------------------------------------------------------------------------
                              ORCA PROPERTY CALCULATIONS
------------------------------------------------------------------------------

GBWName                                 ... orca.gbw
Number of atoms                         ...     30
Number of basis functions               ...    882
Max core memory                         ...   1024 MB

Electric properties:
Dipole moment                           ... YES
Quadrupole moment                       ...  NO
Static polarizability (Dipole/Dipole)   ...  NO
Static polarizability (Dipole/Quad.)    ...  NO
Static polarizability (Quad./Quad.)     ...  NO
Static polarizability (Velocity)        ...  NO

Atomic electric properties:
Dipole moment                           ...  NO
Quadrupole moment                       ...  NO
Static polarizability                   ...  NO

Choice of electric origin               ... Center of mass
Position of electric origin             ...    -0.013123    -0.086573    -0.044668

General magnetic properties:
Magnetizability                         ...  NO

EPR properties:
g-Tensor (aka g-matrix)                 ...  NO
Zero-Field splitting spin-orbit         ...  NO
Zero-field splitting spin-spin          ...  NO
Hyperfine couplings                     ...  NO (   0 nuclei)
Quadrupole couplings                    ...  NO (   0 nuclei)
Contact density                         ...  NO (   0 nuclei)

NMR properties:
Chemical shifts                         ...  NO (   0 nuclei)
Spin-rotation constants                 ...  NO (   0 nuclei)
Spin-spin couplings                     ...  NO (   0 nuclei,    0 pairs)

Choice of magnetic origin               ... GIAO
Position of magnetic origin             ...     0.000000     0.000000     0.000000

Properties with geometric perturbations:
SCF Hessian                             ...  NO
IR spectrum                             ...  NO
VCD spectrum                            ...  NO
X-ray spectroscopy properties:
SCF XES/XAS/RIXS spectra                ...  NO


-------------
DIPOLE MOMENT
-------------

Method             : SCF
Type of density    : Electron Density
Multiplicity       :   3
Irrep              :   0
Energy             :  -908.7487445742656291 Eh
Relativity type    : 
Basis              : AO
                                X                 Y                 Z
Electronic contribution:     -9.782645809      -6.620801239      -1.784986175
Nuclear contribution   :     11.472329240       8.066505167       3.337921302
                        -----------------------------------------
Total Dipole Moment    :      1.689683430       1.445703928       1.552935126
                        -----------------------------------------
Magnitude (a.u.)       :      2.712323257
Magnitude (Debye)      :      6.894177829



--------------------
Rotational spectrum 
--------------------
 
Rotational constants in cm-1:             0.021585             0.012729             0.012118 
Rotational constants in MHz :           647.100350           381.603199           363.302534 

Dipole components along the rotational axes: 
x,y,z [a.u.] :    -0.742923     1.796674     1.891223 
x,y,z [Debye]:    -1.888361     4.566782     4.807108 

 

-------------
DIPOLE MOMENT
-------------

Method             : TDA/CIS
Type of density    : Electron Density
Level              : Relaxed density
State              :   2
Multiplicity       :   3
Irrep              :   0
Energy             :     0.0000000000000000 Eh
Relativity type    : 
Basis              : AO
                                X                 Y                 Z
Electronic contribution:     -9.690714159      -6.595926403      -1.732626158
Nuclear contribution   :     11.472329240       8.066505167       3.337921302
                        -----------------------------------------
Total Dipole Moment    :      1.781615081       1.470578764       1.605295144
                        -----------------------------------------
Magnitude (a.u.)       :      2.813134674
Magnitude (Debye)      :      7.150420089



--------------------
Rotational spectrum 
--------------------
 
Rotational constants in cm-1:             0.021585             0.012729             0.012118 
Rotational constants in MHz :           647.100350           381.603199           363.302534 

Dipole components along the rotational axes: 
x,y,z [a.u.] :    -0.805598     1.842324     1.967379 
x,y,z [Debye]:    -2.047667     4.682816     5.000680 

 

Dipole moment calculation done in   0.2 sec 

Maximum memory used throughout the entire PROP-calculation: 81.6 MB
[1741419511.972701] [ohm:1660914:0]        ib_iface.c:1059 UCX  ERROR ibv_create_cq(cqe=256) failed: Connection timed out
[1741419511.973582] [ohm:1660919:0]        ib_iface.c:1059 UCX  ERROR ibv_create_cq(cqe=256) failed: Connection timed out
[1741419511.982186] [ohm:1660916:0]        ib_iface.c:1059 UCX  ERROR ibv_create_cq(cqe=256) failed: Connection timed out
[1741419511.989020] [ohm:1660918:0]        ib_iface.c:1059 UCX  ERROR ibv_create_cq(cqe=256) failed: Connection timed out
[1741419512.022827] [ohm:1660915:0]        ib_iface.c:1059 UCX  ERROR ibv_create_cq(cqe=256) failed: Connection timed out
[1741419512.031991] [ohm:1660926:0]        ib_iface.c:1059 UCX  ERROR ibv_create_cq(cqe=256) failed: Connection timed out
[1741419512.032299] [ohm:1660917:0]        ib_iface.c:1059 UCX  ERROR ibv_create_cq(cqe=256) failed: Connection timed out
[1741419512.034866] [ohm:1660920:0]        ib_iface.c:1059 UCX  ERROR ibv_create_cq(cqe=256) failed: Connection timed out
[1741419512.036803] [ohm:1660921:0]        ib_iface.c:1059 UCX  ERROR ibv_create_cq(cqe=256) failed: Connection timed out
[1741419512.057004] [ohm:1660925:0]        ib_iface.c:1059 UCX  ERROR ibv_create_cq(cqe=256) failed: Connection timed out
[1741419512.084790] [ohm:1660927:0]        ib_iface.c:1059 UCX  ERROR ibv_create_cq(cqe=256) failed: Connection timed out
[1741419512.118651] [ohm:1660931:0]        ib_iface.c:1059 UCX  ERROR ibv_create_cq(cqe=256) failed: Connection timed out
[1741419512.135611] [ohm:1660932:0]        ib_iface.c:1059 UCX  ERROR ibv_create_cq(cqe=256) failed: Connection timed out
[1741419512.149671] [ohm:1660943:0]        ib_iface.c:1059 UCX  ERROR ibv_create_cq(cqe=256) failed: Connection timed out
[1741419512.153449] [ohm:1660969:0]        ib_iface.c:1059 UCX  ERROR ibv_create_cq(cqe=256) failed: Connection timed out
[1741419512.159666] [ohm:1660923:0]        ib_iface.c:1059 UCX  ERROR ibv_create_cq(cqe=256) failed: Connection timed out
[1741419512.168559] [ohm:1660924:0]        ib_iface.c:1059 UCX  ERROR ibv_create_cq(cqe=256) failed: Connection timed out
[1741419512.175666] [ohm:1660939:0]        ib_iface.c:1059 UCX  ERROR ibv_create_cq(cqe=256) failed: Connection timed out
[1741419512.183081] [ohm:1660934:0]        ib_iface.c:1059 UCX  ERROR ibv_create_cq(cqe=256) failed: Connection timed out
[1741419512.198457] [ohm:1660922:0]        ib_iface.c:1059 UCX  ERROR ibv_create_cq(cqe=256) failed: Connection timed out
[1741419512.200108] [ohm:1660929:0]        ib_iface.c:1059 UCX  ERROR ibv_create_cq(cqe=256) failed: Connection timed out
[1741419512.203172] [ohm:1660933:0]        ib_iface.c:1059 UCX  ERROR ibv_create_cq(cqe=256) failed: Connection timed out
[1741419512.206289] [ohm:1660947:0]        ib_iface.c:1059 UCX  ERROR ibv_create_cq(cqe=256) failed: Connection timed out
[1741419512.212960] [ohm:1660941:0]        ib_iface.c:1059 UCX  ERROR ibv_create_cq(cqe=256) failed: Connection timed out
[1741419512.217770] [ohm:1660942:0]        ib_iface.c:1059 UCX  ERROR ibv_create_cq(cqe=256) failed: Connection timed out
[1741419512.218720] [ohm:1660930:0]        ib_iface.c:1059 UCX  ERROR ibv_create_cq(cqe=256) failed: Connection timed out
[1741419512.219848] [ohm:1660960:0]        ib_iface.c:1059 UCX  ERROR ibv_create_cq(cqe=256) failed: Connection timed out
[1741419512.220868] [ohm:1660936:0]        ib_iface.c:1059 UCX  ERROR ibv_create_cq(cqe=256) failed: Connection timed out
[1741419512.226459] [ohm:1661024:0]        ib_iface.c:1059 UCX  ERROR ibv_create_cq(cqe=256) failed: Connection timed out
[1741419512.235492] [ohm:1660966:0]        ib_iface.c:1059 UCX  ERROR ibv_create_cq(cqe=256) failed: Connection timed out
[1741419512.237125] [ohm:1661021:0]        ib_iface.c:1059 UCX  ERROR ibv_create_cq(cqe=256) failed: Connection timed out
[1741419512.247050] [ohm:1660999:0]        ib_iface.c:1059 UCX  ERROR ibv_create_cq(cqe=256) failed: Connection timed out
[1741419512.249170] [ohm:1661036:0]        ib_iface.c:1059 UCX  ERROR ibv_create_cq(cqe=256) failed: Connection timed out
[1741419512.255059] [ohm:1660983:0]        ib_iface.c:1059 UCX  ERROR ibv_create_cq(cqe=256) failed: Connection timed out
[1741419512.262261] [ohm:1660928:0]        ib_iface.c:1059 UCX  ERROR ibv_create_cq(cqe=256) failed: Connection timed out
[1741419512.263051] [ohm:1660974:0]        ib_iface.c:1059 UCX  ERROR ibv_create_cq(cqe=256) failed: Connection timed out
[1741419512.271319] [ohm:1660996:0]        ib_iface.c:1059 UCX  ERROR ibv_create_cq(cqe=256) failed: Connection timed out
[1741419512.271794] [ohm:1660986:0]        ib_iface.c:1059 UCX  ERROR ibv_create_cq(cqe=256) failed: Connection timed out
[1741419512.276723] [ohm:1661047:0]        ib_iface.c:1059 UCX  ERROR ibv_create_cq(cqe=256) failed: Connection timed out
[1741419512.279969] [ohm:1661052:0]        ib_iface.c:1059 UCX  ERROR ibv_create_cq(cqe=256) failed: Connection timed out
[1741419512.280977] [ohm:1661032:0]        ib_iface.c:1059 UCX  ERROR ibv_create_cq(cqe=256) failed: Connection timed out
[1741419512.284955] [ohm:1661016:0]        ib_iface.c:1059 UCX  ERROR ibv_create_cq(cqe=256) failed: Connection timed out
[1741419512.286362] [ohm:1660938:0]        ib_iface.c:1059 UCX  ERROR ibv_create_cq(cqe=256) failed: Connection timed out
[1741419512.290056] [ohm:1660944:0]        ib_iface.c:1059 UCX  ERROR ibv_create_cq(cqe=256) failed: Connection timed out
[1741419512.293297] [ohm:1660952:0]        ib_iface.c:1059 UCX  ERROR ibv_create_cq(cqe=256) failed: Connection timed out
[1741419512.300842] [ohm:1661014:0]        ib_iface.c:1059 UCX  ERROR ibv_create_cq(cqe=256) failed: Connection timed out
[1741419512.303194] [ohm:1661011:0]        ib_iface.c:1059 UCX  ERROR ibv_create_cq(cqe=256) failed: Connection timed out
[1741419512.304965] [ohm:1660992:0]        ib_iface.c:1059 UCX  ERROR ibv_create_cq(cqe=256) failed: Connection timed out
[1741419512.309612] [ohm:1661043:0]        ib_iface.c:1059 UCX  ERROR ibv_create_cq(cqe=256) failed: Connection timed out
[1741419512.310399] [ohm:1661040:0]        ib_iface.c:1059 UCX  ERROR ibv_create_cq(cqe=256) failed: Connection timed out
[1741419512.312658] [ohm:1661033:0]        ib_iface.c:1059 UCX  ERROR ibv_create_cq(cqe=256) failed: Connection timed out
[1741419512.316489] [ohm:1661002:0]        ib_iface.c:1059 UCX  ERROR ibv_create_cq(cqe=256) failed: Connection timed out
[1741419512.316658] [ohm:1661029:0]        ib_iface.c:1059 UCX  ERROR ibv_create_cq(cqe=256) failed: Connection timed out
[1741419512.321824] [ohm:1660955:0]        ib_iface.c:1059 UCX  ERROR ibv_create_cq(cqe=256) failed: Connection timed out
[1741419512.322389] [ohm:1660980:0]        ib_iface.c:1059 UCX  ERROR ibv_create_cq(cqe=256) failed: Connection timed out
[1741419512.323309] [ohm:1661008:0]        ib_iface.c:1059 UCX  ERROR ibv_create_cq(cqe=256) failed: Connection timed out
[1741419512.324873] [ohm:1660964:0]        ib_iface.c:1059 UCX  ERROR ibv_create_cq(cqe=256) failed: Connection timed out
[1741419512.325053] [ohm:1660937:0]        ib_iface.c:1059 UCX  ERROR ibv_create_cq(cqe=256) failed: Connection timed out
[1741419512.326551] [ohm:1661054:0]        ib_iface.c:1059 UCX  ERROR ibv_create_cq(cqe=256) failed: Connection timed out
[1741419512.328602] [ohm:1661049:0]        ib_iface.c:1059 UCX  ERROR ibv_create_cq(cqe=256) failed: Connection timed out
[1741419512.328929] [ohm:1661006:0]        ib_iface.c:1059 UCX  ERROR ibv_create_cq(cqe=256) failed: Connection timed out
[1741419512.329381] [ohm:1660940:0]        ib_iface.c:1059 UCX  ERROR ibv_create_cq(cqe=256) failed: Connection timed out
[1741419512.329892] [ohm:1660970:0]        ib_iface.c:1059 UCX  ERROR ibv_create_cq(cqe=256) failed: Connection timed out
[1741419512.330312] [ohm:1660935:0]        ib_iface.c:1059 UCX  ERROR ibv_create_cq(cqe=256) failed: Connection timed out

--------------------------------
SUGGESTED CITATIONS FOR THIS RUN
--------------------------------

Below you find a list of papers that are relevant to this ORCA run
We neither can nor want to force you to cite these papers, but we appreciate if you do
You receive ORCA, which is the product of decades of hard work by many enthusiastic individuals, for free
The only thing we kindly ask in return is that you cite our papers,
We deeply appreciate it, if you show your appreciation for ORCA by not just citing the generic ORCA reference.

Please note that relegating all ORCA citations to the supporting information does *not* help us.
SI sections are not indexed - citations you put there will not count into any citation statistics
But we need these citations in order to attract the funding resources that allow us to do what we are doing

Therefore, if you are a happy ORCA user, please consider citing a few of the papers listed below in the main body of your paper

In addition to the list printed below, the program has created the file orca.bibtex that contains the list in bibtex format
You can import this file easily into all common literature databanks and citation aid programs


List of essential papers. We consider these as the minimum necessary citations

  1. Neese,F.
     Software update: the ORCA program system, version 5.0
     WIRES Comput. Molec. Sci., 2022 12(1)e1606
     doi.org/10.1002/wcms.1606

List of papers to cite with high priority. The work reported in these papers was absolutely
necessary for this run to complete.
Our perspective: the developers of density functionals and basis sets usually get cited in chemistry papers
Good! But without the algorithms to do something with them, the functionals or basis sets would not do anything.
Hence, in our opinion, the algorithm design and method developments papers are equally worthy of getting cited

  1. Neese,F.; Olbrich,G.
     Efficient use of the resolution of the identity approximation in time-dependent density functional calculations with hybrid density functionals
     Chem. Phys. Lett., 2002 362 170-178
     doi.org/10.1016/s0009-2614(02)01053-9
  2. Neese,F.
     An improvement of the resolution of the identity approximation for the formation of the Coulomb matrix
     J. Comp. Chem., 2003 24(14)1740-1747
     doi.org/10.1002/jcc.10318
  3. Neese,F.; Wennmohs,F.; Hansen,A.; Becker,U.
     Efficient, approximate and parallel Hartree-Fock and hybrid DFT calculations. A 'chain-of-spheres' algorithm for the Hartree-Fock exchange
     Chem. Phys., 2009 356(1-3)98-109
     doi.org/10.1016/j.chemphys.2008.10.036
  4. Petrenko,T.; Kossmann,S.; Neese,F.
     Efficient time-dependent density functional theory approximations for hybrid density functionals: Analytical gradients and parallelization
     J. Chem. Phys., 2011 134 054116
     doi.org/10.1063/1.3533441
  5. Helmich-Paris,B.; de Souza,B.; Neese,F.; Izsák,R.
     An improved chain of spheres for exchange algorithm
     J. Chem. Phys., 2021 155 104109
     doi.org/doi: 10.1063/5.0058766.
  6. Neese,F.
     The SHARK Integral Generation and Digestion System
     J. Comp. Chem., 2022  1-16
     doi.org/10.1002/jcc.26942
  7. Lehtola,S.; Steigemann,C.; Oliveira,M.; Marques,M.
     Recent developments in Libxc - A comprehensive library of functionals for density functional theory
     Software X, 2018 7 
     doi.org/10.1016/j.softx.2017.11.002
  8. Grimme,S.; Antony,J.; Ehrlich,S.; Krieg,H.
     A consistent and accurate ab initio parametrization of density functional dispersion correction (DFT-D) for the 94 elements H-Pu
     J. Chem. Phys., 2010 132 154104-XXXX
     doi.org/10.1063/1.3382344
  9. Grimme,S.; Ehrlich,S.; Goerigk,L.
     Effect of the damping function in dispersion corrected density functional theory
     J. Comput. Chem., 2011 32(7)1456-1465
     doi.org/10.1002/jcc.21759

List of suggested additional citations. These are papers that are important in the 'surrounding' of 
of this run, or papers that preceded the highly important papers. If you like your results we are grateful for a citation.

  1. Izsak,R.; Neese,F.
     An overlap fitted chain of spheres exchange method
     J. Chem. Phys., 2011 135 144105
     doi.org/10.1063/1.3646921
  2. Izsak,R.; Hansen,A.; Neese,F.
     The resolution of identity and chain of spheres approximations for the LPNO-CCSD singles Fock term
     Molec. Phys., 2012 110 2413-2417
     doi.org/10.1080/00268976.2012.687466
  3. Neese,F.
     The ORCA program system
     WIRES Comput. Molec. Sci., 2012 2(1)73-78
     doi.org/10.1002/wcms.81
  4. Izsak,R.; Neese,F.; Klopper,W.
     Robust fitting techniques in the chain of spheres approximation to the Fock exchange: The role of the complementary space
     J. Chem. Phys., 2013 139 
     doi.org/10.1063/1.4819264
  5. Neese,F.
     Software update: the ORCA program system, version 4.0
     WIRES Comput. Molec. Sci., 2018 8(1)1-6
     doi.org/10.1002/wcms.1327
  6. Neese,F.; Wennmohs,F.; Becker,U.; Riplinger,C.
     The ORCA quantum chemistry program package
     J. Chem. Phys., 2020 152 Art. No. L224108
     doi.org/10.1063/5.0004608

List of optional additional citations

  1. Neese,F.
     Approximate second-order SCF convergence for spin unrestricted wavefunctions
     Chem. Phys. Lett., 2000 325(1-3)93-98
     doi.org/10.1016/s0009-2614(00)00662-x

Timings for individual modules:

Sum of individual times          ...      290.038 sec (=   4.834 min)
Startup calculation              ...        6.442 sec (=   0.107 min)   2.2 %
SCF iterations                   ...      119.128 sec (=   1.985 min)  41.1 %
Property integrals               ...        4.290 sec (=   0.072 min)   1.5 %
Property calculations            ...        2.747 sec (=   0.046 min)   0.9 %
CIS module                       ...      157.430 sec (=   2.624 min)  54.3 %
                             ****ORCA TERMINATED NORMALLY****
TOTAL RUN TIME: 0 days 0 hours 4 minutes 52 seconds 130 msec
