
                                 *****************
                                 * O   R   C   A *
                                 *****************

                                            #,                                       
                                            ###                                      
                                            ####                                     
                                            #####                                    
                                            ######                                   
                                           ########,                                 
                                     ,,################,,,,,                         
                               ,,#################################,,                 
                          ,,##########################################,,             
                       ,#########################################, ''#####,          
                    ,#############################################,,   '####,        
                  ,##################################################,,,,####,       
                ,###########''''           ''''###############################       
              ,#####''   ,,,,##########,,,,          '''####'''          '####       
            ,##' ,,,,###########################,,,                        '##       
           ' ,,###''''                  '''############,,,                           
         ,,##''                                '''############,,,,        ,,,,,,###''
      ,#''                                            '''#######################'''  
     '                                                          ''''####''''         
             ,#######,   #######,   ,#######,      ##                                
            ,#'     '#,  ##    ##  ,#'     '#,    #''#        ,####,   ,####,        
            ##       ##  ##   ,#'  ##            #'  '#       #'       #'  '#        
            ##       ##  #######   ##           ,######,      #####,   #    #        
            '#,     ,#'  ##    ##  '#,     ,#' ,#      #,     #,   #   #,  ,#        
             '#######'   ##     ##  '#######'  #'      '#     '####' # '####'        



                #########################################################
                #                        -***-                          #
                #          Department of theory and spectroscopy        #
                #                                                       #
                #                      Frank Neese                      #
                #                                                       #
                #     Directorship, Architecture, Infrastructure        #
                #                    SHARK, DRIVERS                     #
                #        Core code/Algorithms in most modules           #
                #                                                       #
                #        Max Planck Institute fuer Kohlenforschung      #
                #                Kaiser Wilhelm Platz 1                 #
                #                 D-45470 Muelheim/Ruhr                 #
                #                      Germany                          #
                #                                                       #
                #                  All rights reserved                  #
                #                        -***-                          #
                #########################################################


                         Program Version 6.0.0  -   RELEASE  -


 With contributions from (in alphabetic order):
   Daniel Aravena         : Magnetic Suceptibility
   Michael Atanasov       : Ab Initio Ligand Field Theory (pilot matlab implementation)
   Alexander A. Auer      : GIAO ZORA, VPT2 properties, NMR spectrum
   Ute Becker             : All parallelization in ORCA, NUMFREQ, NUMCALC
   Giovanni Bistoni       : ED, misc. LED, open-shell LED, HFLD
   Martin Brehm           : Molecular dynamics
   Dmytro Bykov           : pre 5.0 version of the SCF Hessian
   Marcos Casanova-Páez   : Triplet and SCS-CIS(D). UHF-(DLPNO)-IP/EA/STEOM-CCSD. UHF-CVS-IP/STEOM-CCSD
   Vijay G. Chilkuri      : MRCI spin determinant printing, contributions to CSF-ICE
   Pauline Colinet        : FMM embedding
   Dipayan Datta          : RHF DLPNO-CCSD density
   Achintya Kumar Dutta   : EOM-CC, STEOM-CC
   Nicolas Foglia         : Exact transition moments, OPA infrastructure, MCD improvements
   Dmitry Ganyushin       : Spin-Orbit,Spin-Spin,Magnetic field MRCI
   Miquel Garcia          : C-PCM and meta-GGA Hessian, CCSD/C-PCM, Gaussian charge scheme
   Tiago L. C. Gouveia    : GS-ROHF, GS-ROCIS
   Yang Guo               : DLPNO-NEVPT2, F12-NEVPT2, CIM, IAO-localization
   Andreas Hansen         : Spin unrestricted coupled pair/coupled cluster methods
   Ingolf Harden          : AUTO-CI MPn and infrastructure 
   Benjamin Helmich-Paris : MC-RPA, TRAH-(SCF,CASSCF), AVAS, COSX integrals, SCF dyn. polar.
   Lee Huntington         : MR-EOM, pCC
   Robert Izsak           : Overlap fitted RIJCOSX, COSX-SCS-MP3, EOM
   Riya Kayal             : Wick's Theorem for AUTO-CI, AUTO-CI UHF-CCSDT
   Emily Kempfer          : AUTO-CI, RHF CISDT and CCSDT
   Christian Kollmar      : KDIIS, OOCD, Brueckner-CCSD(T), CCSD density, CASPT2, CASPT2-K, improved NEVPT2
   Axel Koslowski         : Symmetry handling
   Simone Kossmann        : Meta GGA functionals, TD-DFT gradient, OOMP2, (MP2 Hessian; deprecated post 5.0)
   Lucas Lang             : DCDCAS
   Marvin Lechner         : AUTO-CI (C++ implementation), FIC-MRCC
   Spencer Leger          : CASSCF response
   Dagmar Lenk            : GEPOL surface, SMD, ORCA-2-JSON
   Dimitrios Liakos       : Extrapolation schemes; Compound Job, initial MDCI parallelization
   Dimitrios Manganas     : Further ROCIS development; embedding schemes. LFT, Crystal Embedding
   Dimitrios Pantazis     : SARC Basis sets
   Anastasios Papadopoulos: AUTO-CI, single reference methods and gradients
   Taras Petrenko         : pre 6.0 DFT Hessian and TD-DFT gradient, (ASA, deprecated), ECA, 1-Electron XAS/XES, NRVS
   Peter Pinski           : DLPNO-MP2, DLPNO-MP2 Gradient
   Christoph Reimann      : Effective Core Potentials
   Marius Retegan         : Local ZFS, SOC
   Christoph Riplinger    : Optimizer, TS searches, QM/MM, DLPNO-CCSD(T), (RO)-DLPNO pert. Triples
   Michael Roemelt        : Original ROCIS implementation
   Masaaki Saitow         : Open-shell DLPNO-CCSD energy and density
   Barbara Sandhoefer     : DKH picture change effects
   Kantharuban Sivalingam : CASSCF convergence/infrastructure, NEVPT2 and variants, FIC-MRCI
   Bernardo de Souza      : ESD, SOC TD-DFT
   Georgi Stoychev        : AutoAux, RI-MP2 NMR, DLPNO-MP2 response, X2C
   Van Anh Tran           : RI-MP2 g-tensors
   Willem Van den Heuvel  : Paramagnetic NMR
   Zikuan Wang            : NOTCH, Electric field optimization 
   Frank Wennmohs         : Technical directorship and infrastructure
   Hang Xu                : AUTO-CI-Response properties 


 We gratefully acknowledge several colleagues who have allowed us to
 interface, adapt or use parts of their codes:
   Stefan Grimme, W. Hujo, H. Kruse, P. Pracht,  : VdW corrections, initial TS optimization,
                  C. Bannwarth, S. Ehlert,         DFT functionals, gCP, sTDA/sTD-DF
                  L. Wittmann, M. Mueller
   Ed Valeev, F. Pavosevic, A. Kumar             : LibInt (2-el integral package), F12 methods
   Garnet Chan, S. Sharma, J. Yang, R. Olivares  : DMRG
   Ulf Ekstrom                                   : XCFun DFT Library
   Mihaly Kallay                                 : mrcc  (arbitrary order and MRCC methods)
   Frank Weinhold                                : gennbo (NPA and NBO analysis)
   Simon Mueller                                 : openCOSMO-RS
   Christopher J. Cramer and Donald G. Truhlar   : smd solvation model
   Lars Goerigk                                  : TD-DFT with DH, B97 family of functionals
   V. Asgeirsson, H. Jonsson                     : NEB implementation
   FAccTs GmbH                                   : IRC, NEB, NEB-TS, DLPNO-Multilevel, CI-OPT
                                                   MM, QMMM, 2- and 3-layer-ONIOM, Crystal-QMMM,
                                                   LR-CPCM, SF, NACMEs, symmetry and pop. for TD-DFT,
                                                   nearIR, NL-DFT gradient (VV10), updates on ESD,
                                                   ML-optimized integration grids, MBIS, APM,
                                                   GOAT, DOCKER, SOLVATOR, interface openCOSMO-RS
   S Lehtola, MJT Oliveira, MAL Marques          : LibXC Library
   Liviu Ungur et al                             : ANISO software


 Your calculation uses the libint2 library for the computation of 2-el integrals
 For citations please refer to: http://libint.valeyev.net

 Your ORCA version has been built with support for libXC version: 6.2.2
 For citations please refer to: https://libxc.gitlab.io

 This ORCA versions uses:
   CBLAS   interface :  Fast vector & matrix operations
   LAPACKE interface :  Fast linear algebra routines
   SCALAPACK package :  Parallel linear algebra routines
   Shared memory     :  Shared parallel matrices
   BLAS/LAPACK       :  OpenBLAS 0.3.27  USE64BITINT DYNAMIC_ARCH NO_AFFINITY Zen SINGLE_THREADED
        Core in use  :  Zen
   Copyright (c) 2011-2014, The OpenBLAS Project


Your calculation utilizes the atom-pairwise dispersion correction
with the Becke-Johnson damping scheme (D3BJ)


Warning: RI is on but no J-basis has been assigned. Assigning Def2/J (nothing to worry about!)
================================================================================

----- Orbital basis set information -----
Your calculation utilizes the basis: def2-TZVPPD
   F. Weigend and R. Ahlrichs, Phys. Chem. Chem. Phys. 7, 3297 (2005).
   D. Rappoport and F. Furche, J. Chem. Phys. 133, 134105 (2010)
   D. Rappoport, J. Chem. Phys. 155, 124102 (2021).

----- AuxJ basis set information -----
Your calculation utilizes the auxiliary basis: def2/J
   F. Weigend, Phys. Chem. Chem. Phys. 8, 1057 (2006).

================================================================================
                                        WARNINGS
                       Please study these warnings very carefully!
================================================================================

Using LibXC functional ID 531 : wB97M-V exchange-correlation functional
[ 1]  N. Mardirossian and M. Head-Gordon.,  J. Chem. Phys. 144, 214110 (2016)
Using LibXC functional ID 531 : wB97M-V exchange-correlation functional
[ 1]  N. Mardirossian and M. Head-Gordon.,  J. Chem. Phys. 144, 214110 (2016)

WARNING: B97M-V or wB97M-V functional requested.
  ===> : libXC variant has now been activated.
         Any manually given DFX/HFX/RangeSep scaling parameters are IGNORED!

Your calculation utilizes LibXC
 by S Lehtola, C Steigemann, MJT Oliveira & MAL Marques
Please cite in your paper:
 S Lehtola, C Steigemann, MJT Oliveira & MAL Marques, SoftwareX, 7, (2018), 1.
   


WARNING: your system is open-shell and RHF/RKS was chosen
  ===> : WILL SWITCH to UHF/UKS

INFO   : Checking CIS options ...

WARNING: CIS/ROCIS methods need fully converged wavefunctions
  ===> : Setting SCFConvForced true
         You can overwrite this default with %scf ConvForced false 


================================================================================
                                       INPUT FILE
================================================================================
NAME = orca.inp
|  1> ! Engrad def2-TZVPPD wB97M-D3BJ 
|  2> %pal nprocs 8 end%pal nprocs 64 end 
|  3> %tddft 
|  4>  Iroot 2 Nroots 3 
|  5> sf true 
|  6> end 
|  7> *xyz 0 3 
|  8> O   0.47554153 -0.35515206 -1.00266135
|  9> C   0.71601984 -0.26965786 0.35996026
| 10> C   -0.01920053 0.88597237 0.93869677
| 11> H   1.79158111 -0.23903112 0.48128429
| 12> H   0.37490183 -1.17840313 0.87693139
| 13> H   0.52993111 1.56300303 1.52620532
| 14> H   -1.06124681 1.11828888 0.71498949
| 15> *
| 16> 
| 17>                          ****END OF INPUT****
================================================================================

                     *******************************
                     * Energy+Gradient Calculation *
                     *******************************

---------------------------------
CARTESIAN COORDINATES (ANGSTROEM)
---------------------------------
  O      0.475542   -0.355152   -1.002661
  C      0.716020   -0.269658    0.359960
  C     -0.019201    0.885972    0.938697
  H      1.791581   -0.239031    0.481284
  H      0.374902   -1.178403    0.876931
  H      0.529931    1.563003    1.526205
  H     -1.061247    1.118289    0.714989

----------------------------
CARTESIAN COORDINATES (A.U.)
----------------------------
  NO LB      ZA    FRAG     MASS         X           Y           Z
   0 O     8.0000    0    15.999    0.898643   -0.671140   -1.894755
   1 C     6.0000    0    12.011    1.353081   -0.509580    0.680226
   2 C     6.0000    0    12.011   -0.036284    1.674245    1.773880
   3 H     1.0000    0     1.008    3.385598   -0.451703    0.909496
   4 H     1.0000    0     1.008    0.708462   -2.226859    1.657160
   5 H     1.0000    0     1.008    1.001425    2.953648    2.884110
   6 H     1.0000    0     1.008   -2.005466    2.113260    1.351134

--------------------------------
INTERNAL COORDINATES (ANGSTROEM)
--------------------------------
 O      0   0   0     0.000000000000     0.00000000     0.00000000
 C      1   0   0     1.386317686482     0.00000000     0.00000000
 C      2   1   0     1.486931797010   110.16476481     0.00000000
 H      2   1   3     1.082815572008   106.50968884   234.43138373
 H      2   1   3     1.099744793917   110.93342883   119.29826689
 H      3   2   1     1.051228980267   117.37259003   231.30373324
 H      3   2   1     1.090814538593   123.92102701    45.44270824

---------------------------
INTERNAL COORDINATES (A.U.)
---------------------------
 O      0   0   0     0.000000000000     0.00000000     0.00000000
 C      1   0   0     2.619760762062     0.00000000     0.00000000
 C      2   1   0     2.809893876169   110.16476481     0.00000000
 H      2   1   3     2.046224884640   106.50968884   234.43138373
 H      2   1   3     2.078216477709   110.93342883   119.29826689
 H      3   2   1     1.986534876745   117.37259003   231.30373324
 H      3   2   1     2.061340740840   123.92102701    45.44270824

---------------------
BASIS SET INFORMATION
---------------------
There are 3 groups of distinct atoms

 Group   1 Type O   : 12s7p3d1f contracted to 6s4p3d1f pattern {621111/4111/111/1}
 Group   2 Type C   : 12s6p3d1f contracted to 6s3p3d1f pattern {621111/411/111/1}
 Group   3 Type H   : 5s3p1d contracted to 3s3p1d pattern {311/111/1}

Atom   0O    basis set group =>   1
Atom   1C    basis set group =>   2
Atom   2C    basis set group =>   2
Atom   3H    basis set group =>   3
Atom   4H    basis set group =>   3
Atom   5H    basis set group =>   3
Atom   6H    basis set group =>   3
---------------------------------
AUXILIARY/J BASIS SET INFORMATION
---------------------------------
There are 3 groups of distinct atoms

 Group   1 Type O   : 12s5p4d2f1g contracted to 6s4p3d1f1g pattern {711111/2111/211/2/1}
 Group   2 Type C   : 12s5p4d2f1g contracted to 6s4p3d1f1g pattern {711111/2111/211/2/1}
 Group   3 Type H   : 5s2p1d contracted to 3s1p1d pattern {311/2/1}

Atom   0O    basis set group =>   1
Atom   1C    basis set group =>   2
Atom   2C    basis set group =>   2
Atom   3H    basis set group =>   3
Atom   4H    basis set group =>   3
Atom   5H    basis set group =>   3
Atom   6H    basis set group =>   3
[1741611299.756485] [ohm:3491094:0]        ib_iface.c:1059 UCX  ERROR ibv_create_cq(cqe=256) failed: Connection timed out
[1741611299.757798] [ohm:3491095:0]        ib_iface.c:1059 UCX  ERROR ibv_create_cq(cqe=256) failed: Connection timed out
[1741611299.760545] [ohm:3491091:0]        ib_iface.c:1059 UCX  ERROR ibv_create_cq(cqe=256) failed: Connection timed out
[1741611299.764503] [ohm:3491093:0]        ib_iface.c:1059 UCX  ERROR ibv_create_cq(cqe=256) failed: Connection timed out
[1741611299.770858] [ohm:3491105:0]        ib_iface.c:1059 UCX  ERROR ibv_create_cq(cqe=256) failed: Connection timed out
[1741611299.777753] [ohm:3491090:0]        ib_iface.c:1059 UCX  ERROR ibv_create_cq(cqe=256) failed: Connection timed out
[1741611299.778658] [ohm:3491096:0]        ib_iface.c:1059 UCX  ERROR ibv_create_cq(cqe=256) failed: Connection timed out
[1741611299.778849] [ohm:3491097:0]        ib_iface.c:1059 UCX  ERROR ibv_create_cq(cqe=256) failed: Connection timed out
[1741611299.779406] [ohm:3491103:0]        ib_iface.c:1059 UCX  ERROR ibv_create_cq(cqe=256) failed: Connection timed out
[1741611299.799782] [ohm:3491101:0]        ib_iface.c:1059 UCX  ERROR ibv_create_cq(cqe=256) failed: Connection timed out
[1741611299.804152] [ohm:3491104:0]        ib_iface.c:1059 UCX  ERROR ibv_create_cq(cqe=256) failed: Connection timed out
[1741611299.811069] [ohm:3491102:0]        ib_iface.c:1059 UCX  ERROR ibv_create_cq(cqe=256) failed: Connection timed out
[1741611299.829622] [ohm:3491123:0]        ib_iface.c:1059 UCX  ERROR ibv_create_cq(cqe=256) failed: Connection timed out
[1741611299.831296] [ohm:3491124:0]        ib_iface.c:1059 UCX  ERROR ibv_create_cq(cqe=256) failed: Connection timed out
[1741611299.858646] [ohm:3491153:0]        ib_iface.c:1059 UCX  ERROR ibv_create_cq(cqe=256) failed: Connection timed out
[1741611299.865746] [ohm:3491100:0]        ib_iface.c:1059 UCX  ERROR ibv_create_cq(cqe=256) failed: Connection timed out
[1741611299.865748] [ohm:3491120:0]        ib_iface.c:1059 UCX  ERROR ibv_create_cq(cqe=256) failed: Connection timed out
[1741611299.871135] [ohm:3491137:0]        ib_iface.c:1059 UCX  ERROR ibv_create_cq(cqe=256) failed: Connection timed out
[1741611299.887658] [ohm:3491154:0]        ib_iface.c:1059 UCX  ERROR ibv_create_cq(cqe=256) failed: Connection timed out
[1741611299.894470] [ohm:3491148:0]        ib_iface.c:1059 UCX  ERROR ibv_create_cq(cqe=256) failed: Connection timed out
[1741611299.897083] [ohm:3491122:0]        ib_iface.c:1059 UCX  ERROR ibv_create_cq(cqe=256) failed: Connection timed out
[1741611299.920714] [ohm:3491159:0]        ib_iface.c:1059 UCX  ERROR ibv_create_cq(cqe=256) failed: Connection timed out
[1741611299.921737] [ohm:3491152:0]        ib_iface.c:1059 UCX  ERROR ibv_create_cq(cqe=256) failed: Connection timed out
[1741611299.922027] [ohm:3491157:0]        ib_iface.c:1059 UCX  ERROR ibv_create_cq(cqe=256) failed: Connection timed out
[1741611299.939937] [ohm:3491121:0]        ib_iface.c:1059 UCX  ERROR ibv_create_cq(cqe=256) failed: Connection timed out
[1741611299.945000] [ohm:3491092:0]        ib_iface.c:1059 UCX  ERROR ibv_create_cq(cqe=256) failed: Connection timed out
[1741611299.946094] [ohm:3491191:0]        ib_iface.c:1059 UCX  ERROR ibv_create_cq(cqe=256) failed: Connection timed out
[1741611299.947659] [ohm:3491099:0]        ib_iface.c:1059 UCX  ERROR ibv_create_cq(cqe=256) failed: Connection timed out
[1741611299.949959] [ohm:3491128:0]        ib_iface.c:1059 UCX  ERROR ibv_create_cq(cqe=256) failed: Connection timed out
[1741611299.950237] [ohm:3491223:0]        ib_iface.c:1059 UCX  ERROR ibv_create_cq(cqe=256) failed: Connection timed out
[1741611299.954881] [ohm:3491147:0]        ib_iface.c:1059 UCX  ERROR ibv_create_cq(cqe=256) failed: Connection timed out
[1741611299.959555] [ohm:3491163:0]        ib_iface.c:1059 UCX  ERROR ibv_create_cq(cqe=256) failed: Connection timed out
[1741611299.987037] [ohm:3491156:0]        ib_iface.c:1059 UCX  ERROR ibv_create_cq(cqe=256) failed: Connection timed out
[1741611299.991618] [ohm:3491132:0]        ib_iface.c:1059 UCX  ERROR ibv_create_cq(cqe=256) failed: Connection timed out
[1741611299.996491] [ohm:3491158:0]        ib_iface.c:1059 UCX  ERROR ibv_create_cq(cqe=256) failed: Connection timed out
[1741611300.001519] [ohm:3491234:0]        ib_iface.c:1059 UCX  ERROR ibv_create_cq(cqe=256) failed: Connection timed out
[1741611300.011222] [ohm:3491239:0]        ib_iface.c:1059 UCX  ERROR ibv_create_cq(cqe=256) failed: Connection timed out
[1741611300.017471] [ohm:3491161:0]        ib_iface.c:1059 UCX  ERROR ibv_create_cq(cqe=256) failed: Connection timed out
[1741611300.019449] [ohm:3491204:0]        ib_iface.c:1059 UCX  ERROR ibv_create_cq(cqe=256) failed: Connection timed out
[1741611300.025428] [ohm:3491162:0]        ib_iface.c:1059 UCX  ERROR ibv_create_cq(cqe=256) failed: Connection timed out
[1741611300.032689] [ohm:3491144:0]        ib_iface.c:1059 UCX  ERROR ibv_create_cq(cqe=256) failed: Connection timed out
[1741611300.034363] [ohm:3491179:0]        ib_iface.c:1059 UCX  ERROR ibv_create_cq(cqe=256) failed: Connection timed out
[1741611300.036160] [ohm:3491149:0]        ib_iface.c:1059 UCX  ERROR ibv_create_cq(cqe=256) failed: Connection timed out
[1741611300.038306] [ohm:3491200:0]        ib_iface.c:1059 UCX  ERROR ibv_create_cq(cqe=256) failed: Connection timed out
[1741611300.039698] [ohm:3491194:0]        ib_iface.c:1059 UCX  ERROR ibv_create_cq(cqe=256) failed: Connection timed out
[1741611300.046673] [ohm:3491206:0]        ib_iface.c:1059 UCX  ERROR ibv_create_cq(cqe=256) failed: Connection timed out
[1741611300.054510] [ohm:3491141:0]        ib_iface.c:1059 UCX  ERROR ibv_create_cq(cqe=256) failed: Connection timed out
[1741611300.058842] [ohm:3491167:0]        ib_iface.c:1059 UCX  ERROR ibv_create_cq(cqe=256) failed: Connection timed out
[1741611300.059653] [ohm:3491188:0]        ib_iface.c:1059 UCX  ERROR ibv_create_cq(cqe=256) failed: Connection timed out
[1741611300.060318] [ohm:3491098:0]        ib_iface.c:1059 UCX  ERROR ibv_create_cq(cqe=256) failed: Connection timed out
[1741611300.063908] [ohm:3491182:0]        ib_iface.c:1059 UCX  ERROR ibv_create_cq(cqe=256) failed: Connection timed out
[1741611300.068286] [ohm:3491155:0]        ib_iface.c:1059 UCX  ERROR ibv_create_cq(cqe=256) failed: Connection timed out
[1741611300.069090] [ohm:3491160:0]        ib_iface.c:1059 UCX  ERROR ibv_create_cq(cqe=256) failed: Connection timed out
[1741611300.070957] [ohm:3491151:0]        ib_iface.c:1059 UCX  ERROR ibv_create_cq(cqe=256) failed: Connection timed out
[1741611300.072860] [ohm:3491193:0]        ib_iface.c:1059 UCX  ERROR ibv_create_cq(cqe=256) failed: Connection timed out
[1741611300.074422] [ohm:3491227:0]        ib_iface.c:1059 UCX  ERROR ibv_create_cq(cqe=256) failed: Connection timed out
[1741611300.075944] [ohm:3491175:0]        ib_iface.c:1059 UCX  ERROR ibv_create_cq(cqe=256) failed: Connection timed out
[1741611300.076079] [ohm:3491213:0]        ib_iface.c:1059 UCX  ERROR ibv_create_cq(cqe=256) failed: Connection timed out
[1741611300.076128] [ohm:3491230:0]        ib_iface.c:1059 UCX  ERROR ibv_create_cq(cqe=256) failed: Connection timed out
[1741611300.076403] [ohm:3491187:0]        ib_iface.c:1059 UCX  ERROR ibv_create_cq(cqe=256) failed: Connection timed out
[1741611300.077350] [ohm:3491165:0]        ib_iface.c:1059 UCX  ERROR ibv_create_cq(cqe=256) failed: Connection timed out
[1741611300.077831] [ohm:3491218:0]        ib_iface.c:1059 UCX  ERROR ibv_create_cq(cqe=256) failed: Connection timed out
[1741611300.078659] [ohm:3491208:0]        ib_iface.c:1059 UCX  ERROR ibv_create_cq(cqe=256) failed: Connection timed out
[1741611300.078821] [ohm:3491171:0]        ib_iface.c:1059 UCX  ERROR ibv_create_cq(cqe=256) failed: Connection timed out


           ************************************************************
           *        Program running with 64 parallel MPI-processes    *
           *              working on a common directory               *
           ************************************************************
------------------------------------------------------------------------------
                             ORCA STARTUP CALCULATIONS
                           -- RI-GTO INTEGRALS CHOSEN --
------------------------------------------------------------------------------
------------------------------------------------------------------------------
                   ___                                                        
                  /   \      - P O W E R E D   B Y -                         
                 /     \                                                     
                 |  |  |   _    _      __       _____    __    __             
                 |  |  |  | |  | |    /  \     |  _  \  |  |  /  |          
                  \  \/   | |  | |   /    \    | | | |  |  | /  /          
                 / \  \   | |__| |  /  /\  \   | |_| |  |  |/  /          
                |  |  |   |  __  | /  /__\  \  |    /   |      \           
                |  |  |   | |  | | |   __   |  |    \   |  |\   \          
                \     /   | |  | | |  |  |  |  | |\  \  |  | \   \       
                 \___/    |_|  |_| |__|  |__|  |_| \__\ |__|  \__/        
                                                                              
                      - O R C A' S   B I G   F R I E N D -                    
                                      &                                       
                       - I N T E G R A L  F E E D E R -                       
                                                                              
 v1 FN, 2020, v2 2021, v3 2022-2024                                           
------------------------------------------------------------------------------


----------------------
SHARK INTEGRAL PACKAGE
----------------------

Number of atoms                             ...      7
Number of basis functions                   ...    182
Number of shells                            ...     68
Maximum angular momentum                    ...      3
Integral batch strategy                     ... SHARK/LIBINT Hybrid
RI-J (if used) integral strategy            ... SPLIT-RIJ (Revised 2003 algorithm where possible)
Printlevel                                  ...      1
Contraction scheme used                     ... SEGMENTED contraction
Prescreening option                         ... SCHWARTZ
   Thresh                                   ... 2.500e-11
   Tcut                                     ... 2.500e-12
   Tpresel                                  ... 2.500e-12 
Coulomb Range Separation                    ... NOT USED
Exchange Range Separation                   ... Long Range
   Mu parameter                             ... 3.000e-01
   Scaling (regular/separated)              ... 1.500e-01 8.500e-01
Multipole approximations                    ... NOT USED
Finite Nucleus Model                        ... NOT USED
CABS basis                                  ... NOT available
Auxiliary Coulomb fitting basis             ... AVAILABLE
   # of basis functions in Aux-J            ...    191
   # of shells in Aux-J                     ...     65
   Maximum angular momentum in Aux-J        ...      4
Auxiliary J/K fitting basis                 ... NOT available
Auxiliary Correlation fitting basis         ... NOT available
Auxiliary 'external' fitting basis          ... NOT available

Checking pre-screening integrals            ... done (  0.0 sec) Dimension = 68
Check shell pair data                       ... done (  0.0 sec)
Shell pair information
Shell pair cut-off parameter TPreSel        ...   2.5e-12
Total number of shell pairs                 ...      2346
Shell pairs after pre-screening             ...      2329
Total number of primitive shell pairs       ...      5434
Primitive shell pairs kept                  ...      4821
          la=0 lb=0:    455 shell pairs
          la=1 lb=0:    656 shell pairs
          la=1 lb=1:    253 shell pairs
          la=2 lb=0:    387 shell pairs
          la=2 lb=1:    286 shell pairs
          la=2 lb=2:     91 shell pairs
          la=3 lb=0:     90 shell pairs
          la=3 lb=1:     66 shell pairs
          la=3 lb=2:     39 shell pairs
          la=3 lb=3:      6 shell pairs

Calculating one electron integrals          ... done (  0.0 sec)
Calculating RI/J V-Matrix + Cholesky decomp.... done (  0.0 sec)
Calculating Nuclear repulsion               ... done (  0.0 sec) ENN=     67.906132239115 Eh

Diagonalization of the overlap matrix:
Smallest eigenvalue                        ... 1.914e-05
Time for diagonalization                   ...    0.003 sec
Threshold for overlap eigenvalues          ... 1.000e-07
Number of eigenvalues below threshold      ... 0
Time for construction of square roots      ...    0.004 sec
Total time needed                          ...    0.010 sec

-------------------
DFT GRID GENERATION
-------------------

General Integration Accuracy     IntAcc      ... 4.388
Radial Grid Type                 RadialGrid  ... OptM3 with GC (2021)
Angular Grid (max. ang.)         AngularGrid ... 4 (Lebedev-302)
Angular grid pruning method      GridPruning ... 4 (adaptive)
Weight generation scheme         WeightScheme... mBecke (2022)
Basis function cutoff            BFCut       ... 1.0000e-11
Integration weight cutoff        WCut        ... 1.0000e-14
Partially contracted basis set               ... off
Rotationally invariant grid construction     ... off
Angular grids for H and He will be reduced by one unit
Diffuse basis detected: some atoms will have their outermost
                        angular grid increased by 1.

Total number of grid points                  ...    33132
Total number of batches                      ...      521
Average number of points per batch           ...       63
Average number of grid points per atom       ...     4733

--------------------
COSX GRID GENERATION
--------------------

GRIDX 1
-------
General Integration Accuracy     IntAcc      ... 3.816
Radial Grid Type                 RadialGrid  ... OptM3 with GC (2021)
Angular Grid (max. ang.)         AngularGrid ... 1 (Lebedev-50)
Angular grid pruning method      GridPruning ... 4 (adaptive)
Weight generation scheme         WeightScheme... mBecke (2022)
Basis function cutoff            BFCut       ... 1.0000e-11
Integration weight cutoff        WCut        ... 1.0000e-14
Partially contracted basis set               ... on
Rotationally invariant grid construction     ... off
Angular grids for H and He will be reduced by one unit
Diffuse basis detected: some atoms will have their outermost
                        angular grid increased by 1.

Total number of grid points                  ...     4177
Total number of batches                      ...       36
Average number of points per batch           ...      116
Average number of grid points per atom       ...      597
UseSFitting                                  ... on

GRIDX 2
-------
General Integration Accuracy     IntAcc      ... 4.020
Radial Grid Type                 RadialGrid  ... OptM3 with GC (2021)
Angular Grid (max. ang.)         AngularGrid ... 2 (Lebedev-110)
Angular grid pruning method      GridPruning ... 4 (adaptive)
Weight generation scheme         WeightScheme... mBecke (2022)
Basis function cutoff            BFCut       ... 1.0000e-11
Integration weight cutoff        WCut        ... 1.0000e-14
Partially contracted basis set               ... on
Rotationally invariant grid construction     ... off
Angular grids for H and He will be reduced by one unit
Diffuse basis detected: some atoms will have their outermost
                        angular grid increased by 1.

Total number of grid points                  ...    10254
Total number of batches                      ...       83
Average number of points per batch           ...      123
Average number of grid points per atom       ...     1465
UseSFitting                                  ... on

GRIDX 3
-------
General Integration Accuracy     IntAcc      ... 4.338
Radial Grid Type                 RadialGrid  ... OptM3 with GC (2021)
Angular Grid (max. ang.)         AngularGrid ... 3 (Lebedev-194)
Angular grid pruning method      GridPruning ... 4 (adaptive)
Weight generation scheme         WeightScheme... mBecke (2022)
Basis function cutoff            BFCut       ... 1.0000e-11
Integration weight cutoff        WCut        ... 1.0000e-14
Partially contracted basis set               ... on
Rotationally invariant grid construction     ... off
Angular grids for H and He will be reduced by one unit
Diffuse basis detected: some atoms will have their outermost
                        angular grid increased by 1.

Total number of grid points                  ...    23123
Total number of batches                      ...      184
Average number of points per batch           ...      125
Average number of grid points per atom       ...     3303
UseSFitting                                  ... on
Initializing property integral containers    ... done (  0.0 sec)

SHARK setup successfully completed in   0.4 seconds

Maximum memory used throughout the entire STARTUP-calculation: 13.8 MB
[1741611302.080764] [ohm:3491452:0]        ib_iface.c:1059 UCX  ERROR ibv_create_cq(cqe=256) failed: Connection timed out
[1741611302.090990] [ohm:3491456:0]        ib_iface.c:1059 UCX  ERROR ibv_create_cq(cqe=256) failed: Connection timed out
[1741611302.093513] [ohm:3491443:0]        ib_iface.c:1059 UCX  ERROR ibv_create_cq(cqe=256) failed: Connection timed out
[1741611302.103429] [ohm:3491467:0]        ib_iface.c:1059 UCX  ERROR ibv_create_cq(cqe=256) failed: Connection timed out
[1741611302.145723] [ohm:3491453:0]        ib_iface.c:1059 UCX  ERROR ibv_create_cq(cqe=256) failed: Connection timed out
[1741611302.154803] [ohm:3491446:0]        ib_iface.c:1059 UCX  ERROR ibv_create_cq(cqe=256) failed: Connection timed out
[1741611302.156914] [ohm:3491445:0]        ib_iface.c:1059 UCX  ERROR ibv_create_cq(cqe=256) failed: Connection timed out
[1741611302.157090] [ohm:3491471:0]        ib_iface.c:1059 UCX  ERROR ibv_create_cq(cqe=256) failed: Connection timed out
[1741611302.164199] [ohm:3491462:0]        ib_iface.c:1059 UCX  ERROR ibv_create_cq(cqe=256) failed: Connection timed out
[1741611302.164405] [ohm:3491476:0]        ib_iface.c:1059 UCX  ERROR ibv_create_cq(cqe=256) failed: Connection timed out
[1741611302.164922] [ohm:3491472:0]        ib_iface.c:1059 UCX  ERROR ibv_create_cq(cqe=256) failed: Connection timed out
[1741611302.178754] [ohm:3491464:0]        ib_iface.c:1059 UCX  ERROR ibv_create_cq(cqe=256) failed: Connection timed out
[1741611302.182583] [ohm:3491475:0]        ib_iface.c:1059 UCX  ERROR ibv_create_cq(cqe=256) failed: Connection timed out
[1741611302.226819] [ohm:3491482:0]        ib_iface.c:1059 UCX  ERROR ibv_create_cq(cqe=256) failed: Connection timed out
[1741611302.246442] [ohm:3491520:0]        ib_iface.c:1059 UCX  ERROR ibv_create_cq(cqe=256) failed: Connection timed out
[1741611302.254669] [ohm:3491478:0]        ib_iface.c:1059 UCX  ERROR ibv_create_cq(cqe=256) failed: Connection timed out
[1741611302.263179] [ohm:3491480:0]        ib_iface.c:1059 UCX  ERROR ibv_create_cq(cqe=256) failed: Connection timed out
[1741611302.267219] [ohm:3491469:0]        ib_iface.c:1059 UCX  ERROR ibv_create_cq(cqe=256) failed: Connection timed out
[1741611302.268823] [ohm:3491473:0]        ib_iface.c:1059 UCX  ERROR ibv_create_cq(cqe=256) failed: Connection timed out
[1741611302.274288] [ohm:3491578:0]        ib_iface.c:1059 UCX  ERROR ibv_create_cq(cqe=256) failed: Connection timed out
[1741611302.278236] [ohm:3491487:0]        ib_iface.c:1059 UCX  ERROR ibv_create_cq(cqe=256) failed: Connection timed out
[1741611302.278337] [ohm:3491448:0]        ib_iface.c:1059 UCX  ERROR ibv_create_cq(cqe=256) failed: Connection timed out
[1741611302.280548] [ohm:3491468:0]        ib_iface.c:1059 UCX  ERROR ibv_create_cq(cqe=256) failed: Connection timed out
[1741611302.286664] [ohm:3491483:0]        ib_iface.c:1059 UCX  ERROR ibv_create_cq(cqe=256) failed: Connection timed out
[1741611302.294178] [ohm:3491474:0]        ib_iface.c:1059 UCX  ERROR ibv_create_cq(cqe=256) failed: Connection timed out
[1741611302.316554] [ohm:3491447:0]        ib_iface.c:1059 UCX  ERROR ibv_create_cq(cqe=256) failed: Connection timed out
[1741611302.330551] [ohm:3491592:0]        ib_iface.c:1059 UCX  ERROR ibv_create_cq(cqe=256) failed: Connection timed out
[1741611302.330920] [ohm:3491457:0]        ib_iface.c:1059 UCX  ERROR ibv_create_cq(cqe=256) failed: Connection timed out
[1741611302.340742] [ohm:3491486:0]        ib_iface.c:1059 UCX  ERROR ibv_create_cq(cqe=256) failed: Connection timed out
[1741611302.342946] [ohm:3491444:0]        ib_iface.c:1059 UCX  ERROR ibv_create_cq(cqe=256) failed: Connection timed out
[1741611302.345638] [ohm:3491490:0]        ib_iface.c:1059 UCX  ERROR ibv_create_cq(cqe=256) failed: Connection timed out
[1741611302.360335] [ohm:3491470:0]        ib_iface.c:1059 UCX  ERROR ibv_create_cq(cqe=256) failed: Connection timed out
[1741611302.360755] [ohm:3491477:0]        ib_iface.c:1059 UCX  ERROR ibv_create_cq(cqe=256) failed: Connection timed out
[1741611302.364340] [ohm:3491542:0]        ib_iface.c:1059 UCX  ERROR ibv_create_cq(cqe=256) failed: Connection timed out
[1741611302.368594] [ohm:3491517:0]        ib_iface.c:1059 UCX  ERROR ibv_create_cq(cqe=256) failed: Connection timed out
[1741611302.369503] [ohm:3491599:0]        ib_iface.c:1059 UCX  ERROR ibv_create_cq(cqe=256) failed: Connection timed out
[1741611302.379541] [ohm:3491511:0]        ib_iface.c:1059 UCX  ERROR ibv_create_cq(cqe=256) failed: Connection timed out
[1741611302.385172] [ohm:3491560:0]        ib_iface.c:1059 UCX  ERROR ibv_create_cq(cqe=256) failed: Connection timed out
[1741611302.385374] [ohm:3491564:0]        ib_iface.c:1059 UCX  ERROR ibv_create_cq(cqe=256) failed: Connection timed out
[1741611302.389608] [ohm:3491551:0]        ib_iface.c:1059 UCX  ERROR ibv_create_cq(cqe=256) failed: Connection timed out
[1741611302.390186] [ohm:3491491:0]        ib_iface.c:1059 UCX  ERROR ibv_create_cq(cqe=256) failed: Connection timed out
[1741611302.395131] [ohm:3491576:0]        ib_iface.c:1059 UCX  ERROR ibv_create_cq(cqe=256) failed: Connection timed out
[1741611302.405801] [ohm:3491567:0]        ib_iface.c:1059 UCX  ERROR ibv_create_cq(cqe=256) failed: Connection timed out
[1741611302.406082] [ohm:3491572:0]        ib_iface.c:1059 UCX  ERROR ibv_create_cq(cqe=256) failed: Connection timed out
[1741611302.408600] [ohm:3491495:0]        ib_iface.c:1059 UCX  ERROR ibv_create_cq(cqe=256) failed: Connection timed out
[1741611302.411838] [ohm:3491481:0]        ib_iface.c:1059 UCX  ERROR ibv_create_cq(cqe=256) failed: Connection timed out
[1741611302.411944] [ohm:3491506:0]        ib_iface.c:1059 UCX  ERROR ibv_create_cq(cqe=256) failed: Connection timed out
[1741611302.412317] [ohm:3491546:0]        ib_iface.c:1059 UCX  ERROR ibv_create_cq(cqe=256) failed: Connection timed out
[1741611302.418541] [ohm:3491587:0]        ib_iface.c:1059 UCX  ERROR ibv_create_cq(cqe=256) failed: Connection timed out
[1741611302.420292] [ohm:3491570:0]        ib_iface.c:1059 UCX  ERROR ibv_create_cq(cqe=256) failed: Connection timed out
[1741611302.426016] [ohm:3491528:0]        ib_iface.c:1059 UCX  ERROR ibv_create_cq(cqe=256) failed: Connection timed out
[1741611302.429252] [ohm:3491583:0]        ib_iface.c:1059 UCX  ERROR ibv_create_cq(cqe=256) failed: Connection timed out
[1741611302.433168] [ohm:3491479:0]        ib_iface.c:1059 UCX  ERROR ibv_create_cq(cqe=256) failed: Connection timed out
[1741611302.435189] [ohm:3491503:0]        ib_iface.c:1059 UCX  ERROR ibv_create_cq(cqe=256) failed: Connection timed out
[1741611302.440489] [ohm:3491534:0]        ib_iface.c:1059 UCX  ERROR ibv_create_cq(cqe=256) failed: Connection timed out
[1741611302.442349] [ohm:3491514:0]        ib_iface.c:1059 UCX  ERROR ibv_create_cq(cqe=256) failed: Connection timed out
[1741611302.442944] [ohm:3491498:0]        ib_iface.c:1059 UCX  ERROR ibv_create_cq(cqe=256) failed: Connection timed out
[1741611302.444200] [ohm:3491537:0]        ib_iface.c:1059 UCX  ERROR ibv_create_cq(cqe=256) failed: Connection timed out
[1741611302.448179] [ohm:3491556:0]        ib_iface.c:1059 UCX  ERROR ibv_create_cq(cqe=256) failed: Connection timed out
[1741611302.449343] [ohm:3491488:0]        ib_iface.c:1059 UCX  ERROR ibv_create_cq(cqe=256) failed: Connection timed out
[1741611302.449623] [ohm:3491484:0]        ib_iface.c:1059 UCX  ERROR ibv_create_cq(cqe=256) failed: Connection timed out
[1741611302.449625] [ohm:3491485:0]        ib_iface.c:1059 UCX  ERROR ibv_create_cq(cqe=256) failed: Connection timed out
[1741611302.449879] [ohm:3491525:0]        ib_iface.c:1059 UCX  ERROR ibv_create_cq(cqe=256) failed: Connection timed out
[1741611302.450074] [ohm:3491601:0]        ib_iface.c:1059 UCX  ERROR ibv_create_cq(cqe=256) failed: Connection timed out


           ************************************************************
           *        Program running with 64 parallel MPI-processes    *
           *              working on a common directory               *
           ************************************************************
-------------------------------------------------------------------------------
                                 ORCA GUESS
                   Start orbitals & Density for SCF / CASSCF
-------------------------------------------------------------------------------

------------
SCF SETTINGS
------------
Hamiltonian:
 Density Functional     Method          .... DFT(GTOs)
  Functional kind                       .... Exchange-Correlation
  Functional name                       .... wB97M-V exchange-correlation functional
  Functional family                     .... Hybrid MGGA
  Functional refs                              
    [ 0] N. Mardirossian and M. Head-Gordon.,  J. Chem. Phys. 144, 214110 (2016), doi: 10.1063/1.4952647
  Fraction of HF Exchange (short range) .... 0.1500
  Fraction of HF Exchange (long range)  .... 1.0000
  Range separation parameter mu         .... 0.3000
  Functional external parameters        .... 17
    Parameter  0 _cx00      =  8.500000e-01 : u^00 coefficient for exchange
    Parameter  1 _cx01      =  1.007000e+00 : u^01 coefficient for exchange
    Parameter  2 _cx10      =  2.590000e-01 : u^10 coefficient for exchange
    Parameter  3 _css00     =  4.430000e-01 : u^00 coefficient for same-spin correlation
    Parameter  4 _css04     = -1.437000e+00 : u^04 coefficient for same-spin correlation
    Parameter  5 _css10     = -4.535000e+00 : u^10 coefficient for same-spin correlation
    Parameter  6 _css20     = -3.390000e+00 : u^20 coefficient for same-spin correlation
    Parameter  7 _css43     =  4.278000e+00 : u^43 coefficient for same-spin correlation
    Parameter  8 _cos00     =  1.000000e+00 : u^00 coefficient for opposite-spin correlation
    Parameter  9 _cos10     =  1.358000e+00 : u^10 coefficient for opposite-spin correlation
    Parameter 10 _cos20     =  2.924000e+00 : u^20 coefficient for opposite-spin correlation
    Parameter 11 _cos21     = -8.812000e+00 : u^21 coefficient for opposite-spin correlation
    Parameter 12 _cos60     = -1.390000e+00 : u^60 coefficient for opposite-spin correlation
    Parameter 13 _cos61     =  9.142000e+00 : u^61 coefficient for opposite-spin correlation
    Parameter 14 _alpha     =  1.000000e+00 : fraction of HF exchange
    Parameter 15 _beta      = -8.500000e-01 : fraction of short-range exchange
    Parameter 16 _omega     =  3.000000e-01 : range-separation constant
 Long-range corrected/Screened/Range-Separated Hybrid DFT is turned on
   Amount of maximum screened exact exchange              ....  0.850000
   Range separation parameter mu (erf(mu*r12)/r12)        ....  0.300000
 RI-approximation to the Coulomb term is turned on
   Number of AuxJ basis functions       .... 191
   RIJ-COSX (HFX calculated with COS-X)).... on


General Settings:
 Integral files         IntName         .... orca
 Hartree-Fock type      HFTyp           .... UHF
 Total Charge           Charge          ....    0
 Multiplicity           Mult            ....    3
 Number of Electrons    NEL             ....   24
 Basis Dimension        Dim             ....  182
 Nuclear Repulsion      ENuc            ....     67.9061322391 Eh

Convergence Acceleration:
 AO-DIIS                CNVDIIS         .... on
   Start iteration      DIISMaxIt       ....    12
   Startup error        DIISStart       ....  0.200000
   # of expansion vecs  DIISMaxEq       ....     5
   Bias factor          DIISBfac        ....   1.050
   Max. coefficient     DIISMaxC        ....  10.000
 MO-DIIS                CNVKDIIS        .... off
 Trust-Rad. Augm. Hess. CNVTRAH         .... auto
   Auto Start mean grad. ratio tolernc. ....  1.125000
   Auto Start start iteration           ....    50
   Auto Start num. interpolation iter.  ....    10
   Max. Number of Micro iterations      ....    24
   Max. Number of Macro iterations      .... Maxiter - #DIIS iter
   Number of Davidson start vectors     ....     2
   Converg. threshold    (grad. norm)   ....   1.000e-05
   Grad. Scal. Fac. for Micro threshold ....   0.100
   Minimum threshold for Micro iter.    ....   1.000e-02
   NR start threshold (gradient norm)   ....   1.000e-04
   Initial trust radius                 ....   0.400
   Minimum AH scaling param. (alpha)    ....   1.000
   Maximum AH scaling param. (alpha)    .... 1000.000
   Quad. conv. algorithm                .... NR
   White noise on init. David. guess    .... on
   Maximum white noise                  ....   0.010
   Pseudo random numbers                .... off
   Inactive MOs                         .... canonical
   Orbital update algorithm             .... Taylor
   Preconditioner                       .... Diag
   Full preconditioner red. dimension   ....   250
 SOSCF                  CNVSOSCF        .... on
   Start iteration      SOSCFMaxIt      ....   150
   Startup grad/error   SOSCFStart      ....  0.003300
   Hessian update       SOSCFHessUp     .... L-BFGS
 Level Shifting         CNVShift        .... on
   Level shift para.    LevelShift      ....    0.2500
   Turn off err/grad.   ShiftErr        ....    0.0010
 Zerner damping         CNVZerner       .... off
 Static damping         CNVDamp         .... on
   Fraction old density DampFac         ....    0.7000
   Max. Damping (<1)    DampMax         ....    0.9800
   Min. Damping (>=0)   DampMin         ....    0.0000
   Turn off err/grad.   DampErr         ....    0.1000

SCF Procedure:
 Maximum # iterations   MaxIter         ....   125
 SCF integral mode      SCFMode         .... Direct
   Integral package                     .... SHARK and LIBINT hybrid scheme
 Reset frequency        DirectResetFreq ....    20
 Integral Threshold     Thresh          ....  2.500e-11 Eh
 Primitive CutOff       TCut            ....  2.500e-12 Eh

Convergence Tolerance:
 Convergence Check Mode ConvCheckMode   .... Total+1el-Energy
 Convergence forced     ConvForced      .... 1
 Energy Change          TolE            ....  1.000e-08 Eh
 1-El. energy change                    ....  1.000e-05 Eh
 Orbital Gradient       TolG            ....  1.000e-05
 Orbital Rotation angle TolX            ....  1.000e-05
 DIIS Error             TolErr          ....  5.000e-07

------------------------------
INITIAL GUESS: MODEL POTENTIAL
------------------------------
Loading Hartree-Fock densities                     ... done
Calculating cut-offs                               ... done
Initializing the effective Hamiltonian             ... done
Setting up the integral package (SHARK)            ... done
Starting the Coulomb interaction                   ... done (   0.0 sec)
Making the grid                                    ... done (   0.0 sec)
Mapping shells                                     ... done
Starting the XC term evaluation                    ... done (   0.0 sec)
  promolecular density results
     # of electrons  =     23.998238630
     EX              =    -19.461933877
     EC              =     -0.765154214
     EX+EC           =    -20.227088091
Transforming the Hamiltonian                       ... done (   0.0 sec)
Diagonalizing the Hamiltonian                      ... done (   0.0 sec)
Back transforming the eigenvectors                 ... done (   0.0 sec)
Now organizing SCF variables                       ... done
                      ------------------
                      INITIAL GUESS DONE (   0.1 sec)
                      ------------------
             **** ENERGY FILE WAS UPDATED (orca.en.tmp) ****
Finished Guess after   1.7 sec
Maximum memory used throughout the entire GUESS-calculation: 9.5 MB
[1741611304.265991] [ohm:3491780:0]        ib_iface.c:1059 UCX  ERROR ibv_create_cq(cqe=256) failed: Connection timed out
[1741611304.268482] [ohm:3491788:0]        ib_iface.c:1059 UCX  ERROR ibv_create_cq(cqe=256) failed: Connection timed out
[1741611304.279103] [ohm:3491792:0]        ib_iface.c:1059 UCX  ERROR ibv_create_cq(cqe=256) failed: Connection timed out
[1741611304.282016] [ohm:3491797:0]        ib_iface.c:1059 UCX  ERROR ibv_create_cq(cqe=256) failed: Connection timed out
[1741611304.284460] [ohm:3491800:0]        ib_iface.c:1059 UCX  ERROR ibv_create_cq(cqe=256) failed: Connection timed out
[1741611304.286321] [ohm:3491794:0]        ib_iface.c:1059 UCX  ERROR ibv_create_cq(cqe=256) failed: Connection timed out
[1741611304.291357] [ohm:3491790:0]        ib_iface.c:1059 UCX  ERROR ibv_create_cq(cqe=256) failed: Connection timed out
[1741611304.295319] [ohm:3491785:0]        ib_iface.c:1059 UCX  ERROR ibv_create_cq(cqe=256) failed: Connection timed out
[1741611304.304359] [ohm:3491787:0]        ib_iface.c:1059 UCX  ERROR ibv_create_cq(cqe=256) failed: Connection timed out
[1741611304.345360] [ohm:3491789:0]        ib_iface.c:1059 UCX  ERROR ibv_create_cq(cqe=256) failed: Connection timed out
[1741611304.345613] [ohm:3491858:0]        ib_iface.c:1059 UCX  ERROR ibv_create_cq(cqe=256) failed: Connection timed out
[1741611304.354034] [ohm:3491810:0]        ib_iface.c:1059 UCX  ERROR ibv_create_cq(cqe=256) failed: Connection timed out
[1741611304.359304] [ohm:3491781:0]        ib_iface.c:1059 UCX  ERROR ibv_create_cq(cqe=256) failed: Connection timed out
[1741611304.363290] [ohm:3491782:0]        ib_iface.c:1059 UCX  ERROR ibv_create_cq(cqe=256) failed: Connection timed out
[1741611304.363329] [ohm:3491783:0]        ib_iface.c:1059 UCX  ERROR ibv_create_cq(cqe=256) failed: Connection timed out
[1741611304.367267] [ohm:3491816:0]        ib_iface.c:1059 UCX  ERROR ibv_create_cq(cqe=256) failed: Connection timed out
[1741611304.385649] [ohm:3491861:0]        ib_iface.c:1059 UCX  ERROR ibv_create_cq(cqe=256) failed: Connection timed out
[1741611304.399419] [ohm:3491867:0]        ib_iface.c:1059 UCX  ERROR ibv_create_cq(cqe=256) failed: Connection timed out
[1741611304.400239] [ohm:3491791:0]        ib_iface.c:1059 UCX  ERROR ibv_create_cq(cqe=256) failed: Connection timed out
[1741611304.400664] [ohm:3491784:0]        ib_iface.c:1059 UCX  ERROR ibv_create_cq(cqe=256) failed: Connection timed out
[1741611304.409061] [ohm:3491841:0]        ib_iface.c:1059 UCX  ERROR ibv_create_cq(cqe=256) failed: Connection timed out
[1741611304.410349] [ohm:3491793:0]        ib_iface.c:1059 UCX  ERROR ibv_create_cq(cqe=256) failed: Connection timed out
[1741611304.435115] [ohm:3491818:0]        ib_iface.c:1059 UCX  ERROR ibv_create_cq(cqe=256) failed: Connection timed out
[1741611304.455739] [ohm:3491817:0]        ib_iface.c:1059 UCX  ERROR ibv_create_cq(cqe=256) failed: Connection timed out
[1741611304.457701] [ohm:3491887:0]        ib_iface.c:1059 UCX  ERROR ibv_create_cq(cqe=256) failed: Connection timed out
[1741611304.463712] [ohm:3491815:0]        ib_iface.c:1059 UCX  ERROR ibv_create_cq(cqe=256) failed: Connection timed out
[1741611304.463802] [ohm:3491811:0]        ib_iface.c:1059 UCX  ERROR ibv_create_cq(cqe=256) failed: Connection timed out
[1741611304.465754] [ohm:3491828:0]        ib_iface.c:1059 UCX  ERROR ibv_create_cq(cqe=256) failed: Connection timed out
[1741611304.467946] [ohm:3491820:0]        ib_iface.c:1059 UCX  ERROR ibv_create_cq(cqe=256) failed: Connection timed out
[1741611304.469329] [ohm:3491829:0]        ib_iface.c:1059 UCX  ERROR ibv_create_cq(cqe=256) failed: Connection timed out
[1741611304.469856] [ohm:3491786:0]        ib_iface.c:1059 UCX  ERROR ibv_create_cq(cqe=256) failed: Connection timed out
[1741611304.473095] [ohm:3491822:0]        ib_iface.c:1059 UCX  ERROR ibv_create_cq(cqe=256) failed: Connection timed out
[1741611304.495236] [ohm:3491804:0]        ib_iface.c:1059 UCX  ERROR ibv_create_cq(cqe=256) failed: Connection timed out
[1741611304.496177] [ohm:3491813:0]        ib_iface.c:1059 UCX  ERROR ibv_create_cq(cqe=256) failed: Connection timed out
[1741611304.496180] [ohm:3491882:0]        ib_iface.c:1059 UCX  ERROR ibv_create_cq(cqe=256) failed: Connection timed out
[1741611304.496228] [ohm:3491896:0]        ib_iface.c:1059 UCX  ERROR ibv_create_cq(cqe=256) failed: Connection timed out
[1741611304.497192] [ohm:3491814:0]        ib_iface.c:1059 UCX  ERROR ibv_create_cq(cqe=256) failed: Connection timed out
[1741611304.498849] [ohm:3491821:0]        ib_iface.c:1059 UCX  ERROR ibv_create_cq(cqe=256) failed: Connection timed out
[1741611304.501584] [ohm:3491819:0]        ib_iface.c:1059 UCX  ERROR ibv_create_cq(cqe=256) failed: Connection timed out
[1741611304.506817] [ohm:3491916:0]        ib_iface.c:1059 UCX  ERROR ibv_create_cq(cqe=256) failed: Connection timed out
[1741611304.507665] [ohm:3491823:0]        ib_iface.c:1059 UCX  ERROR ibv_create_cq(cqe=256) failed: Connection timed out
[1741611304.526544] [ohm:3491871:0]        ib_iface.c:1059 UCX  ERROR ibv_create_cq(cqe=256) failed: Connection timed out
[1741611304.530271] [ohm:3491812:0]        ib_iface.c:1059 UCX  ERROR ibv_create_cq(cqe=256) failed: Connection timed out
[1741611304.531520] [ohm:3491898:0]        ib_iface.c:1059 UCX  ERROR ibv_create_cq(cqe=256) failed: Connection timed out
[1741611304.550845] [ohm:3491889:0]        ib_iface.c:1059 UCX  ERROR ibv_create_cq(cqe=256) failed: Connection timed out
[1741611304.553810] [ohm:3491805:0]        ib_iface.c:1059 UCX  ERROR ibv_create_cq(cqe=256) failed: Connection timed out
[1741611304.556862] [ohm:3491859:0]        ib_iface.c:1059 UCX  ERROR ibv_create_cq(cqe=256) failed: Connection timed out
[1741611304.557698] [ohm:3491907:0]        ib_iface.c:1059 UCX  ERROR ibv_create_cq(cqe=256) failed: Connection timed out
[1741611304.558414] [ohm:3491850:0]        ib_iface.c:1059 UCX  ERROR ibv_create_cq(cqe=256) failed: Connection timed out
[1741611304.559231] [ohm:3491911:0]        ib_iface.c:1059 UCX  ERROR ibv_create_cq(cqe=256) failed: Connection timed out
[1741611304.561319] [ohm:3491846:0]        ib_iface.c:1059 UCX  ERROR ibv_create_cq(cqe=256) failed: Connection timed out
[1741611304.564190] [ohm:3491900:0]        ib_iface.c:1059 UCX  ERROR ibv_create_cq(cqe=256) failed: Connection timed out
[1741611304.565690] [ohm:3491880:0]        ib_iface.c:1059 UCX  ERROR ibv_create_cq(cqe=256) failed: Connection timed out
[1741611304.569107] [ohm:3491908:0]        ib_iface.c:1059 UCX  ERROR ibv_create_cq(cqe=256) failed: Connection timed out
[1741611304.569170] [ohm:3491809:0]        ib_iface.c:1059 UCX  ERROR ibv_create_cq(cqe=256) failed: Connection timed out
[1741611304.570219] [ohm:3491932:0]        ib_iface.c:1059 UCX  ERROR ibv_create_cq(cqe=256) failed: Connection timed out
[1741611304.574200] [ohm:3491864:0]        ib_iface.c:1059 UCX  ERROR ibv_create_cq(cqe=256) failed: Connection timed out
[1741611304.574198] [ohm:3491921:0]        ib_iface.c:1059 UCX  ERROR ibv_create_cq(cqe=256) failed: Connection timed out
[1741611304.574967] [ohm:3491875:0]        ib_iface.c:1059 UCX  ERROR ibv_create_cq(cqe=256) failed: Connection timed out
[1741611304.575905] [ohm:3491878:0]        ib_iface.c:1059 UCX  ERROR ibv_create_cq(cqe=256) failed: Connection timed out
[1741611304.576091] [ohm:3491854:0]        ib_iface.c:1059 UCX  ERROR ibv_create_cq(cqe=256) failed: Connection timed out
[1741611304.578457] [ohm:3491885:0]        ib_iface.c:1059 UCX  ERROR ibv_create_cq(cqe=256) failed: Connection timed out
[1741611304.578845] [ohm:3491928:0]        ib_iface.c:1059 UCX  ERROR ibv_create_cq(cqe=256) failed: Connection timed out
[1741611304.579050] [ohm:3491836:0]        ib_iface.c:1059 UCX  ERROR ibv_create_cq(cqe=256) failed: Connection timed out


           ************************************************************
           *        Program running with 64 parallel MPI-processes    *
           *              working on a common directory               *
           ************************************************************

-------------------------------------------------------------------------------------------
                                      ORCA LEAN-SCF
                              memory conserving SCF solver
-------------------------------------------------------------------------------------------

----------------------------------------D-I-I-S--------------------------------------------
Iteration    Energy (Eh)           Delta-E    RMSDP     MaxDP     DIISErr   Damp  Time(sec)
-------------------------------------------------------------------------------------------
               ***  Starting incremental Fock matrix formation  ***
    1    -153.7130549841187985     0.00e+00  8.11e-04  2.12e-02  6.47e-02  0.700   0.3
    2    -153.7378103651595325    -2.48e-02  7.20e-04  1.87e-02  4.13e-02  0.700   0.3
                               ***Turning on AO-DIIS***
    3    -153.7518639607079081    -1.41e-02  6.00e-04  2.05e-02  2.38e-02  0.700   0.3
    4    -153.7607091020928749    -8.85e-03  1.51e-03  5.37e-02  1.77e-02  0.000   0.3
    5    -153.7817398233954123    -2.10e-02  1.57e-04  5.34e-03  6.41e-03  0.000   0.3
    6    -153.7823024313962321    -5.63e-04  1.00e-04  2.55e-03  3.46e-03  0.000   0.3
                              *** Initializing SOSCF ***
---------------------------------------S-O-S-C-F--------------------------------------
Iteration    Energy (Eh)           Delta-E    RMSDP     MaxDP     MaxGrad    Time(sec)
--------------------------------------------------------------------------------------
    7    -153.7825716943174825    -2.69e-04  5.53e-05  1.21e-03  2.70e-03     0.3
               *** Restarting incremental Fock matrix formation ***
    8    -153.7826837793713537    -1.12e-04  2.90e-05  5.78e-04  1.87e-03     0.3
    9    -153.7827165866120538    -3.28e-05  4.33e-05  1.23e-03  1.11e-03     0.3
   10    -153.7827346313857504    -1.80e-05  1.40e-05  5.84e-04  5.29e-04     0.3
   11    -153.7827381755274416    -3.54e-06  1.02e-05  4.28e-04  4.88e-04     0.3
   12    -153.7827413082497969    -3.13e-06  9.38e-05  4.46e-03  4.82e-04     0.3
   13    -153.7827596597534523    -1.84e-05  9.89e-05  4.72e-03  5.76e-04     0.3
   14    -153.7827736041281810    -1.39e-05  1.72e-04  7.84e-03  7.51e-04     0.3
   15    -153.7827933193102297    -1.97e-05  1.21e-04  5.24e-03  8.40e-04     0.3
   16    -153.7828056361738618    -1.23e-05  4.28e-05  1.69e-03  5.63e-04     0.3
   17    -153.7828102644650983    -4.63e-06  8.72e-06  3.18e-04  2.05e-04     0.3
   18    -153.7828110904372636    -8.26e-07  7.36e-06  2.58e-04  1.16e-04     0.2
   19    -153.7828112609030029    -1.70e-07  1.82e-06  4.65e-05  3.05e-05     0.3
   20    -153.7828112849088598    -2.40e-08  1.03e-06  4.29e-05  1.59e-05     0.2
   21    -153.7828112879155071    -3.01e-09  6.31e-07  2.55e-05  5.02e-06     0.3
                 **** Energy Check signals convergence ****

               *****************************************************
               *                     SUCCESS                       *
               *           SCF CONVERGED AFTER  21 CYCLES          *
               *****************************************************

Recomputing exchange energy using gridx3       ... done (    0.187 sec)
Old exchange energy                            :     -6.200928792 Eh
New exchange energy                            :     -6.200930525 Eh
Exchange energy change after final integration :     -0.000001732 Eh
Total energy after final integration           :   -153.782813020 Eh
             **** ENERGY FILE WAS UPDATED (orca.en.tmp) ****

----------------
TOTAL SCF ENERGY
----------------

Total Energy       :       -153.78281302014571 Eh           -4184.64309 eV

Components:
Nuclear Repulsion  :         67.90613223911464 Eh            1847.81980 eV
Electronic Energy  :       -221.68894352703015 Eh           -6032.46284 eV
One Electron Energy:       -342.38675155935192 Eh           -9316.81717 eV
Two Electron Energy:        120.69780803232177 Eh            3284.35433 eV

Virial components:
Potential Energy   :       -307.11766950232186 Eh           -8357.09665 eV
Kinetic Energy     :        153.33485648217612 Eh            4172.45357 eV
Virial Ratio       :          2.00292142666219

DFT components:
N(Alpha)           :       12.999991376739 electrons
N(Beta)            :       10.999984118010 electrons
N(Total)           :       23.999975494749 electrons
E(XC)              :      -14.704112927830 Eh       

---------------
SCF CONVERGENCE
---------------

  Last Energy change         ...    3.0066e-09  Tolerance :   1.0000e-08
  Last MAX-Density change    ...    2.5470e-05  Tolerance :   1.0000e-07
  Last RMS-Density change    ...    6.3073e-07  Tolerance :   5.0000e-09
  Last DIIS Error            ...    2.6975e-03  Tolerance :   5.0000e-07
  Last Orbital Gradient      ...    5.0239e-06  Tolerance :   1.0000e-05
  Last Orbital Rotation      ...    1.3768e-04  Tolerance :   1.0000e-05


----------------------
UHF SPIN CONTAMINATION
----------------------

Warning: in a DFT calculation there is little theoretical justification to 
         calculate <S**2> as in Hartree-Fock theory. We will do it anyways
         but you should keep in mind that the values have only limited relevance

Expectation value of <S**2>     :     2.007850
Ideal value S*(S+1) for S=1.0   :     2.000000
Deviation                       :     0.007850

----------------
ORBITAL ENERGIES
----------------
                 SPIN UP ORBITALS
  NO   OCC          E(Eh)            E(eV) 
   0   1.0000     -19.387390      -527.5577 
   1   1.0000     -10.411111      -283.3007 
   2   1.0000     -10.364577      -282.0345 
   3   1.0000      -1.162592       -31.6357 
   4   1.0000      -0.877102       -23.8672 
   5   1.0000      -0.739115       -20.1123 
   6   1.0000      -0.615590       -16.7511 
   7   1.0000      -0.586948       -15.9717 
   8   1.0000      -0.552824       -15.0431 
   9   1.0000      -0.517626       -14.0853 
  10   1.0000      -0.442148       -12.0315 
  11   1.0000      -0.414915       -11.2904 
  12   1.0000      -0.322903        -8.7867 
  13   0.0000       0.041909         1.1404 
  14   0.0000       0.061195         1.6652 
  15   0.0000       0.078690         2.1413 
  16   0.0000       0.087545         2.3822 
  17   0.0000       0.114180         3.1070 
  18   0.0000       0.126663         3.4467 
  19   0.0000       0.129985         3.5371 
  20   0.0000       0.139732         3.8023 
  21   0.0000       0.176518         4.8033 
  22   0.0000       0.186055         5.0628 
  23   0.0000       0.203241         5.5305 

                 SPIN DOWN ORBITALS
  NO   OCC          E(Eh)            E(eV) 
   0   1.0000     -19.363266      -526.9013 
   1   1.0000     -10.412453      -283.3372 
   2   1.0000     -10.351113      -281.6681 
   3   1.0000      -1.107704       -30.1422 
   4   1.0000      -0.843765       -22.9600 
   5   1.0000      -0.712647       -19.3921 
   6   1.0000      -0.589974       -16.0540 
   7   1.0000      -0.544599       -14.8193 
   8   1.0000      -0.531540       -14.4639 
   9   1.0000      -0.490715       -13.3530 
  10   1.0000      -0.383041       -10.4231 
  11   0.0000      -0.054001        -1.4694 
  12   0.0000       0.001560         0.0425 
  13   0.0000       0.040878         1.1123 
  14   0.0000       0.061465         1.6726 
  15   0.0000       0.078628         2.1396 
  16   0.0000       0.089703         2.4409 
  17   0.0000       0.115019         3.1298 
  18   0.0000       0.127663         3.4739 
  19   0.0000       0.134273         3.6538 
  20   0.0000       0.141604         3.8532 
  21   0.0000       0.182553         4.9675 
*Only the first 10 virtual orbitals were printed.

                    ********************************
                    * MULLIKEN POPULATION ANALYSIS *
                    ********************************

--------------------------------------------
MULLIKEN ATOMIC CHARGES AND SPIN POPULATIONS
--------------------------------------------
   0 O :   -0.324702    0.935968
   1 C :    0.041869   -0.012409
   2 C :   -0.657629    0.878987
   3 H :    0.200859    0.036483
   4 H :    0.199046    0.114784
   5 H :    0.272735    0.025812
   6 H :    0.267822    0.020374
Sum of atomic charges         :    0.0000000
Sum of atomic spin populations:    2.0000000

-----------------------------------------------------
MULLIKEN REDUCED ORBITAL CHARGES AND SPIN POPULATIONS
-----------------------------------------------------
CHARGE
  0 O s       :     3.993484  s :     3.993484
      pz      :     1.333025  p :     4.310231
      px      :     1.746550
      py      :     1.230656
      dz2     :     0.008923  d :     0.019798
      dxz     :     0.003328
      dyz     :     0.006532
      dx2y2   :     0.000642
      dxy     :     0.000373
      f0      :     0.000504  f :     0.001189
      f+1     :     0.000291
      f-1     :     0.000271
      f+2     :     0.000033
      f-2     :     0.000033
      f+3     :     0.000030
      f-3     :     0.000026

  1 C s       :     3.197840  s :     3.197840
      pz      :     0.625560  p :     2.606556
      px      :     1.044396
      py      :     0.936599
      dz2     :     0.028629  d :     0.143672
      dxz     :     0.050956
      dyz     :     0.033135
      dx2y2   :     0.035112
      dxy     :    -0.004159
      f0      :     0.002641  f :     0.010063
      f+1     :     0.002979
      f-1     :     0.002321
      f+2     :     0.000465
      f-2     :     0.000463
      f+3     :     0.000632
      f-3     :     0.000562

  2 C s       :     3.608130  s :     3.608130
      pz      :     0.987107  p :     3.025767
      px      :     1.073760
      py      :     0.964900
      dz2     :     0.005777  d :     0.020001
      dxz     :     0.002489
      dyz     :     0.009205
      dx2y2   :     0.002584
      dxy     :    -0.000054
      f0      :     0.000437  f :     0.003732
      f+1     :     0.000304
      f-1     :     0.000709
      f+2     :     0.000485
      f-2     :     0.000622
      f+3     :     0.000467
      f-3     :     0.000706

  3 H s       :     0.749668  s :     0.749668
      pz      :     0.013772  p :     0.046765
      px      :     0.025594
      py      :     0.007399
      dz2     :     0.000266  d :     0.002709
      dxz     :     0.001045
      dyz     :     0.000027
      dx2y2   :     0.000472
      dxy     :     0.000899

  4 H s       :     0.769825  s :     0.769825
      pz      :     0.009279  p :     0.028619
      px      :     0.003373
      py      :     0.015966
      dz2     :     0.000647  d :     0.002511
      dxz     :     0.000196
      dyz     :     0.000584
      dx2y2   :     0.000546
      dxy     :     0.000538

  5 H s       :     0.687578  s :     0.687578
      pz      :     0.015120  p :     0.037385
      px      :     0.007663
      py      :     0.014603
      dz2     :     0.000604  d :     0.002302
      dxz     :     0.000319
      dyz     :     0.000394
      dx2y2   :     0.000593
      dxy     :     0.000392

  6 H s       :     0.690954  s :     0.690954
      pz      :     0.011734  p :     0.038989
      px      :     0.012148
      py      :     0.015106
      dz2     :     0.000241  d :     0.002235
      dxz     :     0.000719
      dyz     :     0.000076
      dx2y2   :     0.000504
      dxy     :     0.000696


SPIN
  0 O s       :     0.003731  s :     0.003731
      pz      :     0.053128  p :     0.936129
      px      :     0.167441
      py      :     0.715561
      dz2     :    -0.000087  d :    -0.003726
      dxz     :    -0.000519
      dyz     :    -0.003481
      dx2y2   :     0.000208
      dxy     :     0.000153
      f0      :    -0.000140  f :    -0.000166
      f+1     :    -0.000032
      f-1     :    -0.000062
      f+2     :     0.000003
      f-2     :     0.000013
      f+3     :     0.000028
      f-3     :     0.000025

  1 C s       :     0.009010  s :     0.009010
      pz      :    -0.054536  p :    -0.091235
      px      :    -0.003063
      py      :    -0.033637
      dz2     :     0.012982  d :     0.066999
      dxz     :     0.006635
      dyz     :     0.027602
      dx2y2   :     0.020653
      dxy     :    -0.000873
      f0      :     0.000233  f :     0.002818
      f+1     :     0.000466
      f-1     :     0.001451
      f+2     :     0.000020
      f-2     :     0.000348
      f+3     :     0.000155
      f-3     :     0.000146

  2 C s       :    -0.028740  s :    -0.028740
      pz      :     0.573371  p :     0.918807
      px      :     0.074528
      py      :     0.270908
      dz2     :    -0.003334  d :    -0.010040
      dxz     :    -0.001437
      dyz     :    -0.001383
      dx2y2   :    -0.004121
      dxy     :     0.000236
      f0      :    -0.000270  f :    -0.001040
      f+1     :    -0.000090
      f-1     :    -0.000150
      f+2     :    -0.000164
      f-2     :    -0.000247
      f+3     :    -0.000110
      f-3     :    -0.000009

  3 H s       :     0.034527  s :     0.034527
      pz      :     0.000663  p :     0.001971
      px      :     0.003263
      py      :    -0.001955
      dz2     :     0.000016  d :    -0.000015
      dxz     :    -0.000031
      dyz     :     0.000003
      dx2y2   :     0.000030
      dxy     :    -0.000034

  4 H s       :     0.105246  s :     0.105246
      pz      :     0.004702  p :     0.009432
      px      :     0.001522
      py      :     0.003208
      dz2     :     0.000007  d :     0.000107
      dxz     :    -0.000001
      dyz     :     0.000046
      dx2y2   :     0.000032
      dxy     :     0.000023

  5 H s       :    -0.000147  s :    -0.000147
      pz      :     0.013209  p :     0.024865
      px      :     0.003548
      py      :     0.008108
      dz2     :     0.000587  d :     0.001093
      dxz     :     0.000098
      dyz     :     0.000062
      dx2y2   :     0.000154
      dxy     :     0.000193

  6 H s       :    -0.003274  s :    -0.003274
      pz      :     0.012859  p :     0.022627
      px      :     0.002091
      py      :     0.007678
      dz2     :     0.000079  d :     0.001021
      dxz     :     0.000475
      dyz     :     0.000068
      dx2y2   :     0.000155
      dxy     :     0.000244



                     *******************************
                     * LOEWDIN POPULATION ANALYSIS *
                     *******************************

-------------------------------------------
LOEWDIN ATOMIC CHARGES AND SPIN POPULATIONS
-------------------------------------------
   0 O :    0.045428    0.874925
   1 C :   -0.227164    0.195667
   2 C :    0.259922    0.671621
   3 H :    0.009610    0.015008
   4 H :    0.036875    0.076898
   5 H :   -0.085772    0.091750
   6 H :   -0.038899    0.074132

----------------------------------------------------
LOEWDIN REDUCED ORBITAL CHARGES AND SPIN POPULATIONS
----------------------------------------------------
CHARGE
  0 O s       :     3.486929  s :     3.486929
      pz      :     1.450087  p :     4.203281
      px      :     1.607149
      py      :     1.146045
      dz2     :     0.080813  d :     0.260564
      dxz     :     0.083865
      dyz     :     0.081398
      dx2y2   :     0.010299
      dxy     :     0.004189
      f0      :     0.001297  f :     0.003798
      f+1     :     0.001096
      f-1     :     0.001120
      f+2     :     0.000146
      f-2     :     0.000078
      f+3     :     0.000032
      f-3     :     0.000028

  1 C s       :     2.652110  s :     2.652110
      pz      :     0.782098  p :     2.600741
      px      :     0.915537
      py      :     0.903106
      dz2     :     0.255517  d :     0.891635
      dxz     :     0.186728
      dyz     :     0.193039
      dx2y2   :     0.162799
      dxy     :     0.093553
      f0      :     0.022038  f :     0.082678
      f+1     :     0.022599
      f-1     :     0.015349
      f+2     :     0.005829
      f-2     :     0.006820
      f+3     :     0.005955
      f-3     :     0.004089

  2 C s       :     2.728284  s :     2.728284
      pz      :     0.784533  p :     2.596018
      px      :     0.942069
      py      :     0.869416
      dz2     :     0.057263  d :     0.392958
      dxz     :     0.046278
      dyz     :     0.068570
      dx2y2   :     0.122068
      dxy     :     0.098779
      f0      :     0.002260  f :     0.022818
      f+1     :     0.002052
      f-1     :     0.003540
      f+2     :     0.002430
      f-2     :     0.004211
      f+3     :     0.003395
      f-3     :     0.004931

  3 H s       :     0.692296  s :     0.692296
      pz      :     0.063645  p :     0.266764
      px      :     0.132664
      py      :     0.070456
      dz2     :     0.003402  d :     0.031331
      dxz     :     0.008948
      dyz     :     0.000099
      dx2y2   :     0.008907
      dxy     :     0.009975

  4 H s       :     0.670958  s :     0.670958
      pz      :     0.069106  p :     0.262243
      px      :     0.077268
      py      :     0.115869
      dz2     :     0.005086  d :     0.029924
      dxz     :     0.002493
      dyz     :     0.007793
      dx2y2   :     0.007629
      dxy     :     0.006921

  5 H s       :     0.738254  s :     0.738254
      pz      :     0.106478  p :     0.312850
      px      :     0.101700
      py      :     0.104673
      dz2     :     0.007373  d :     0.034667
      dxz     :     0.005793
      dyz     :     0.007243
      dx2y2   :     0.007320
      dxy     :     0.006938

  6 H s       :     0.725843  s :     0.725843
      pz      :     0.082601  p :     0.283198
      px      :     0.129181
      py      :     0.071416
      dz2     :     0.003462  d :     0.029857
      dxz     :     0.008502
      dyz     :     0.000879
      dx2y2   :     0.008266
      dxy     :     0.008747


SPIN
  0 O s       :     0.014224  s :     0.014224
      pz      :     0.041031  p :     0.846893
      px      :     0.157165
      py      :     0.648697
      dz2     :    -0.000196  d :     0.013819
      dxz     :     0.001319
      dyz     :     0.008271
      dx2y2   :     0.004024
      dxy     :     0.000401
      f0      :    -0.000158  f :    -0.000011
      f+1     :    -0.000006
      f-1     :     0.000066
      f+2     :     0.000013
      f-2     :     0.000018
      f+3     :     0.000029
      f-3     :     0.000026

  1 C s       :    -0.004639  s :    -0.004639
      pz      :    -0.013321  p :    -0.019287
      px      :    -0.001853
      py      :    -0.004113
      dz2     :     0.035616  d :     0.197644
      dxz     :     0.018722
      dyz     :     0.087092
      dx2y2   :     0.053590
      dxy     :     0.002624
      f0      :     0.002261  f :     0.021949
      f+1     :     0.003829
      f-1     :     0.009968
      f+2     :     0.000553
      f-2     :     0.003489
      f+3     :     0.001049
      f-3     :     0.000800

  2 C s       :     0.013307  s :     0.013307
      pz      :     0.417794  p :     0.660439
      px      :     0.058391
      py      :     0.184254
      dz2     :     0.001076  d :    -0.001722
      dxz     :    -0.001786
      dyz     :    -0.003015
      dx2y2   :     0.003696
      dxy     :    -0.001693
      f0      :    -0.000296  f :    -0.000404
      f+1     :     0.000019
      f-1     :     0.000446
      f+2     :    -0.000080
      f-2     :    -0.000320
      f+3     :    -0.000216
      f-3     :     0.000043

  3 H s       :     0.015624  s :     0.015624
      pz      :     0.000349  p :    -0.000202
      px      :     0.000805
      py      :    -0.001357
      dz2     :     0.000026  d :    -0.000414
      dxz     :    -0.000379
      dyz     :    -0.000005
      dx2y2   :     0.000005
      dxy     :    -0.000061

  4 H s       :     0.065580  s :     0.065580
      pz      :     0.005487  p :     0.011803
      px      :    -0.000348
      py      :     0.006664
      dz2     :    -0.000133  d :    -0.000485
      dxz     :    -0.000056
      dyz     :    -0.000074
      dx2y2   :    -0.000152
      dxy     :    -0.000070

  5 H s       :    -0.009740  s :    -0.009740
      pz      :     0.056544  p :     0.089323
      px      :     0.006996
      py      :     0.025784
      dz2     :     0.007026  d :     0.012167
      dxz     :     0.001142
      dyz     :     0.000910
      dx2y2   :     0.000848
      dxy     :     0.002241

  6 H s       :    -0.013435  s :    -0.013435
      pz      :     0.047246  p :     0.077205
      px      :     0.009804
      py      :     0.020155
      dz2     :     0.000924  d :     0.010361
      dxz     :     0.004820
      dyz     :     0.000728
      dx2y2   :     0.001764
      dxy     :     0.002125



                      *****************************
                      * MAYER POPULATION ANALYSIS *
                      *****************************

  NA   - Mulliken gross atomic population
  ZA   - Total nuclear charge
  QA   - Mulliken gross atomic charge
  VA   - Mayer's total valence
  BVA  - Mayer's bonded valence
  FA   - Mayer's free valence

  ATOM       NA         ZA         QA         VA         BVA        FA
  0 O      8.3247     8.0000    -0.3247     1.8195     1.0295     0.7900
  1 C      5.9581     6.0000     0.0419     3.4899     3.4777     0.0122
  2 C      6.6576     6.0000    -0.6576     3.4886     2.7140     0.7746
  3 H      0.7991     1.0000     0.2009     1.0504     1.0495     0.0009
  4 H      0.8010     1.0000     0.1990     0.9839     0.9728     0.0111
  5 H      0.7273     1.0000     0.2727     0.9016     0.9016     0.0001
  6 H      0.7322     1.0000     0.2678     0.9379     0.9377     0.0002

  Mayer bond orders larger than 0.100000
B(  0-O ,  1-C ) :   0.8606 B(  1-C ,  2-C ) :   0.7552 B(  1-C ,  3-H ) :   1.0011 
B(  1-C ,  4-H ) :   0.9252 B(  2-C ,  5-H ) :   0.9386 B(  2-C ,  6-H ) :   0.9513 


-------
TIMINGS
-------

Total SCF time: 0 days 0 hours 0 min 7 sec 

Total time                  ....       7.815 sec
Sum of individual times     ....       7.777 sec  ( 99.5%)

SCF preparation             ....       1.580 sec  ( 20.2%)
Fock matrix formation       ....       4.900 sec  ( 62.7%)
  Startup                   ....       0.080 sec  (  1.6% of F)
  Split-RI-J                ....       0.562 sec  ( 11.5% of F)
  Chain of spheres X        ....       2.645 sec  ( 54.0% of F)
  XC integration            ....       1.303 sec  ( 26.6% of F)
    XC Preparation          ....       0.000 sec  (  0.0% of XC)
    Basis function eval.    ....       0.057 sec  (  4.4% of XC)
    Density eval.           ....       0.234 sec  ( 18.0% of XC)
    XC-Functional eval.     ....       0.016 sec  (  1.2% of XC)
    XC-Potential eval.      ....       0.331 sec  ( 25.4% of XC)
Diagonalization             ....       0.000 sec  (  0.0%)
Density matrix formation    ....       0.157 sec  (  2.0%)
Total Energy calculation    ....       0.150 sec  (  1.9%)
Population analysis         ....       0.042 sec  (  0.5%)
[...]
[1741611323.205490] [ohm:3492955:0]        ib_iface.c:1059 UCX  ERROR ibv_create_cq(cqe=256) failed: Connection timed out
[1741611323.207880] [ohm:3492971:0]        ib_iface.c:1059 UCX  ERROR ibv_create_cq(cqe=256) failed: Connection timed out
[1741611323.209965] [ohm:3492994:0]        ib_iface.c:1059 UCX  ERROR ibv_create_cq(cqe=256) failed: Connection timed out
[1741611323.210803] [ohm:3492948:0]        ib_iface.c:1059 UCX  ERROR ibv_create_cq(cqe=256) failed: Connection timed out
[1741611323.212830] [ohm:3492981:0]        ib_iface.c:1059 UCX  ERROR ibv_create_cq(cqe=256) failed: Connection timed out
[1741611323.213015] [ohm:3492920:0]        ib_iface.c:1059 UCX  ERROR ibv_create_cq(cqe=256) failed: Connection timed out
[1741611323.216761] [ohm:3492962:0]        ib_iface.c:1059 UCX  ERROR ibv_create_cq(cqe=256) failed: Connection timed out
[1741611323.217925] [ohm:3492989:0]        ib_iface.c:1059 UCX  ERROR ibv_create_cq(cqe=256) failed: Connection timed out
[1741611323.218457] [ohm:3492985:0]        ib_iface.c:1059 UCX  ERROR ibv_create_cq(cqe=256) failed: Connection timed out
[1741611323.218954] [ohm:3492978:0]        ib_iface.c:1059 UCX  ERROR ibv_create_cq(cqe=256) failed: Connection timed out


           ************************************************************
           *        Program running with 64 parallel MPI-processes    *
           *              working on a common directory               *
           ************************************************************

------------------------------------------------------------------------------
                              ORCA PROPERTY CALCULATIONS
------------------------------------------------------------------------------

GBWName                                 ... orca.gbw
Number of atoms                         ...      7
Number of basis functions               ...    182
Max core memory                         ...   1024 MB

Electric properties:
Dipole moment                           ... YES
Quadrupole moment                       ...  NO
Static polarizability (Dipole/Dipole)   ...  NO
Static polarizability (Dipole/Quad.)    ...  NO
Static polarizability (Quad./Quad.)     ...  NO
Static polarizability (Velocity)        ...  NO

Atomic electric properties:
Dipole moment                           ...  NO
Quadrupole moment                       ...  NO
Static polarizability                   ...  NO

Choice of electric origin               ... Center of mass
Position of electric origin             ...     0.756094     0.128452     0.136617

General magnetic properties:
Magnetizability                         ...  NO

EPR properties:
g-Tensor (aka g-matrix)                 ...  NO
Zero-Field splitting spin-orbit         ...  NO
Zero-field splitting spin-spin          ...  NO
Hyperfine couplings                     ...  NO (   0 nuclei)
Quadrupole couplings                    ...  NO (   0 nuclei)
Contact density                         ...  NO (   0 nuclei)

NMR properties:
Chemical shifts                         ...  NO (   0 nuclei)
Spin-rotation constants                 ...  NO (   0 nuclei)
Spin-spin couplings                     ...  NO (   0 nuclei,    0 pairs)

Choice of magnetic origin               ... GIAO
Position of magnetic origin             ...     0.000000     0.000000     0.000000

Properties with geometric perturbations:
SCF Hessian                             ...  NO
IR spectrum                             ...  NO
VCD spectrum                            ...  NO
X-ray spectroscopy properties:
SCF XES/XAS/RIXS spectra                ...  NO


-------------
DIPOLE MOMENT
-------------

Method             : SCF
Type of density    : Electron Density
Multiplicity       :   3
Irrep              :   0
Energy             :  -153.7828130201457100 Eh
Relativity type    : 
Basis              : AO
                                X                 Y                 Z
Electronic contribution:      0.082821136      -0.930791134      -2.320170890
Nuclear contribution   :      0.033705400       0.924378523       3.089683630
                        -----------------------------------------
Total Dipole Moment    :      0.116526536      -0.006412611       0.769512740
                        -----------------------------------------
Magnitude (a.u.)       :      0.778311899
Magnitude (Debye)      :      1.978311628



--------------------
Rotational spectrum 
--------------------
 
Rotational constants in cm-1:             1.363541             0.360677             0.310632 
Rotational constants in MHz :         40877.943833         10812.836317          9312.503287 

Dipole components along the rotational axes: 
x,y,z [a.u.] :     0.591177    -0.496569     0.098485 
x,y,z [Debye]:     1.502652    -1.262177     0.250328 

 

-------------
DIPOLE MOMENT
-------------

Method             : TDA/CIS
Type of density    : Electron Density
Level              : Relaxed density
State              :   2
Multiplicity       :   3
Irrep              :   0
Energy             :     0.0000000000000000 Eh
Relativity type    : 
Basis              : AO
                                X                 Y                 Z
Electronic contribution:      0.142309960      -0.992935506      -2.404567297
Nuclear contribution   :      0.033705400       0.924378523       3.089683630
                        -----------------------------------------
Total Dipole Moment    :      0.176015359      -0.068556983       0.685116332
                        -----------------------------------------
Magnitude (a.u.)       :      0.710679854
Magnitude (Debye)      :      1.806404633



--------------------
Rotational spectrum 
--------------------
 
Rotational constants in cm-1:             1.363541             0.360677             0.310632 
Rotational constants in MHz :         40877.943833         10812.836317          9312.503287 

Dipole components along the rotational axes: 
x,y,z [a.u.] :     0.475950    -0.522481     0.074505 
x,y,z [Debye]:     1.209769    -1.328041     0.189377 

 

Dipole moment calculation done in   0.0 sec 

Maximum memory used throughout the entire PROP-calculation: 7.4 MB
[1741611324.872426] [ohm:3493181:0]        ib_iface.c:1059 UCX  ERROR ibv_create_cq(cqe=256) failed: Connection timed out
[1741611324.891731] [ohm:3493185:0]        ib_iface.c:1059 UCX  ERROR ibv_create_cq(cqe=256) failed: Connection timed out
[1741611324.893766] [ohm:3493180:0]        ib_iface.c:1059 UCX  ERROR ibv_create_cq(cqe=256) failed: Connection timed out
[1741611324.897817] [ohm:3493187:0]        ib_iface.c:1059 UCX  ERROR ibv_create_cq(cqe=256) failed: Connection timed out
[1741611324.911983] [ohm:3493182:0]        ib_iface.c:1059 UCX  ERROR ibv_create_cq(cqe=256) failed: Connection timed out
[1741611324.928810] [ohm:3493184:0]        ib_iface.c:1059 UCX  ERROR ibv_create_cq(cqe=256) failed: Connection timed out
[1741611324.932482] [ohm:3493186:0]        ib_iface.c:1059 UCX  ERROR ibv_create_cq(cqe=256) failed: Connection timed out
[1741611324.940903] [ohm:3493183:0]        ib_iface.c:1059 UCX  ERROR ibv_create_cq(cqe=256) failed: Connection timed out
[1741611324.942588] [ohm:3493188:0]        ib_iface.c:1059 UCX  ERROR ibv_create_cq(cqe=256) failed: Connection timed out
[1741611324.966568] [ohm:3493204:0]        ib_iface.c:1059 UCX  ERROR ibv_create_cq(cqe=256) failed: Connection timed out
[1741611324.972308] [ohm:3493211:0]        ib_iface.c:1059 UCX  ERROR ibv_create_cq(cqe=256) failed: Connection timed out
[1741611324.976512] [ohm:3493198:0]        ib_iface.c:1059 UCX  ERROR ibv_create_cq(cqe=256) failed: Connection timed out
[1741611324.981803] [ohm:3493219:0]        ib_iface.c:1059 UCX  ERROR ibv_create_cq(cqe=256) failed: Connection timed out
[1741611324.984943] [ohm:3493199:0]        ib_iface.c:1059 UCX  ERROR ibv_create_cq(cqe=256) failed: Connection timed out
[1741611324.985581] [ohm:3493212:0]        ib_iface.c:1059 UCX  ERROR ibv_create_cq(cqe=256) failed: Connection timed out
[1741611324.990517] [ohm:3493223:0]        ib_iface.c:1059 UCX  ERROR ibv_create_cq(cqe=256) failed: Connection timed out
[1741611325.020103] [ohm:3493213:0]        ib_iface.c:1059 UCX  ERROR ibv_create_cq(cqe=256) failed: Connection timed out
[1741611325.033357] [ohm:3493268:0]        ib_iface.c:1059 UCX  ERROR ibv_create_cq(cqe=256) failed: Connection timed out
[1741611325.034222] [ohm:3493234:0]        ib_iface.c:1059 UCX  ERROR ibv_create_cq(cqe=256) failed: Connection timed out
[1741611325.043689] [ohm:3493214:0]        ib_iface.c:1059 UCX  ERROR ibv_create_cq(cqe=256) failed: Connection timed out
[1741611325.055522] [ohm:3493235:0]        ib_iface.c:1059 UCX  ERROR ibv_create_cq(cqe=256) failed: Connection timed out
[1741611325.078775] [ohm:3493230:0]        ib_iface.c:1059 UCX  ERROR ibv_create_cq(cqe=256) failed: Connection timed out
[1741611325.095351] [ohm:3493280:0]        ib_iface.c:1059 UCX  ERROR ibv_create_cq(cqe=256) failed: Connection timed out
[1741611325.095354] [ohm:3493233:0]        ib_iface.c:1059 UCX  ERROR ibv_create_cq(cqe=256) failed: Connection timed out
[1741611325.096596] [ohm:3493252:0]        ib_iface.c:1059 UCX  ERROR ibv_create_cq(cqe=256) failed: Connection timed out
[1741611325.098389] [ohm:3493232:0]        ib_iface.c:1059 UCX  ERROR ibv_create_cq(cqe=256) failed: Connection timed out
[1741611325.099339] [ohm:3493236:0]        ib_iface.c:1059 UCX  ERROR ibv_create_cq(cqe=256) failed: Connection timed out
[1741611325.105520] [ohm:3493249:0]        ib_iface.c:1059 UCX  ERROR ibv_create_cq(cqe=256) failed: Connection timed out
[1741611325.113652] [ohm:3493291:0]        ib_iface.c:1059 UCX  ERROR ibv_create_cq(cqe=256) failed: Connection timed out
[1741611325.125380] [ohm:3493296:0]        ib_iface.c:1059 UCX  ERROR ibv_create_cq(cqe=256) failed: Connection timed out
[1741611325.125821] [ohm:3493231:0]        ib_iface.c:1059 UCX  ERROR ibv_create_cq(cqe=256) failed: Connection timed out
[1741611325.135881] [ohm:3493285:0]        ib_iface.c:1059 UCX  ERROR ibv_create_cq(cqe=256) failed: Connection timed out
[1741611325.141509] [ohm:3493259:0]        ib_iface.c:1059 UCX  ERROR ibv_create_cq(cqe=256) failed: Connection timed out
[1741611325.141577] [ohm:3493282:0]        ib_iface.c:1059 UCX  ERROR ibv_create_cq(cqe=256) failed: Connection timed out
[1741611325.143790] [ohm:3493209:0]        ib_iface.c:1059 UCX  ERROR ibv_create_cq(cqe=256) failed: Connection timed out
[1741611325.146190] [ohm:3493292:0]        ib_iface.c:1059 UCX  ERROR ibv_create_cq(cqe=256) failed: Connection timed out
[1741611325.148786] [ohm:3493305:0]        ib_iface.c:1059 UCX  ERROR ibv_create_cq(cqe=256) failed: Connection timed out
[1741611325.149247] [ohm:3493220:0]        ib_iface.c:1059 UCX  ERROR ibv_create_cq(cqe=256) failed: Connection timed out
[1741611325.172597] [ohm:3493227:0]        ib_iface.c:1059 UCX  ERROR ibv_create_cq(cqe=256) failed: Connection timed out
[1741611325.174670] [ohm:3493200:0]        ib_iface.c:1059 UCX  ERROR ibv_create_cq(cqe=256) failed: Connection timed out
[1741611325.174667] [ohm:3493273:0]        ib_iface.c:1059 UCX  ERROR ibv_create_cq(cqe=256) failed: Connection timed out
[1741611325.175518] [ohm:3493245:0]        ib_iface.c:1059 UCX  ERROR ibv_create_cq(cqe=256) failed: Connection timed out
[1741611325.176117] [ohm:3493318:0]        ib_iface.c:1059 UCX  ERROR ibv_create_cq(cqe=256) failed: Connection timed out
[1741611325.178759] [ohm:3493312:0]        ib_iface.c:1059 UCX  ERROR ibv_create_cq(cqe=256) failed: Connection timed out
[1741611325.181598] [ohm:3493201:0]        ib_iface.c:1059 UCX  ERROR ibv_create_cq(cqe=256) failed: Connection timed out
[1741611325.182635] [ohm:3493228:0]        ib_iface.c:1059 UCX  ERROR ibv_create_cq(cqe=256) failed: Connection timed out
[1741611325.193959] [ohm:3493210:0]        ib_iface.c:1059 UCX  ERROR ibv_create_cq(cqe=256) failed: Connection timed out
[1741611325.194663] [ohm:3493326:0]        ib_iface.c:1059 UCX  ERROR ibv_create_cq(cqe=256) failed: Connection timed out
[1741611325.195106] [ohm:3493320:0]        ib_iface.c:1059 UCX  ERROR ibv_create_cq(cqe=256) failed: Connection timed out
[1741611325.195668] [ohm:3493322:0]        ib_iface.c:1059 UCX  ERROR ibv_create_cq(cqe=256) failed: Connection timed out
[1741611325.199963] [ohm:3493302:0]        ib_iface.c:1059 UCX  ERROR ibv_create_cq(cqe=256) failed: Connection timed out
[1741611325.202016] [ohm:3493240:0]        ib_iface.c:1059 UCX  ERROR ibv_create_cq(cqe=256) failed: Connection timed out
[1741611325.204811] [ohm:3493207:0]        ib_iface.c:1059 UCX  ERROR ibv_create_cq(cqe=256) failed: Connection timed out
[1741611325.207137] [ohm:3493276:0]        ib_iface.c:1059 UCX  ERROR ibv_create_cq(cqe=256) failed: Connection timed out
[1741611325.210716] [ohm:3493262:0]        ib_iface.c:1059 UCX  ERROR ibv_create_cq(cqe=256) failed: Connection timed out
[1741611325.211191] [ohm:3493306:0]        ib_iface.c:1059 UCX  ERROR ibv_create_cq(cqe=256) failed: Connection timed out
[1741611325.211786] [ohm:3493203:0]        ib_iface.c:1059 UCX  ERROR ibv_create_cq(cqe=256) failed: Connection timed out
[1741611325.215276] [ohm:3493299:0]        ib_iface.c:1059 UCX  ERROR ibv_create_cq(cqe=256) failed: Connection timed out
[1741611325.215473] [ohm:3493197:0]        ib_iface.c:1059 UCX  ERROR ibv_create_cq(cqe=256) failed: Connection timed out
[1741611325.216938] [ohm:3493330:0]        ib_iface.c:1059 UCX  ERROR ibv_create_cq(cqe=256) failed: Connection timed out
[1741611325.217109] [ohm:3493324:0]        ib_iface.c:1059 UCX  ERROR ibv_create_cq(cqe=256) failed: Connection timed out
[1741611325.217481] [ohm:3493208:0]        ib_iface.c:1059 UCX  ERROR ibv_create_cq(cqe=256) failed: Connection timed out
[1741611325.220050] [ohm:3493313:0]        ib_iface.c:1059 UCX  ERROR ibv_create_cq(cqe=256) failed: Connection timed out
[1741611325.220813] [ohm:3493339:0]        ib_iface.c:1059 UCX  ERROR ibv_create_cq(cqe=256) failed: Connection timed out

--------------------------------
SUGGESTED CITATIONS FOR THIS RUN
--------------------------------

Below you find a list of papers that are relevant to this ORCA run
We neither can nor want to force you to cite these papers, but we appreciate if you do
You receive ORCA, which is the product of decades of hard work by many enthusiastic individuals, for free
The only thing we kindly ask in return is that you cite our papers,
We deeply appreciate it, if you show your appreciation for ORCA by not just citing the generic ORCA reference.

Please note that relegating all ORCA citations to the supporting information does *not* help us.
SI sections are not indexed - citations you put there will not count into any citation statistics
But we need these citations in order to attract the funding resources that allow us to do what we are doing

Therefore, if you are a happy ORCA user, please consider citing a few of the papers listed below in the main body of your paper

In addition to the list printed below, the program has created the file orca.bibtex that contains the list in bibtex format
You can import this file easily into all common literature databanks and citation aid programs


List of essential papers. We consider these as the minimum necessary citations

  1. Neese,F.
     Software update: the ORCA program system, version 5.0
     WIRES Comput. Molec. Sci., 2022 12(1)e1606
     doi.org/10.1002/wcms.1606

List of papers to cite with high priority. The work reported in these papers was absolutely
necessary for this run to complete.
Our perspective: the developers of density functionals and basis sets usually get cited in chemistry papers
Good! But without the algorithms to do something with them, the functionals or basis sets would not do anything.
Hence, in our opinion, the algorithm design and method developments papers are equally worthy of getting cited

  1. Neese,F.; Olbrich,G.
     Efficient use of the resolution of the identity approximation in time-dependent density functional calculations with hybrid density functionals
     Chem. Phys. Lett., 2002 362 170-178
     doi.org/10.1016/s0009-2614(02)01053-9
  2. Neese,F.
     An improvement of the resolution of the identity approximation for the formation of the Coulomb matrix
     J. Comp. Chem., 2003 24(14)1740-1747
     doi.org/10.1002/jcc.10318
  3. Neese,F.; Wennmohs,F.; Hansen,A.; Becker,U.
     Efficient, approximate and parallel Hartree-Fock and hybrid DFT calculations. A 'chain-of-spheres' algorithm for the Hartree-Fock exchange
     Chem. Phys., 2009 356(1-3)98-109
     doi.org/10.1016/j.chemphys.2008.10.036
  4. Petrenko,T.; Kossmann,S.; Neese,F.
     Efficient time-dependent density functional theory approximations for hybrid density functionals: Analytical gradients and parallelization
     J. Chem. Phys., 2011 134 054116
     doi.org/10.1063/1.3533441
  5. Helmich-Paris,B.; de Souza,B.; Neese,F.; Izsák,R.
     An improved chain of spheres for exchange algorithm
     J. Chem. Phys., 2021 155 104109
     doi.org/doi: 10.1063/5.0058766.
  6. Neese,F.
     The SHARK Integral Generation and Digestion System
     J. Comp. Chem., 2022  1-16
     doi.org/10.1002/jcc.26942
  7. Lehtola,S.; Steigemann,C.; Oliveira,M.; Marques,M.
     Recent developments in Libxc - A comprehensive library of functionals for density functional theory
     Software X, 2018 7 
     doi.org/10.1016/j.softx.2017.11.002
  8. Grimme,S.; Antony,J.; Ehrlich,S.; Krieg,H.
     A consistent and accurate ab initio parametrization of density functional dispersion correction (DFT-D) for the 94 elements H-Pu
     J. Chem. Phys., 2010 132 154104-XXXX
     doi.org/10.1063/1.3382344
  9. Grimme,S.; Ehrlich,S.; Goerigk,L.
     Effect of the damping function in dispersion corrected density functional theory
     J. Comput. Chem., 2011 32(7)1456-1465
     doi.org/10.1002/jcc.21759

List of suggested additional citations. These are papers that are important in the 'surrounding' of 
of this run, or papers that preceded the highly important papers. If you like your results we are grateful for a citation.

  1. Izsak,R.; Neese,F.
     An overlap fitted chain of spheres exchange method
     J. Chem. Phys., 2011 135 144105
     doi.org/10.1063/1.3646921
  2. Izsak,R.; Hansen,A.; Neese,F.
     The resolution of identity and chain of spheres approximations for the LPNO-CCSD singles Fock term
     Molec. Phys., 2012 110 2413-2417
     doi.org/10.1080/00268976.2012.687466
  3. Neese,F.
     The ORCA program system
     WIRES Comput. Molec. Sci., 2012 2(1)73-78
     doi.org/10.1002/wcms.81
  4. Izsak,R.; Neese,F.; Klopper,W.
     Robust fitting techniques in the chain of spheres approximation to the Fock exchange: The role of the complementary space
     J. Chem. Phys., 2013 139 
     doi.org/10.1063/1.4819264
  5. Neese,F.
     Software update: the ORCA program system, version 4.0
     WIRES Comput. Molec. Sci., 2018 8(1)1-6
     doi.org/10.1002/wcms.1327
  6. Neese,F.; Wennmohs,F.; Becker,U.; Riplinger,C.
     The ORCA quantum chemistry program package
     J. Chem. Phys., 2020 152 Art. No. L224108
     doi.org/10.1063/5.0004608

List of optional additional citations

  1. Neese,F.
     Approximate second-order SCF convergence for spin unrestricted wavefunctions
     Chem. Phys. Lett., 2000 325(1-3)93-98
     doi.org/10.1016/s0009-2614(00)00662-x

Timings for individual modules:

Sum of individual times          ...       25.171 sec (=   0.420 min)
Startup calculation              ...        2.394 sec (=   0.040 min)   9.5 %
SCF iterations                   ...       10.467 sec (=   0.174 min)  41.6 %
Property integrals               ...        2.074 sec (=   0.035 min)   8.2 %
Property calculations            ...        2.000 sec (=   0.033 min)   7.9 %
CIS module                       ...        8.236 sec (=   0.137 min)  32.7 %
                             ****ORCA TERMINATED NORMALLY****
TOTAL RUN TIME: 0 days 0 hours 0 minutes 27 seconds 197 msec
