
                                 *****************
                                 * O   R   C   A *
                                 *****************

                                            #,                                       
                                            ###                                      
                                            ####                                     
                                            #####                                    
                                            ######                                   
                                           ########,                                 
                                     ,,################,,,,,                         
                               ,,#################################,,                 
                          ,,##########################################,,             
                       ,#########################################, ''#####,          
                    ,#############################################,,   '####,        
                  ,##################################################,,,,####,       
                ,###########''''           ''''###############################       
              ,#####''   ,,,,##########,,,,          '''####'''          '####       
            ,##' ,,,,###########################,,,                        '##       
           ' ,,###''''                  '''############,,,                           
         ,,##''                                '''############,,,,        ,,,,,,###''
      ,#''                                            '''#######################'''  
     '                                                          ''''####''''         
             ,#######,   #######,   ,#######,      ##                                
            ,#'     '#,  ##    ##  ,#'     '#,    #''#        ,####,   ,####,        
            ##       ##  ##   ,#'  ##            #'  '#       #'       #'  '#        
            ##       ##  #######   ##           ,######,      #####,   #    #        
            '#,     ,#'  ##    ##  '#,     ,#' ,#      #,     #,   #   #,  ,#        
             '#######'   ##     ##  '#######'  #'      '#     '####' # '####'        



                #########################################################
                #                        -***-                          #
                #          Department of theory and spectroscopy        #
                #                                                       #
                #                      Frank Neese                      #
                #                                                       #
                #     Directorship, Architecture, Infrastructure        #
                #                    SHARK, DRIVERS                     #
                #        Core code/Algorithms in most modules           #
                #                                                       #
                #        Max Planck Institute fuer Kohlenforschung      #
                #                Kaiser Wilhelm Platz 1                 #
                #                 D-45470 Muelheim/Ruhr                 #
                #                      Germany                          #
                #                                                       #
                #                  All rights reserved                  #
                #                        -***-                          #
                #########################################################


                         Program Version 6.0.0  -   RELEASE  -


 With contributions from (in alphabetic order):
   Daniel Aravena         : Magnetic Suceptibility
   Michael Atanasov       : Ab Initio Ligand Field Theory (pilot matlab implementation)
   Alexander A. Auer      : GIAO ZORA, VPT2 properties, NMR spectrum
   Ute Becker             : All parallelization in ORCA, NUMFREQ, NUMCALC
   Giovanni Bistoni       : ED, misc. LED, open-shell LED, HFLD
   Martin Brehm           : Molecular dynamics
   Dmytro Bykov           : pre 5.0 version of the SCF Hessian
   Marcos Casanova-Páez   : Triplet and SCS-CIS(D). UHF-(DLPNO)-IP/EA/STEOM-CCSD. UHF-CVS-IP/STEOM-CCSD
   Vijay G. Chilkuri      : MRCI spin determinant printing, contributions to CSF-ICE
   Pauline Colinet        : FMM embedding
   Dipayan Datta          : RHF DLPNO-CCSD density
   Achintya Kumar Dutta   : EOM-CC, STEOM-CC
   Nicolas Foglia         : Exact transition moments, OPA infrastructure, MCD improvements
   Dmitry Ganyushin       : Spin-Orbit,Spin-Spin,Magnetic field MRCI
   Miquel Garcia          : C-PCM and meta-GGA Hessian, CCSD/C-PCM, Gaussian charge scheme
   Tiago L. C. Gouveia    : GS-ROHF, GS-ROCIS
   Yang Guo               : DLPNO-NEVPT2, F12-NEVPT2, CIM, IAO-localization
   Andreas Hansen         : Spin unrestricted coupled pair/coupled cluster methods
   Ingolf Harden          : AUTO-CI MPn and infrastructure 
   Benjamin Helmich-Paris : MC-RPA, TRAH-(SCF,CASSCF), AVAS, COSX integrals, SCF dyn. polar.
   Lee Huntington         : MR-EOM, pCC
   Robert Izsak           : Overlap fitted RIJCOSX, COSX-SCS-MP3, EOM
   Riya Kayal             : Wick's Theorem for AUTO-CI, AUTO-CI UHF-CCSDT
   Emily Kempfer          : AUTO-CI, RHF CISDT and CCSDT
   Christian Kollmar      : KDIIS, OOCD, Brueckner-CCSD(T), CCSD density, CASPT2, CASPT2-K, improved NEVPT2
   Axel Koslowski         : Symmetry handling
   Simone Kossmann        : Meta GGA functionals, TD-DFT gradient, OOMP2, (MP2 Hessian; deprecated post 5.0)
   Lucas Lang             : DCDCAS
   Marvin Lechner         : AUTO-CI (C++ implementation), FIC-MRCC
   Spencer Leger          : CASSCF response
   Dagmar Lenk            : GEPOL surface, SMD, ORCA-2-JSON
   Dimitrios Liakos       : Extrapolation schemes; Compound Job, initial MDCI parallelization
   Dimitrios Manganas     : Further ROCIS development; embedding schemes. LFT, Crystal Embedding
   Dimitrios Pantazis     : SARC Basis sets
   Anastasios Papadopoulos: AUTO-CI, single reference methods and gradients
   Taras Petrenko         : pre 6.0 DFT Hessian and TD-DFT gradient, (ASA, deprecated), ECA, 1-Electron XAS/XES, NRVS
   Peter Pinski           : DLPNO-MP2, DLPNO-MP2 Gradient
   Christoph Reimann      : Effective Core Potentials
   Marius Retegan         : Local ZFS, SOC
   Christoph Riplinger    : Optimizer, TS searches, QM/MM, DLPNO-CCSD(T), (RO)-DLPNO pert. Triples
   Michael Roemelt        : Original ROCIS implementation
   Masaaki Saitow         : Open-shell DLPNO-CCSD energy and density
   Barbara Sandhoefer     : DKH picture change effects
   Kantharuban Sivalingam : CASSCF convergence/infrastructure, NEVPT2 and variants, FIC-MRCI
   Bernardo de Souza      : ESD, SOC TD-DFT
   Georgi Stoychev        : AutoAux, RI-MP2 NMR, DLPNO-MP2 response, X2C
   Van Anh Tran           : RI-MP2 g-tensors
   Willem Van den Heuvel  : Paramagnetic NMR
   Zikuan Wang            : NOTCH, Electric field optimization 
   Frank Wennmohs         : Technical directorship and infrastructure
   Hang Xu                : AUTO-CI-Response properties 


 We gratefully acknowledge several colleagues who have allowed us to
 interface, adapt or use parts of their codes:
   Stefan Grimme, W. Hujo, H. Kruse, P. Pracht,  : VdW corrections, initial TS optimization,
                  C. Bannwarth, S. Ehlert,         DFT functionals, gCP, sTDA/sTD-DF
                  L. Wittmann, M. Mueller
   Ed Valeev, F. Pavosevic, A. Kumar             : LibInt (2-el integral package), F12 methods
   Garnet Chan, S. Sharma, J. Yang, R. Olivares  : DMRG
   Ulf Ekstrom                                   : XCFun DFT Library
   Mihaly Kallay                                 : mrcc  (arbitrary order and MRCC methods)
   Frank Weinhold                                : gennbo (NPA and NBO analysis)
   Simon Mueller                                 : openCOSMO-RS
   Christopher J. Cramer and Donald G. Truhlar   : smd solvation model
   Lars Goerigk                                  : TD-DFT with DH, B97 family of functionals
   V. Asgeirsson, H. Jonsson                     : NEB implementation
   FAccTs GmbH                                   : IRC, NEB, NEB-TS, DLPNO-Multilevel, CI-OPT
                                                   MM, QMMM, 2- and 3-layer-ONIOM, Crystal-QMMM,
                                                   LR-CPCM, SF, NACMEs, symmetry and pop. for TD-DFT,
                                                   nearIR, NL-DFT gradient (VV10), updates on ESD,
                                                   ML-optimized integration grids, MBIS, APM,
                                                   GOAT, DOCKER, SOLVATOR, interface openCOSMO-RS
   S Lehtola, MJT Oliveira, MAL Marques          : LibXC Library
   Liviu Ungur et al                             : ANISO software


 Your calculation uses the libint2 library for the computation of 2-el integrals
 For citations please refer to: http://libint.valeyev.net

 Your ORCA version has been built with support for libXC version: 6.2.2
 For citations please refer to: https://libxc.gitlab.io

 This ORCA versions uses:
   CBLAS   interface :  Fast vector & matrix operations
   LAPACKE interface :  Fast linear algebra routines
   SCALAPACK package :  Parallel linear algebra routines
   Shared memory     :  Shared parallel matrices
   BLAS/LAPACK       :  OpenBLAS 0.3.27  USE64BITINT DYNAMIC_ARCH NO_AFFINITY Zen SINGLE_THREADED
        Core in use  :  Zen
   Copyright (c) 2011-2014, The OpenBLAS Project


Your calculation utilizes the atom-pairwise dispersion correction
with the Becke-Johnson damping scheme (D3BJ)


Warning: RI is on but no J-basis has been assigned. Assigning Def2/J (nothing to worry about!)
================================================================================

----- Orbital basis set information -----
Your calculation utilizes the basis: def2-TZVPPD
   F. Weigend and R. Ahlrichs, Phys. Chem. Chem. Phys. 7, 3297 (2005).
   D. Rappoport and F. Furche, J. Chem. Phys. 133, 134105 (2010)
   D. Rappoport, J. Chem. Phys. 155, 124102 (2021).

----- AuxJ basis set information -----
Your calculation utilizes the auxiliary basis: def2/J
   F. Weigend, Phys. Chem. Chem. Phys. 8, 1057 (2006).

================================================================================
                                        WARNINGS
                       Please study these warnings very carefully!
================================================================================

Using LibXC functional ID 531 : wB97M-V exchange-correlation functional
[ 1]  N. Mardirossian and M. Head-Gordon.,  J. Chem. Phys. 144, 214110 (2016)
Using LibXC functional ID 531 : wB97M-V exchange-correlation functional
[ 1]  N. Mardirossian and M. Head-Gordon.,  J. Chem. Phys. 144, 214110 (2016)

WARNING: B97M-V or wB97M-V functional requested.
  ===> : libXC variant has now been activated.
         Any manually given DFX/HFX/RangeSep scaling parameters are IGNORED!

Your calculation utilizes LibXC
 by S Lehtola, C Steigemann, MJT Oliveira & MAL Marques
Please cite in your paper:
 S Lehtola, C Steigemann, MJT Oliveira & MAL Marques, SoftwareX, 7, (2018), 1.
   


WARNING: your system is open-shell and RHF/RKS was chosen
  ===> : WILL SWITCH to UHF/UKS

INFO   : Checking CIS options ...

WARNING: CIS/ROCIS methods need fully converged wavefunctions
  ===> : Setting SCFConvForced true
         You can overwrite this default with %scf ConvForced false 


================================================================================
                                       INPUT FILE
================================================================================
NAME = orca.inp
|  1> ! Engrad def2-TZVPPD wB97M-D3BJ 
|  2> %pal nprocs 8 end%pal nprocs 64 end 
|  3> %tddft 
|  4>  Iroot 1 Nroots 3 
|  5> sf true 
|  6> end 
|  7> *xyz 0 3 
|  8> O   2.97352304 -0.82685177 -2.09419701
|  9> O   -2.26658934 1.23337565 -1.6713791
| 10> O   -1.24765761 -2.3027301 -1.1927833
| 11> O   -2.76154776 0.70650907 2.78530757
| 12> N   0.19767813 -1.76453335 0.53623462
| 13> N   -0.59736191 0.98421523 2.0891819
| 14> N   0.86750696 -1.47225754 -1.64184164
| 15> N   -2.46675995 0.91654535 0.58407622
| 16> C   2.26913866 -0.62776343 0.15024501
| 17> C   -0.29317433 1.27809745 -0.25714267
| 18> C   1.03633011 -0.6592305 0.97062997
| 19> C   0.34151793 0.84539205 1.01223176
| 20> C   3.49584631 0.05194544 0.68242324
| 21> C   0.46407967 1.7391084 -1.4837556
| 22> C   2.10071486 -0.99176639 -1.25820877
| 23> C   -1.75838983 1.12797713 -0.59882829
| 24> C   -0.152361 -1.88083925 -0.8079372
| 25> C   -1.980915 0.87584124 1.91255451
| 26> H   1.34292885 -0.87606212 1.97619554
| 27> H   1.31731394 1.39584643 1.32007983
| 28> H   3.57785675 1.05456156 0.41118708
| 29> H   3.49869382 0.01628149 1.73718952
| 30> H   4.44190583 -0.33810331 0.36855281
| 31> H   0.20632957 1.19271588 -2.35591296
| 32> H   0.1461729 2.76951108 -1.65537077
| 33> H   1.53635099 1.57845006 -1.36037721
| 34> H   -0.57313263 -2.01834901 1.15571079
| 35> H   -0.27334905 0.87650168 3.01475521
| 36> H   0.76289896 -1.52328544 -2.64042285
| 37> H   -3.4463484 0.886043 0.49155793
| 38> *
| 39> 
| 40>                          ****END OF INPUT****
================================================================================

                     *******************************
                     * Energy+Gradient Calculation *
                     *******************************

---------------------------------
CARTESIAN COORDINATES (ANGSTROEM)
---------------------------------
  O      2.973523   -0.826852   -2.094197
  O     -2.266589    1.233376   -1.671379
  O     -1.247658   -2.302730   -1.192783
  O     -2.761548    0.706509    2.785308
  N      0.197678   -1.764533    0.536235
  N     -0.597362    0.984215    2.089182
  N      0.867507   -1.472258   -1.641842
  N     -2.466760    0.916545    0.584076
  C      2.269139   -0.627763    0.150245
  C     -0.293174    1.278097   -0.257143
  C      1.036330   -0.659231    0.970630
  C      0.341518    0.845392    1.012232
  C      3.495846    0.051945    0.682423
  C      0.464080    1.739108   -1.483756
  C      2.100715   -0.991766   -1.258209
  C     -1.758390    1.127977   -0.598828
  C     -0.152361   -1.880839   -0.807937
  C     -1.980915    0.875841    1.912555
  H      1.342929   -0.876062    1.976196
  H      1.317314    1.395846    1.320080
  H      3.577857    1.054562    0.411187
  H      3.498694    0.016281    1.737190
  H      4.441906   -0.338103    0.368553
  H      0.206330    1.192716   -2.355913
  H      0.146173    2.769511   -1.655371
  H      1.536351    1.578450   -1.360377
  H     -0.573133   -2.018349    1.155711
  H     -0.273349    0.876502    3.014755
  H      0.762899   -1.523285   -2.640423
  H     -3.446348    0.886043    0.491558

----------------------------
CARTESIAN COORDINATES (A.U.)
----------------------------
  NO LB      ZA    FRAG     MASS         X           Y           Z
   0 O     8.0000    0    15.999    5.619144   -1.562523   -3.957459
   1 O     8.0000    0    15.999   -4.283233    2.330742   -3.158449
   2 O     8.0000    0    15.999   -2.357731   -4.351529   -2.254034
   3 O     8.0000    0    15.999   -5.218569    1.335109    5.263469
   4 N     7.0000    0    14.007    0.373558   -3.334485    1.013337
   5 N     7.0000    0    14.007   -1.128850    1.859897    3.947982
   6 N     7.0000    0    14.007    1.639351   -2.782164   -3.102631
   7 N     7.0000    0    14.007   -4.661501    1.732020    1.103744
   8 C     6.0000    0    12.011    4.288051   -1.186301    0.283922
   9 C     6.0000    0    12.011   -0.554019    2.415254   -0.485929
  10 C     6.0000    0    12.011    1.958380   -1.245765    1.834225
  11 C     6.0000    0    12.011    0.645375    1.597559    1.912841
  12 C     6.0000    0    12.011    6.606192    0.098163    1.289593
  13 C     6.0000    0    12.011    0.876983    3.286439   -2.803892
  14 C     6.0000    0    12.011    3.969776   -1.874167   -2.377670
  15 C     6.0000    0    12.011   -3.322875    2.131568   -1.131621
  16 C     6.0000    0    12.011   -0.287921   -3.554271   -1.526780
  17 C     6.0000    0    12.011   -3.743387    1.655100    3.614204
  18 H     1.0000    0     1.008    2.537768   -1.655517    3.734468
  19 H     1.0000    0     1.008    2.489363    2.637767    2.494589
  20 H     1.0000    0     1.008    6.761169    1.992833    0.777031
  21 H     1.0000    0     1.008    6.611573    0.030768    3.282812
  22 H     1.0000    0     1.008    8.393986   -0.638923    0.696464
  23 H     1.0000    0     1.008    0.389906    2.253906   -4.452030
  24 H     1.0000    0     1.008    0.276227    5.233617   -3.128197
  25 H     1.0000    0     1.008    2.903283    2.982838   -2.570740
  26 H     1.0000    0     1.008   -1.083064   -3.814127    2.183977
  27 H     1.0000    0     1.008   -0.516555    1.656348    5.697062
  28 H     1.0000    0     1.008    1.441670   -2.878592   -4.989676
  29 H     1.0000    0     1.008   -6.512655    1.674379    0.928910

--------------------------------
INTERNAL COORDINATES (ANGSTROEM)
--------------------------------
 O      0   0   0     0.000000000000     0.00000000     0.00000000
 O      1   0   0     5.646422740299     0.00000000     0.00000000
 O      2   1   0     3.710972875859    53.64141541     0.00000000
 O      2   1   3     4.514933920359    97.64738629    68.90337138
 N      3   2   1     2.316927731008    92.64699596    59.28363397
 N      4   2   1     2.290286456554    65.30634905    27.34282354
 N      1   2   3     2.248661316858    38.78435578   359.25181905
 N      4   2   1     2.230792358796     1.82571546   337.45774467
 C      1   2   3     2.360786628023    67.73687972   284.36724743
 C      8   4   6     2.358568122692   119.21922863   358.03937170
 C      5   3   2     1.453867550321   139.41232350   329.95313213
 C      6   4   2     1.435475124588   146.54824505   334.59984335
 C      9   1   2     1.500009824972    97.55666165   227.74748494
 C     10   8   4     1.513454325898   142.83198924   196.51114826
 C      1   2   3     1.219781656028    48.23743411   313.77831166
 C      2   1   3     1.191528778509    68.85745490    82.06765961
 C      3   2   1     1.235221872328    87.60400698    29.58090634
 C      4   2   1     1.183114023888    35.19525010    27.52042270
 H     11   5   3     1.073396876449   106.92359680   168.20558870
 H     12   6   4     1.161872760588   107.74053713   169.53410105
 H     13   9   1     1.041889557892   114.08340938    74.39218257
 H     13   9   1     1.055372887215   109.96664460   194.60779451
 H     13   9   1     1.070365026329   116.97900477   315.75828554
 H     14  10   8     1.060961055159   112.81874507   304.90812571
 H     14  10   8     1.091900253657   105.61422157    61.00093737
 H     14  10   8     1.091237422849   110.80394577   187.72852533
 H      5   3   2     1.020941889723    85.64560273    96.41873502
 H      6   4   2     0.986545738668    90.68458155   182.20030979
 H      7   1   2     1.005341291904    84.96328226    83.36443245
 H      8   4  18     0.984420417664    87.61142025   185.14924423

---------------------------
INTERNAL COORDINATES (A.U.)
---------------------------
 O      0   0   0     0.000000000000     0.00000000     0.00000000
 O      1   0   0    10.670192615510     0.00000000     0.00000000
 O      2   1   0     7.012722425784    53.64141541     0.00000000
 O      2   1   3     8.531988622229    97.64738629    68.90337138
 N      3   2   1     4.378358883692    92.64699596    59.28363397
 N      4   2   1     4.328014171116    65.30634905    27.34282354
 N      1   2   3     4.249354056805    38.78435578   359.25181905
 N      4   2   1     4.215586619769     1.82571546   337.45774467
 C      1   2   3     4.461240187587    67.73687972   284.36724743
 C      8   4   6     4.457047820084   119.21922863   358.03937170
 C      5   3   2     2.747411505102   139.41232350   329.95313213
 C      6   4   2     2.712654857527   146.54824505   334.59984335
 C      9   1   2     2.834607767387    97.55666165   227.74748494
 C     10   8   4     2.860014192145   142.83198924   196.51114826
 C      1   2   3     2.305053273074    48.23743411   313.77831166
 C      2   1   3     2.251663072067    68.85745490    82.06765961
 C      3   2   1     2.334231053329    87.60400698    29.58090634
 C      4   2   1     2.235761490351    35.19525010    27.52042270
 H     11   5   3     2.028426129495   106.92359680   168.20558870
 H     12   6   4     2.195621319974   107.74053713   169.53410105
 H     13   9   1     1.968885926208   114.08340938    74.39218257
 H     13   9   1     1.994365726001   109.96664460   194.60779451
 H     13   9   1     2.022696763089   116.97900477   315.75828554
 H     14  10   8     2.004925833007   112.81874507   304.90812571
 H     14  10   8     2.063392444972   105.61422157    61.00093737
 H     14  10   8     2.062139876270   110.80394577   187.72852533
 H      5   3   2     1.929300570224    85.64560273    96.41873502
 H      6   4   2     1.864301264669    90.68458155   182.20030979
 H      7   1   2     1.899819712821    84.96328226    83.36443245
 H      8   4  18     1.860284990025    87.61142025   185.14924423

---------------------
BASIS SET INFORMATION
---------------------
There are 4 groups of distinct atoms

 Group   1 Type O   : 12s7p3d1f contracted to 6s4p3d1f pattern {621111/4111/111/1}
 Group   2 Type N   : 12s6p3d1f contracted to 6s3p3d1f pattern {621111/411/111/1}
 Group   3 Type C   : 12s6p3d1f contracted to 6s3p3d1f pattern {621111/411/111/1}
 Group   4 Type H   : 5s3p1d contracted to 3s3p1d pattern {311/111/1}

Atom   0O    basis set group =>   1
Atom   1O    basis set group =>   1
Atom   2O    basis set group =>   1
Atom   3O    basis set group =>   1
Atom   4N    basis set group =>   2
Atom   5N    basis set group =>   2
Atom   6N    basis set group =>   2
Atom   7N    basis set group =>   2
Atom   8C    basis set group =>   3
Atom   9C    basis set group =>   3
Atom  10C    basis set group =>   3
Atom  11C    basis set group =>   3
Atom  12C    basis set group =>   3
Atom  13C    basis set group =>   3
Atom  14C    basis set group =>   3
Atom  15C    basis set group =>   3
Atom  16C    basis set group =>   3
Atom  17C    basis set group =>   3
Atom  18H    basis set group =>   4
Atom  19H    basis set group =>   4
Atom  20H    basis set group =>   4
Atom  21H    basis set group =>   4
Atom  22H    basis set group =>   4
Atom  23H    basis set group =>   4
Atom  24H    basis set group =>   4
Atom  25H    basis set group =>   4
Atom  26H    basis set group =>   4
Atom  27H    basis set group =>   4
Atom  28H    basis set group =>   4
Atom  29H    basis set group =>   4
---------------------------------
AUXILIARY/J BASIS SET INFORMATION
---------------------------------
There are 4 groups of distinct atoms

 Group   1 Type O   : 12s5p4d2f1g contracted to 6s4p3d1f1g pattern {711111/2111/211/2/1}
 Group   2 Type N   : 12s5p4d2f1g contracted to 6s4p3d1f1g pattern {711111/2111/211/2/1}
 Group   3 Type C   : 12s5p4d2f1g contracted to 6s4p3d1f1g pattern {711111/2111/211/2/1}
 Group   4 Type H   : 5s2p1d contracted to 3s1p1d pattern {311/2/1}

Atom   0O    basis set group =>   1
Atom   1O    basis set group =>   1
Atom   2O    basis set group =>   1
Atom   3O    basis set group =>   1
Atom   4N    basis set group =>   2
Atom   5N    basis set group =>   2
Atom   6N    basis set group =>   2
Atom   7N    basis set group =>   2
Atom   8C    basis set group =>   3
Atom   9C    basis set group =>   3
Atom  10C    basis set group =>   3
Atom  11C    basis set group =>   3
Atom  12C    basis set group =>   3
Atom  13C    basis set group =>   3
Atom  14C    basis set group =>   3
Atom  15C    basis set group =>   3
Atom  16C    basis set group =>   3
Atom  17C    basis set group =>   3
Atom  18H    basis set group =>   4
Atom  19H    basis set group =>   4
Atom  20H    basis set group =>   4
Atom  21H    basis set group =>   4
Atom  22H    basis set group =>   4
Atom  23H    basis set group =>   4
Atom  24H    basis set group =>   4
Atom  25H    basis set group =>   4
Atom  26H    basis set group =>   4
Atom  27H    basis set group =>   4
Atom  28H    basis set group =>   4
Atom  29H    basis set group =>   4
[1741089923.973446] [ohm:663856:0]        ib_iface.c:1059 UCX  ERROR ibv_create_cq(cqe=256) failed: Connection timed out
[1741089923.980457] [ohm:663853:0]        ib_iface.c:1059 UCX  ERROR ibv_create_cq(cqe=256) failed: Connection timed out
[1741089923.991508] [ohm:663861:0]        ib_iface.c:1059 UCX  ERROR ibv_create_cq(cqe=256) failed: Connection timed out
[1741089924.023769] [ohm:663860:0]        ib_iface.c:1059 UCX  ERROR ibv_create_cq(cqe=256) failed: Connection timed out
[1741089924.032053] [ohm:663855:0]        ib_iface.c:1059 UCX  ERROR ibv_create_cq(cqe=256) failed: Connection timed out
[1741089924.046116] [ohm:663854:0]        ib_iface.c:1059 UCX  ERROR ibv_create_cq(cqe=256) failed: Connection timed out
[1741089924.083079] [ohm:663870:0]        ib_iface.c:1059 UCX  ERROR ibv_create_cq(cqe=256) failed: Connection timed out
[1741089924.087681] [ohm:663867:0]        ib_iface.c:1059 UCX  ERROR ibv_create_cq(cqe=256) failed: Connection timed out
[1741089924.087775] [ohm:663858:0]        ib_iface.c:1059 UCX  ERROR ibv_create_cq(cqe=256) failed: Connection timed out
[1741089924.095289] [ohm:663866:0]        ib_iface.c:1059 UCX  ERROR ibv_create_cq(cqe=256) failed: Connection timed out
[1741089924.095738] [ohm:663859:0]        ib_iface.c:1059 UCX  ERROR ibv_create_cq(cqe=256) failed: Connection timed out
[1741089924.097744] [ohm:663862:0]        ib_iface.c:1059 UCX  ERROR ibv_create_cq(cqe=256) failed: Connection timed out
[1741089924.104897] [ohm:663872:0]        ib_iface.c:1059 UCX  ERROR ibv_create_cq(cqe=256) failed: Connection timed out
[1741089924.108395] [ohm:663864:0]        ib_iface.c:1059 UCX  ERROR ibv_create_cq(cqe=256) failed: Connection timed out
[1741089924.116568] [ohm:663955:0]        ib_iface.c:1059 UCX  ERROR ibv_create_cq(cqe=256) failed: Connection timed out
[1741089924.118071] [ohm:663958:0]        ib_iface.c:1059 UCX  ERROR ibv_create_cq(cqe=256) failed: Connection timed out
[1741089924.119234] [ohm:663865:0]        ib_iface.c:1059 UCX  ERROR ibv_create_cq(cqe=256) failed: Connection timed out
[1741089924.154126] [ohm:663913:0]        ib_iface.c:1059 UCX  ERROR ibv_create_cq(cqe=256) failed: Connection timed out
[1741089924.154577] [ohm:663857:0]        ib_iface.c:1059 UCX  ERROR ibv_create_cq(cqe=256) failed: Connection timed out
[1741089924.189202] [ohm:663911:0]        ib_iface.c:1059 UCX  ERROR ibv_create_cq(cqe=256) failed: Connection timed out
[1741089924.190830] [ohm:663940:0]        ib_iface.c:1059 UCX  ERROR ibv_create_cq(cqe=256) failed: Connection timed out
[1741089924.208826] [ohm:663983:0]        ib_iface.c:1059 UCX  ERROR ibv_create_cq(cqe=256) failed: Connection timed out
[1741089924.217134] [ohm:663919:0]        ib_iface.c:1059 UCX  ERROR ibv_create_cq(cqe=256) failed: Connection timed out
[1741089924.228056] [ohm:663937:0]        ib_iface.c:1059 UCX  ERROR ibv_create_cq(cqe=256) failed: Connection timed out
[1741089924.234358] [ohm:663965:0]        ib_iface.c:1059 UCX  ERROR ibv_create_cq(cqe=256) failed: Connection timed out
[1741089924.237085] [ohm:663931:0]        ib_iface.c:1059 UCX  ERROR ibv_create_cq(cqe=256) failed: Connection timed out
[1741089924.240997] [ohm:663893:0]        ib_iface.c:1059 UCX  ERROR ibv_create_cq(cqe=256) failed: Connection timed out
[1741089924.288536] [ohm:663969:0]        ib_iface.c:1059 UCX  ERROR ibv_create_cq(cqe=256) failed: Connection timed out
[1741089924.291114] [ohm:663869:0]        ib_iface.c:1059 UCX  ERROR ibv_create_cq(cqe=256) failed: Connection timed out
[1741089924.291192] [ohm:663871:0]        ib_iface.c:1059 UCX  ERROR ibv_create_cq(cqe=256) failed: Connection timed out
[1741089924.296399] [ohm:663884:0]        ib_iface.c:1059 UCX  ERROR ibv_create_cq(cqe=256) failed: Connection timed out
[1741089924.306952] [ohm:663882:0]        ib_iface.c:1059 UCX  ERROR ibv_create_cq(cqe=256) failed: Connection timed out
[1741089924.314078] [ohm:663877:0]        ib_iface.c:1059 UCX  ERROR ibv_create_cq(cqe=256) failed: Connection timed out
[1741089924.319980] [ohm:663946:0]        ib_iface.c:1059 UCX  ERROR ibv_create_cq(cqe=256) failed: Connection timed out
[1741089924.323455] [ohm:663921:0]        ib_iface.c:1059 UCX  ERROR ibv_create_cq(cqe=256) failed: Connection timed out
[1741089924.326279] [ohm:663873:0]        ib_iface.c:1059 UCX  ERROR ibv_create_cq(cqe=256) failed: Connection timed out
[1741089924.330444] [ohm:663874:0]        ib_iface.c:1059 UCX  ERROR ibv_create_cq(cqe=256) failed: Connection timed out
[1741089924.336306] [ohm:663933:0]        ib_iface.c:1059 UCX  ERROR ibv_create_cq(cqe=256) failed: Connection timed out
[1741089924.338539] [ohm:663902:0]        ib_iface.c:1059 UCX  ERROR ibv_create_cq(cqe=256) failed: Connection timed out
[1741089924.339957] [ohm:663928:0]        ib_iface.c:1059 UCX  ERROR ibv_create_cq(cqe=256) failed: Connection timed out
[1741089924.341950] [ohm:663948:0]        ib_iface.c:1059 UCX  ERROR ibv_create_cq(cqe=256) failed: Connection timed out
[1741089924.348273] [ohm:663961:0]        ib_iface.c:1059 UCX  ERROR ibv_create_cq(cqe=256) failed: Connection timed out
[1741089924.351429] [ohm:663968:0]        ib_iface.c:1059 UCX  ERROR ibv_create_cq(cqe=256) failed: Connection timed out
[1741089924.356807] [ohm:663909:0]        ib_iface.c:1059 UCX  ERROR ibv_create_cq(cqe=256) failed: Connection timed out
[1741089924.358818] [ohm:663951:0]        ib_iface.c:1059 UCX  ERROR ibv_create_cq(cqe=256) failed: Connection timed out
[1741089924.360751] [ohm:663868:0]        ib_iface.c:1059 UCX  ERROR ibv_create_cq(cqe=256) failed: Connection timed out
[1741089924.363381] [ohm:663878:0]        ib_iface.c:1059 UCX  ERROR ibv_create_cq(cqe=256) failed: Connection timed out
[1741089924.363842] [ohm:663907:0]        ib_iface.c:1059 UCX  ERROR ibv_create_cq(cqe=256) failed: Connection timed out
[1741089924.364979] [ohm:663889:0]        ib_iface.c:1059 UCX  ERROR ibv_create_cq(cqe=256) failed: Connection timed out
[1741089924.367818] [ohm:663979:0]        ib_iface.c:1059 UCX  ERROR ibv_create_cq(cqe=256) failed: Connection timed out
[1741089924.368761] [ohm:663941:0]        ib_iface.c:1059 UCX  ERROR ibv_create_cq(cqe=256) failed: Connection timed out
[1741089924.370835] [ohm:663863:0]        ib_iface.c:1059 UCX  ERROR ibv_create_cq(cqe=256) failed: Connection timed out
[1741089924.372823] [ohm:663900:0]        ib_iface.c:1059 UCX  ERROR ibv_create_cq(cqe=256) failed: Connection timed out
[1741089924.375431] [ohm:663895:0]        ib_iface.c:1059 UCX  ERROR ibv_create_cq(cqe=256) failed: Connection timed out
[1741089924.375977] [ohm:664002:0]        ib_iface.c:1059 UCX  ERROR ibv_create_cq(cqe=256) failed: Connection timed out
[1741089924.376371] [ohm:663995:0]        ib_iface.c:1059 UCX  ERROR ibv_create_cq(cqe=256) failed: Connection timed out
[1741089924.379111] [ohm:663876:0]        ib_iface.c:1059 UCX  ERROR ibv_create_cq(cqe=256) failed: Connection timed out
[1741089924.379524] [ohm:663875:0]        ib_iface.c:1059 UCX  ERROR ibv_create_cq(cqe=256) failed: Connection timed out
[1741089924.379528] [ohm:663988:0]        ib_iface.c:1059 UCX  ERROR ibv_create_cq(cqe=256) failed: Connection timed out
[1741089924.380492] [ohm:663891:0]        ib_iface.c:1059 UCX  ERROR ibv_create_cq(cqe=256) failed: Connection timed out
[1741089924.379708] [ohm:663976:0]        ib_iface.c:1059 UCX  ERROR ibv_create_cq(cqe=256) failed: Connection timed out
[1741089924.382116] [ohm:664009:0]        ib_iface.c:1059 UCX  ERROR ibv_create_cq(cqe=256) failed: Connection timed out
[1741089924.382285] [ohm:663964:0]        ib_iface.c:1059 UCX  ERROR ibv_create_cq(cqe=256) failed: Connection timed out
[1741089924.383406] [ohm:663975:0]        ib_iface.c:1059 UCX  ERROR ibv_create_cq(cqe=256) failed: Connection timed out


           ************************************************************
           *        Program running with 64 parallel MPI-processes    *
           *              working on a common directory               *
           ************************************************************
------------------------------------------------------------------------------
                             ORCA STARTUP CALCULATIONS
                           -- RI-GTO INTEGRALS CHOSEN --
------------------------------------------------------------------------------
------------------------------------------------------------------------------
                   ___                                                        
                  /   \      - P O W E R E D   B Y -                         
                 /     \                                                     
                 |  |  |   _    _      __       _____    __    __             
                 |  |  |  | |  | |    /  \     |  _  \  |  |  /  |          
                  \  \/   | |  | |   /    \    | | | |  |  | /  /          
                 / \  \   | |__| |  /  /\  \   | |_| |  |  |/  /          
                |  |  |   |  __  | /  /__\  \  |    /   |      \           
                |  |  |   | |  | | |   __   |  |    \   |  |\   \          
                \     /   | |  | | |  |  |  |  | |\  \  |  | \   \       
                 \___/    |_|  |_| |__|  |__|  |_| \__\ |__|  \__/        
                                                                              
                      - O R C A' S   B I G   F R I E N D -                    
                                      &                                       
                       - I N T E G R A L  F E E D E R -                       
                                                                              
 v1 FN, 2020, v2 2021, v3 2022-2024                                           
------------------------------------------------------------------------------


----------------------
SHARK INTEGRAL PACKAGE
----------------------

Number of atoms                             ...     30
Number of basis functions                   ...    882
Number of shells                            ...    322
Maximum angular momentum                    ...      3
Integral batch strategy                     ... SHARK/LIBINT Hybrid
RI-J (if used) integral strategy            ... SPLIT-RIJ (Revised 2003 algorithm where possible)
Printlevel                                  ...      1
Contraction scheme used                     ... SEGMENTED contraction
Prescreening option                         ... SCHWARTZ
   Thresh                                   ... 2.500e-11
   Tcut                                     ... 2.500e-12
   Tpresel                                  ... 2.500e-12 
Coulomb Range Separation                    ... NOT USED
Exchange Range Separation                   ... Long Range
   Mu parameter                             ... 3.000e-01
   Scaling (regular/separated)              ... 1.500e-01 8.500e-01
Multipole approximations                    ... NOT USED
Finite Nucleus Model                        ... NOT USED
CABS basis                                  ... NOT available
Auxiliary Coulomb fitting basis             ... AVAILABLE
   # of basis functions in Aux-J            ...   1014
   # of shells in Aux-J                     ...    330
   Maximum angular momentum in Aux-J        ...      4
Auxiliary J/K fitting basis                 ... NOT available
Auxiliary Correlation fitting basis         ... NOT available
Auxiliary 'external' fitting basis          ... NOT available

Checking pre-screening integrals            ... done (  0.0 sec) Dimension = 322
Check shell pair data                       ... done (  0.0 sec)
Shell pair information
Shell pair cut-off parameter TPreSel        ...   2.5e-12
Total number of shell pairs                 ...     52003
Shell pairs after pre-screening             ...     44859
Total number of primitive shell pairs       ...    129718
Primitive shell pairs kept                  ...     83760
          la=0 lb=0:   8691 shell pairs
          la=1 lb=0:  11887 shell pairs
          la=1 lb=1:   4108 shell pairs
          la=2 lb=0:   8057 shell pairs
          la=2 lb=1:   5576 shell pairs
          la=2 lb=2:   1920 shell pairs
          la=3 lb=0:   2040 shell pairs
          la=3 lb=1:   1451 shell pairs
          la=3 lb=2:    994 shell pairs
          la=3 lb=3:    135 shell pairs

Calculating one electron integrals          ... done (  0.2 sec)
Calculating RI/J V-Matrix + Cholesky decomp.... done (  0.1 sec)
Calculating Nuclear repulsion               ... done (  0.0 sec) ENN=   1426.899367278604 Eh

Diagonalization of the overlap matrix:
Smallest eigenvalue                        ... 6.412e-07
Time for diagonalization                   ...    0.126 sec
Threshold for overlap eigenvalues          ... 1.000e-07
Number of eigenvalues below threshold      ... 0

IMPORTANT:
Smallest eigenvalue of S below the DiffSThresh (1.000e-06) while
Thresh>1e-12 and/or TCut>1e-13! In order to avoid SCF convergence issues,
Thresh will be set to at least 1e-12 and TCut to at least 1e-13.
This can be turned off by adding %SCF DiffSThresh -1 END to the input.

Time for construction of square roots      ...    0.130 sec
Total time needed                          ...    0.270 sec

-------------------
DFT GRID GENERATION
-------------------

General Integration Accuracy     IntAcc      ... 4.388
Radial Grid Type                 RadialGrid  ... OptM3 with GC (2021)
Angular Grid (max. ang.)         AngularGrid ... 4 (Lebedev-302)
Angular grid pruning method      GridPruning ... 4 (adaptive)
Weight generation scheme         WeightScheme... mBecke (2022)
Basis function cutoff            BFCut       ... 1.0000e-11
Integration weight cutoff        WCut        ... 1.0000e-14
Partially contracted basis set               ... off
Rotationally invariant grid construction     ... off
Angular grids for H and He will be reduced by one unit
Diffuse basis detected: some atoms will have their outermost
                        angular grid increased by 1.

Total number of grid points                  ...   151870
Total number of batches                      ...     2386
Average number of points per batch           ...       63
Average number of grid points per atom       ...     5062

--------------------
COSX GRID GENERATION
--------------------

GRIDX 1
-------
General Integration Accuracy     IntAcc      ... 3.816
Radial Grid Type                 RadialGrid  ... OptM3 with GC (2021)
Angular Grid (max. ang.)         AngularGrid ... 1 (Lebedev-50)
Angular grid pruning method      GridPruning ... 4 (adaptive)
Weight generation scheme         WeightScheme... mBecke (2022)
Basis function cutoff            BFCut       ... 1.0000e-11
Integration weight cutoff        WCut        ... 1.0000e-14
Partially contracted basis set               ... on
Rotationally invariant grid construction     ... off
Angular grids for H and He will be reduced by one unit
Diffuse basis detected: some atoms will have their outermost
                        angular grid increased by 1.

Total number of grid points                  ...    19022
Total number of batches                      ...      166
Average number of points per batch           ...      114
Average number of grid points per atom       ...      634
UseSFitting                                  ... on

GRIDX 2
-------
General Integration Accuracy     IntAcc      ... 4.020
Radial Grid Type                 RadialGrid  ... OptM3 with GC (2021)
Angular Grid (max. ang.)         AngularGrid ... 2 (Lebedev-110)
Angular grid pruning method      GridPruning ... 4 (adaptive)
Weight generation scheme         WeightScheme... mBecke (2022)
Basis function cutoff            BFCut       ... 1.0000e-11
Integration weight cutoff        WCut        ... 1.0000e-14
Partially contracted basis set               ... on
Rotationally invariant grid construction     ... off
Angular grids for H and He will be reduced by one unit
Diffuse basis detected: some atoms will have their outermost
                        angular grid increased by 1.

Total number of grid points                  ...    45833
Total number of batches                      ...      372
Average number of points per batch           ...      123
Average number of grid points per atom       ...     1528
UseSFitting                                  ... on

GRIDX 3
-------
General Integration Accuracy     IntAcc      ... 4.338
Radial Grid Type                 RadialGrid  ... OptM3 with GC (2021)
Angular Grid (max. ang.)         AngularGrid ... 3 (Lebedev-194)
Angular grid pruning method      GridPruning ... 4 (adaptive)
Weight generation scheme         WeightScheme... mBecke (2022)
Basis function cutoff            BFCut       ... 1.0000e-11
Integration weight cutoff        WCut        ... 1.0000e-14
Partially contracted basis set               ... on
Rotationally invariant grid construction     ... off
Angular grids for H and He will be reduced by one unit
Diffuse basis detected: some atoms will have their outermost
                        angular grid increased by 1.

Total number of grid points                  ...   100852
Total number of batches                      ...      802
Average number of points per batch           ...      125
Average number of grid points per atom       ...     3362
UseSFitting                                  ... on
Initializing property integral containers    ... done (  0.0 sec)

SHARK setup successfully completed in   4.2 seconds

Maximum memory used throughout the entire STARTUP-calculation: 79.8 MB
[1741089930.564762] [ohm:664205:0]        ib_iface.c:1059 UCX  ERROR ibv_create_cq(cqe=256) failed: Connection timed out
[1741089930.567061] [ohm:664208:0]        ib_iface.c:1059 UCX  ERROR ibv_create_cq(cqe=256) failed: Connection timed out
[1741089930.587352] [ohm:664215:0]        ib_iface.c:1059 UCX  ERROR ibv_create_cq(cqe=256) failed: Connection timed out
[1741089930.588097] [ohm:664206:0]        ib_iface.c:1059 UCX  ERROR ibv_create_cq(cqe=256) failed: Connection timed out
[1741089930.658347] [ohm:664212:0]        ib_iface.c:1059 UCX  ERROR ibv_create_cq(cqe=256) failed: Connection timed out
[1741089930.670043] [ohm:664218:0]        ib_iface.c:1059 UCX  ERROR ibv_create_cq(cqe=256) failed: Connection timed out
[1741089930.689267] [ohm:664207:0]        ib_iface.c:1059 UCX  ERROR ibv_create_cq(cqe=256) failed: Connection timed out
[1741089930.691328] [ohm:664209:0]        ib_iface.c:1059 UCX  ERROR ibv_create_cq(cqe=256) failed: Connection timed out
[1741089930.696269] [ohm:664220:0]        ib_iface.c:1059 UCX  ERROR ibv_create_cq(cqe=256) failed: Connection timed out
[1741089930.697829] [ohm:664231:0]        ib_iface.c:1059 UCX  ERROR ibv_create_cq(cqe=256) failed: Connection timed out
[1741089930.704895] [ohm:664219:0]        ib_iface.c:1059 UCX  ERROR ibv_create_cq(cqe=256) failed: Connection timed out
[1741089930.730075] [ohm:664214:0]        ib_iface.c:1059 UCX  ERROR ibv_create_cq(cqe=256) failed: Connection timed out
[1741089930.732414] [ohm:664226:0]        ib_iface.c:1059 UCX  ERROR ibv_create_cq(cqe=256) failed: Connection timed out
[1741089930.733945] [ohm:664223:0]        ib_iface.c:1059 UCX  ERROR ibv_create_cq(cqe=256) failed: Connection timed out
[1741089930.743485] [ohm:664211:0]        ib_iface.c:1059 UCX  ERROR ibv_create_cq(cqe=256) failed: Connection timed out
[1741089930.752608] [ohm:664213:0]        ib_iface.c:1059 UCX  ERROR ibv_create_cq(cqe=256) failed: Connection timed out
[1741089930.768289] [ohm:664216:0]        ib_iface.c:1059 UCX  ERROR ibv_create_cq(cqe=256) failed: Connection timed out
[1741089930.769301] [ohm:664238:0]        ib_iface.c:1059 UCX  ERROR ibv_create_cq(cqe=256) failed: Connection timed out
[1741089930.774589] [ohm:664222:0]        ib_iface.c:1059 UCX  ERROR ibv_create_cq(cqe=256) failed: Connection timed out
[1741089930.780549] [ohm:664259:0]        ib_iface.c:1059 UCX  ERROR ibv_create_cq(cqe=256) failed: Connection timed out
[1741089930.782360] [ohm:664240:0]        ib_iface.c:1059 UCX  ERROR ibv_create_cq(cqe=256) failed: Connection timed out
[1741089930.783488] [ohm:664221:0]        ib_iface.c:1059 UCX  ERROR ibv_create_cq(cqe=256) failed: Connection timed out
[1741089930.788031] [ohm:664224:0]        ib_iface.c:1059 UCX  ERROR ibv_create_cq(cqe=256) failed: Connection timed out
[1741089930.795578] [ohm:664287:0]        ib_iface.c:1059 UCX  ERROR ibv_create_cq(cqe=256) failed: Connection timed out
[1741089930.853424] [ohm:664291:0]        ib_iface.c:1059 UCX  ERROR ibv_create_cq(cqe=256) failed: Connection timed out
[1741089930.855131] [ohm:664288:0]        ib_iface.c:1059 UCX  ERROR ibv_create_cq(cqe=256) failed: Connection timed out
[1741089930.856898] [ohm:664284:0]        ib_iface.c:1059 UCX  ERROR ibv_create_cq(cqe=256) failed: Connection timed out
[1741089930.863802] [ohm:664227:0]        ib_iface.c:1059 UCX  ERROR ibv_create_cq(cqe=256) failed: Connection timed out
[1741089930.876990] [ohm:664315:0]        ib_iface.c:1059 UCX  ERROR ibv_create_cq(cqe=256) failed: Connection timed out
[1741089930.906259] [ohm:664357:0]        ib_iface.c:1059 UCX  ERROR ibv_create_cq(cqe=256) failed: Connection timed out
[1741089930.913225] [ohm:664270:0]        ib_iface.c:1059 UCX  ERROR ibv_create_cq(cqe=256) failed: Connection timed out
[1741089930.914131] [ohm:664306:0]        ib_iface.c:1059 UCX  ERROR ibv_create_cq(cqe=256) failed: Connection timed out
[1741089930.920320] [ohm:664230:0]        ib_iface.c:1059 UCX  ERROR ibv_create_cq(cqe=256) failed: Connection timed out
[1741089930.921194] [ohm:664330:0]        ib_iface.c:1059 UCX  ERROR ibv_create_cq(cqe=256) failed: Connection timed out
[1741089930.923411] [ohm:664290:0]        ib_iface.c:1059 UCX  ERROR ibv_create_cq(cqe=256) failed: Connection timed out
[1741089930.930610] [ohm:664262:0]        ib_iface.c:1059 UCX  ERROR ibv_create_cq(cqe=256) failed: Connection timed out
[1741089930.932532] [ohm:664279:0]        ib_iface.c:1059 UCX  ERROR ibv_create_cq(cqe=256) failed: Connection timed out
[1741089930.938529] [ohm:664348:0]        ib_iface.c:1059 UCX  ERROR ibv_create_cq(cqe=256) failed: Connection timed out
[1741089930.942286] [ohm:664309:0]        ib_iface.c:1059 UCX  ERROR ibv_create_cq(cqe=256) failed: Connection timed out
[1741089930.945551] [ohm:664299:0]        ib_iface.c:1059 UCX  ERROR ibv_create_cq(cqe=256) failed: Connection timed out
[1741089930.951665] [ohm:664228:0]        ib_iface.c:1059 UCX  ERROR ibv_create_cq(cqe=256) failed: Connection timed out
[1741089930.955221] [ohm:664319:0]        ib_iface.c:1059 UCX  ERROR ibv_create_cq(cqe=256) failed: Connection timed out
[1741089930.960878] [ohm:664334:0]        ib_iface.c:1059 UCX  ERROR ibv_create_cq(cqe=256) failed: Connection timed out
[1741089930.962838] [ohm:664246:0]        ib_iface.c:1059 UCX  ERROR ibv_create_cq(cqe=256) failed: Connection timed out
[1741089930.963529] [ohm:664275:0]        ib_iface.c:1059 UCX  ERROR ibv_create_cq(cqe=256) failed: Connection timed out
[1741089930.970258] [ohm:664303:0]        ib_iface.c:1059 UCX  ERROR ibv_create_cq(cqe=256) failed: Connection timed out
[1741089930.976183] [ohm:664354:0]        ib_iface.c:1059 UCX  ERROR ibv_create_cq(cqe=256) failed: Connection timed out
[1741089930.979669] [ohm:664247:0]        ib_iface.c:1059 UCX  ERROR ibv_create_cq(cqe=256) failed: Connection timed out
[1741089930.983718] [ohm:664343:0]        ib_iface.c:1059 UCX  ERROR ibv_create_cq(cqe=256) failed: Connection timed out
[1741089930.983687] [ohm:664252:0]        ib_iface.c:1059 UCX  ERROR ibv_create_cq(cqe=256) failed: Connection timed out
[1741089930.985725] [ohm:664312:0]        ib_iface.c:1059 UCX  ERROR ibv_create_cq(cqe=256) failed: Connection timed out
[1741089930.985772] [ohm:664265:0]        ib_iface.c:1059 UCX  ERROR ibv_create_cq(cqe=256) failed: Connection timed out
[1741089930.986232] [ohm:664253:0]        ib_iface.c:1059 UCX  ERROR ibv_create_cq(cqe=256) failed: Connection timed out
[1741089930.988355] [ohm:664337:0]        ib_iface.c:1059 UCX  ERROR ibv_create_cq(cqe=256) failed: Connection timed out
[1741089930.990360] [ohm:664233:0]        ib_iface.c:1059 UCX  ERROR ibv_create_cq(cqe=256) failed: Connection timed out
[1741089930.990741] [ohm:664325:0]        ib_iface.c:1059 UCX  ERROR ibv_create_cq(cqe=256) failed: Connection timed out
[1741089930.992071] [ohm:664210:0]        ib_iface.c:1059 UCX  ERROR ibv_create_cq(cqe=256) failed: Connection timed out
[1741089930.994411] [ohm:664250:0]        ib_iface.c:1059 UCX  ERROR ibv_create_cq(cqe=256) failed: Connection timed out
[1741089930.994447] [ohm:664257:0]        ib_iface.c:1059 UCX  ERROR ibv_create_cq(cqe=256) failed: Connection timed out
[1741089930.996689] [ohm:664318:0]        ib_iface.c:1059 UCX  ERROR ibv_create_cq(cqe=256) failed: Connection timed out
[1741089930.997159] [ohm:664225:0]        ib_iface.c:1059 UCX  ERROR ibv_create_cq(cqe=256) failed: Connection timed out
[1741089930.997148] [ohm:664296:0]        ib_iface.c:1059 UCX  ERROR ibv_create_cq(cqe=256) failed: Connection timed out
[1741089930.997713] [ohm:664255:0]        ib_iface.c:1059 UCX  ERROR ibv_create_cq(cqe=256) failed: Connection timed out
[1741089930.997876] [ohm:664217:0]        ib_iface.c:1059 UCX  ERROR ibv_create_cq(cqe=256) failed: Connection timed out


           ************************************************************
           *        Program running with 64 parallel MPI-processes    *
           *              working on a common directory               *
           ************************************************************
-------------------------------------------------------------------------------
                                 ORCA GUESS
                   Start orbitals & Density for SCF / CASSCF
-------------------------------------------------------------------------------

------------
SCF SETTINGS
------------
Hamiltonian:
 Density Functional     Method          .... DFT(GTOs)
  Functional kind                       .... Exchange-Correlation
  Functional name                       .... wB97M-V exchange-correlation functional
  Functional family                     .... Hybrid MGGA
  Functional refs                              
    [ 0] N. Mardirossian and M. Head-Gordon.,  J. Chem. Phys. 144, 214110 (2016), doi: 10.1063/1.4952647
  Fraction of HF Exchange (short range) .... 0.1500
  Fraction of HF Exchange (long range)  .... 1.0000
  Range separation parameter mu         .... 0.3000
  Functional external parameters        .... 17
    Parameter  0 _cx00      =  8.500000e-01 : u^00 coefficient for exchange
    Parameter  1 _cx01      =  1.007000e+00 : u^01 coefficient for exchange
    Parameter  2 _cx10      =  2.590000e-01 : u^10 coefficient for exchange
    Parameter  3 _css00     =  4.430000e-01 : u^00 coefficient for same-spin correlation
    Parameter  4 _css04     = -1.437000e+00 : u^04 coefficient for same-spin correlation
    Parameter  5 _css10     = -4.535000e+00 : u^10 coefficient for same-spin correlation
    Parameter  6 _css20     = -3.390000e+00 : u^20 coefficient for same-spin correlation
    Parameter  7 _css43     =  4.278000e+00 : u^43 coefficient for same-spin correlation
    Parameter  8 _cos00     =  1.000000e+00 : u^00 coefficient for opposite-spin correlation
    Parameter  9 _cos10     =  1.358000e+00 : u^10 coefficient for opposite-spin correlation
    Parameter 10 _cos20     =  2.924000e+00 : u^20 coefficient for opposite-spin correlation
    Parameter 11 _cos21     = -8.812000e+00 : u^21 coefficient for opposite-spin correlation
    Parameter 12 _cos60     = -1.390000e+00 : u^60 coefficient for opposite-spin correlation
    Parameter 13 _cos61     =  9.142000e+00 : u^61 coefficient for opposite-spin correlation
    Parameter 14 _alpha     =  1.000000e+00 : fraction of HF exchange
    Parameter 15 _beta      = -8.500000e-01 : fraction of short-range exchange
    Parameter 16 _omega     =  3.000000e-01 : range-separation constant
 Long-range corrected/Screened/Range-Separated Hybrid DFT is turned on
   Amount of maximum screened exact exchange              ....  0.850000
   Range separation parameter mu (erf(mu*r12)/r12)        ....  0.300000
 RI-approximation to the Coulomb term is turned on
   Number of AuxJ basis functions       .... 1014
   RIJ-COSX (HFX calculated with COS-X)).... on


General Settings:
 Integral files         IntName         .... orca
 Hartree-Fock type      HFTyp           .... UHF
 Total Charge           Charge          ....    0
 Multiplicity           Mult            ....    3
 Number of Electrons    NEL             ....  132
 Basis Dimension        Dim             ....  882
 Nuclear Repulsion      ENuc            ....   1426.8993672786 Eh

Convergence Acceleration:
 AO-DIIS                CNVDIIS         .... on
   Start iteration      DIISMaxIt       ....    12
   Startup error        DIISStart       ....  0.200000
   # of expansion vecs  DIISMaxEq       ....     5
   Bias factor          DIISBfac        ....   1.050
   Max. coefficient     DIISMaxC        ....  10.000
 MO-DIIS                CNVKDIIS        .... off
 Trust-Rad. Augm. Hess. CNVTRAH         .... auto
   Auto Start mean grad. ratio tolernc. ....  1.125000
   Auto Start start iteration           ....    50
   Auto Start num. interpolation iter.  ....    10
   Max. Number of Micro iterations      ....    24
   Max. Number of Macro iterations      .... Maxiter - #DIIS iter
   Number of Davidson start vectors     ....     2
   Converg. threshold    (grad. norm)   ....   1.000e-05
   Grad. Scal. Fac. for Micro threshold ....   0.100
   Minimum threshold for Micro iter.    ....   1.000e-02
   NR start threshold (gradient norm)   ....   1.000e-04
   Initial trust radius                 ....   0.400
   Minimum AH scaling param. (alpha)    ....   1.000
   Maximum AH scaling param. (alpha)    .... 1000.000
   Quad. conv. algorithm                .... NR
   White noise on init. David. guess    .... on
   Maximum white noise                  ....   0.010
   Pseudo random numbers                .... off
   Inactive MOs                         .... canonical
   Orbital update algorithm             .... Taylor
   Preconditioner                       .... Diag
   Full preconditioner red. dimension   ....   250
 SOSCF                  CNVSOSCF        .... on
   Start iteration      SOSCFMaxIt      ....   150
   Startup grad/error   SOSCFStart      ....  0.003300
   Hessian update       SOSCFHessUp     .... L-BFGS
 Level Shifting         CNVShift        .... on
   Level shift para.    LevelShift      ....    0.2500
   Turn off err/grad.   ShiftErr        ....    0.0010
 Zerner damping         CNVZerner       .... off
 Static damping         CNVDamp         .... on
   Fraction old density DampFac         ....    0.7000
   Max. Damping (<1)    DampMax         ....    0.9800
   Min. Damping (>=0)   DampMin         ....    0.0000
   Turn off err/grad.   DampErr         ....    0.1000

SCF Procedure:
 Maximum # iterations   MaxIter         ....   125
 SCF integral mode      SCFMode         .... Direct
   Integral package                     .... SHARK and LIBINT hybrid scheme
 Reset frequency        DirectResetFreq ....    20
 Integral Threshold     Thresh          ....  1.000e-12 Eh
 Primitive CutOff       TCut            ....  1.000e-13 Eh

Convergence Tolerance:
 Convergence Check Mode ConvCheckMode   .... Total+1el-Energy
 Convergence forced     ConvForced      .... 1
 Energy Change          TolE            ....  1.000e-08 Eh
 1-El. energy change                    ....  1.000e-05 Eh
 Orbital Gradient       TolG            ....  1.000e-05
 Orbital Rotation angle TolX            ....  1.000e-05
 DIIS Error             TolErr          ....  5.000e-07

------------------------------
INITIAL GUESS: MODEL POTENTIAL
------------------------------
Loading Hartree-Fock densities                     ... done
Calculating cut-offs                               ... done
Initializing the effective Hamiltonian             ... done
Setting up the integral package (SHARK)            ... done
Starting the Coulomb interaction                   ... done (   0.1 sec)
Making the grid                                    ... done (   0.3 sec)
Mapping shells                                     ... done
Starting the XC term evaluation                    ... done (   0.1 sec)
  promolecular density results
     # of electrons  =    131.992661618
     EX              =   -113.540972369
     EC              =     -4.489439110
     EX+EC           =   -118.030411479
Transforming the Hamiltonian                       ... done (   0.1 sec)
Diagonalizing the Hamiltonian                      ... done (   0.1 sec)
Back transforming the eigenvectors                 ... done (   0.1 sec)
Now organizing SCF variables                       ... done
                      ------------------
                      INITIAL GUESS DONE (   1.1 sec)
                      ------------------
             **** ENERGY FILE WAS UPDATED (orca.en.tmp) ****
Finished Guess after   3.7 sec
Maximum memory used throughout the entire GUESS-calculation: 72.2 MB
[1741089934.908951] [ohm:664572:0]        ib_iface.c:1059 UCX  ERROR ibv_create_cq(cqe=256) failed: Connection timed out
[1741089934.909051] [ohm:664561:0]        ib_iface.c:1059 UCX  ERROR ibv_create_cq(cqe=256) failed: Connection timed out
[1741089934.913302] [ohm:664556:0]        ib_iface.c:1059 UCX  ERROR ibv_create_cq(cqe=256) failed: Connection timed out
[1741089934.920765] [ohm:664563:0]        ib_iface.c:1059 UCX  ERROR ibv_create_cq(cqe=256) failed: Connection timed out
[1741089934.922500] [ohm:664562:0]        ib_iface.c:1059 UCX  ERROR ibv_create_cq(cqe=256) failed: Connection timed out
[1741089934.933136] [ohm:664574:0]        ib_iface.c:1059 UCX  ERROR ibv_create_cq(cqe=256) failed: Connection timed out
[1741089934.937196] [ohm:664560:0]        ib_iface.c:1059 UCX  ERROR ibv_create_cq(cqe=256) failed: Connection timed out
[1741089934.940283] [ohm:664559:0]        ib_iface.c:1059 UCX  ERROR ibv_create_cq(cqe=256) failed: Connection timed out
[1741089934.957281] [ohm:664565:0]        ib_iface.c:1059 UCX  ERROR ibv_create_cq(cqe=256) failed: Connection timed out
[1741089934.958195] [ohm:664557:0]        ib_iface.c:1059 UCX  ERROR ibv_create_cq(cqe=256) failed: Connection timed out
[1741089934.959524] [ohm:664558:0]        ib_iface.c:1059 UCX  ERROR ibv_create_cq(cqe=256) failed: Connection timed out
[1741089934.998810] [ohm:664617:0]        ib_iface.c:1059 UCX  ERROR ibv_create_cq(cqe=256) failed: Connection timed out
[1741089935.017901] [ohm:664586:0]        ib_iface.c:1059 UCX  ERROR ibv_create_cq(cqe=256) failed: Connection timed out
[1741089935.019362] [ohm:664567:0]        ib_iface.c:1059 UCX  ERROR ibv_create_cq(cqe=256) failed: Connection timed out
[1741089935.019645] [ohm:664570:0]        ib_iface.c:1059 UCX  ERROR ibv_create_cq(cqe=256) failed: Connection timed out
[1741089935.023253] [ohm:664573:0]        ib_iface.c:1059 UCX  ERROR ibv_create_cq(cqe=256) failed: Connection timed out
[1741089935.026619] [ohm:664606:0]        ib_iface.c:1059 UCX  ERROR ibv_create_cq(cqe=256) failed: Connection timed out
[1741089935.026739] [ohm:664568:0]        ib_iface.c:1059 UCX  ERROR ibv_create_cq(cqe=256) failed: Connection timed out
[1741089935.034734] [ohm:664566:0]        ib_iface.c:1059 UCX  ERROR ibv_create_cq(cqe=256) failed: Connection timed out
[1741089935.072001] [ohm:664622:0]        ib_iface.c:1059 UCX  ERROR ibv_create_cq(cqe=256) failed: Connection timed out
[1741089935.072559] [ohm:664638:0]        ib_iface.c:1059 UCX  ERROR ibv_create_cq(cqe=256) failed: Connection timed out
[1741089935.099767] [ohm:664590:0]        ib_iface.c:1059 UCX  ERROR ibv_create_cq(cqe=256) failed: Connection timed out
[1741089935.101668] [ohm:664647:0]        ib_iface.c:1059 UCX  ERROR ibv_create_cq(cqe=256) failed: Connection timed out
[1741089935.101912] [ohm:664576:0]        ib_iface.c:1059 UCX  ERROR ibv_create_cq(cqe=256) failed: Connection timed out
[1741089935.112698] [ohm:664663:0]        ib_iface.c:1059 UCX  ERROR ibv_create_cq(cqe=256) failed: Connection timed out
[1741089935.131537] [ohm:664609:0]        ib_iface.c:1059 UCX  ERROR ibv_create_cq(cqe=256) failed: Connection timed out
[1741089935.152174] [ohm:664694:0]        ib_iface.c:1059 UCX  ERROR ibv_create_cq(cqe=256) failed: Connection timed out
[1741089935.153262] [ohm:664612:0]        ib_iface.c:1059 UCX  ERROR ibv_create_cq(cqe=256) failed: Connection timed out
[1741089935.157482] [ohm:664601:0]        ib_iface.c:1059 UCX  ERROR ibv_create_cq(cqe=256) failed: Connection timed out
[1741089935.161126] [ohm:664685:0]        ib_iface.c:1059 UCX  ERROR ibv_create_cq(cqe=256) failed: Connection timed out
[1741089935.164255] [ohm:664674:0]        ib_iface.c:1059 UCX  ERROR ibv_create_cq(cqe=256) failed: Connection timed out
[1741089935.165547] [ohm:664592:0]        ib_iface.c:1059 UCX  ERROR ibv_create_cq(cqe=256) failed: Connection timed out
[1741089935.171850] [ohm:664672:0]        ib_iface.c:1059 UCX  ERROR ibv_create_cq(cqe=256) failed: Connection timed out
[1741089935.181167] [ohm:664584:0]        ib_iface.c:1059 UCX  ERROR ibv_create_cq(cqe=256) failed: Connection timed out
[1741089935.181965] [ohm:664603:0]        ib_iface.c:1059 UCX  ERROR ibv_create_cq(cqe=256) failed: Connection timed out
[1741089935.182511] [ohm:664680:0]        ib_iface.c:1059 UCX  ERROR ibv_create_cq(cqe=256) failed: Connection timed out
[1741089935.189852] [ohm:664614:0]        ib_iface.c:1059 UCX  ERROR ibv_create_cq(cqe=256) failed: Connection timed out
[1741089935.197574] [ohm:664571:0]        ib_iface.c:1059 UCX  ERROR ibv_create_cq(cqe=256) failed: Connection timed out
[1741089935.203736] [ohm:664679:0]        ib_iface.c:1059 UCX  ERROR ibv_create_cq(cqe=256) failed: Connection timed out
[1741089935.205478] [ohm:664631:0]        ib_iface.c:1059 UCX  ERROR ibv_create_cq(cqe=256) failed: Connection timed out
[1741089935.208604] [ohm:664582:0]        ib_iface.c:1059 UCX  ERROR ibv_create_cq(cqe=256) failed: Connection timed out
[1741089935.211674] [ohm:664564:0]        ib_iface.c:1059 UCX  ERROR ibv_create_cq(cqe=256) failed: Connection timed out
[1741089935.225610] [ohm:664698:0]        ib_iface.c:1059 UCX  ERROR ibv_create_cq(cqe=256) failed: Connection timed out
[1741089935.226263] [ohm:664689:0]        ib_iface.c:1059 UCX  ERROR ibv_create_cq(cqe=256) failed: Connection timed out
[1741089935.226661] [ohm:664684:0]        ib_iface.c:1059 UCX  ERROR ibv_create_cq(cqe=256) failed: Connection timed out
[1741089935.227973] [ohm:664692:0]        ib_iface.c:1059 UCX  ERROR ibv_create_cq(cqe=256) failed: Connection timed out
[1741089935.228855] [ohm:664649:0]        ib_iface.c:1059 UCX  ERROR ibv_create_cq(cqe=256) failed: Connection timed out
[1741089935.229198] [ohm:664583:0]        ib_iface.c:1059 UCX  ERROR ibv_create_cq(cqe=256) failed: Connection timed out
[1741089935.240096] [ohm:664668:0]        ib_iface.c:1059 UCX  ERROR ibv_create_cq(cqe=256) failed: Connection timed out
[1741089935.240351] [ohm:664577:0]        ib_iface.c:1059 UCX  ERROR ibv_create_cq(cqe=256) failed: Connection timed out
[1741089935.248814] [ohm:664575:0]        ib_iface.c:1059 UCX  ERROR ibv_create_cq(cqe=256) failed: Connection timed out
[1741089935.249027] [ohm:664655:0]        ib_iface.c:1059 UCX  ERROR ibv_create_cq(cqe=256) failed: Connection timed out
[1741089935.250577] [ohm:664578:0]        ib_iface.c:1059 UCX  ERROR ibv_create_cq(cqe=256) failed: Connection timed out
[1741089935.250585] [ohm:664580:0]        ib_iface.c:1059 UCX  ERROR ibv_create_cq(cqe=256) failed: Connection timed out
[1741089935.253279] [ohm:664651:0]        ib_iface.c:1059 UCX  ERROR ibv_create_cq(cqe=256) failed: Connection timed out
[1741089935.254519] [ohm:664640:0]        ib_iface.c:1059 UCX  ERROR ibv_create_cq(cqe=256) failed: Connection timed out
[1741089935.255725] [ohm:664579:0]        ib_iface.c:1059 UCX  ERROR ibv_create_cq(cqe=256) failed: Connection timed out
[1741089935.256495] [ohm:664628:0]        ib_iface.c:1059 UCX  ERROR ibv_create_cq(cqe=256) failed: Connection timed out
[1741089935.256711] [ohm:664569:0]        ib_iface.c:1059 UCX  ERROR ibv_create_cq(cqe=256) failed: Connection timed out
[1741089935.259206] [ohm:664581:0]        ib_iface.c:1059 UCX  ERROR ibv_create_cq(cqe=256) failed: Connection timed out
[1741089935.260103] [ohm:664657:0]        ib_iface.c:1059 UCX  ERROR ibv_create_cq(cqe=256) failed: Connection timed out
[1741089935.260529] [ohm:664597:0]        ib_iface.c:1059 UCX  ERROR ibv_create_cq(cqe=256) failed: Connection timed out
[1741089935.261080] [ohm:664643:0]        ib_iface.c:1059 UCX  ERROR ibv_create_cq(cqe=256) failed: Connection timed out
[1741089935.261782] [ohm:664648:0]        ib_iface.c:1059 UCX  ERROR ibv_create_cq(cqe=256) failed: Connection timed out


           ************************************************************
           *        Program running with 64 parallel MPI-processes    *
           *              working on a common directory               *
           ************************************************************

-------------------------------------------------------------------------------------------
                                      ORCA LEAN-SCF
                              memory conserving SCF solver
-------------------------------------------------------------------------------------------

----------------------------------------D-I-I-S--------------------------------------------
Iteration    Energy (Eh)           Delta-E    RMSDP     MaxDP     DIISErr   Damp  Time(sec)
-------------------------------------------------------------------------------------------
               ***  Starting incremental Fock matrix formation  ***
    1    -908.1148630929824321     0.00e+00  1.57e-03  2.49e-01  1.48e-01  0.700   7.8
    2    -908.3852209511137517    -2.70e-01  1.25e-03  1.67e-01  7.19e-02  0.700   6.7
                               ***Turning on AO-DIIS***
    3    -908.5045974822792232    -1.19e-01  8.81e-04  1.09e-01  2.99e-02  0.700   5.6
    4    -908.5779631585887728    -7.34e-02  2.10e-03  2.02e-01  1.99e-02  0.000   5.6
    5    -908.7427143651834740    -1.65e-01  2.69e-04  6.49e-02  5.70e-03  0.000   5.7
                              *** Initializing SOSCF ***
---------------------------------------S-O-S-C-F--------------------------------------
Iteration    Energy (Eh)           Delta-E    RMSDP     MaxDP     MaxGrad    Time(sec)
--------------------------------------------------------------------------------------
    6    -908.7440644475750560    -1.35e-03  1.42e-04  4.01e-02  3.00e-03     6.4
               *** Restarting incremental Fock matrix formation ***
    7    -908.7446428271850891    -5.78e-04  3.31e-04  4.77e-02  4.97e-03     7.3
    8    -908.7450298251615095    -3.87e-04  2.82e-04  6.52e-02  2.61e-03     6.5
    9    -908.7451586538845731    -1.29e-04  1.53e-04  2.36e-02  7.95e-04     6.7
   10    -908.7452178481776173    -5.92e-05  3.22e-05  9.24e-03  3.99e-04     6.5
   11    -908.7452268802157960    -9.03e-06  9.44e-06  1.27e-03  9.81e-05     6.2
   12    -908.7452282417730203    -1.36e-06  5.41e-06  1.08e-03  1.19e-04     6.0
   13    -908.7452289778689192    -7.36e-07  4.82e-06  5.66e-04  3.30e-05     5.9
   14    -908.7452291507238442    -1.73e-07  1.74e-06  3.73e-04  2.38e-05     5.9
   15    -908.7452291729541685    -2.22e-08  1.78e-06  2.64e-04  1.07e-05     5.6
   16    -908.7452291757649618    -2.81e-09  1.18e-06  2.42e-04  3.45e-06     5.5
                 **** Energy Check signals convergence ****

               *****************************************************
               *                     SUCCESS                       *
               *           SCF CONVERGED AFTER  16 CYCLES          *
               *****************************************************

Recomputing exchange energy using gridx3       ... done (    7.905 sec)
Old exchange energy                            :    -35.040825335 Eh
New exchange energy                            :    -35.040828226 Eh
Exchange energy change after final integration :     -0.000002892 Eh
Total energy after final integration           :   -908.745232067 Eh
             **** ENERGY FILE WAS UPDATED (orca.en.tmp) ****

----------------
TOTAL SCF ENERGY
----------------

Total Energy       :       -908.74523206736444 Eh          -24728.21492 eV

Components:
Nuclear Repulsion  :       1426.89936727860413 Eh           38827.90576 eV
Electronic Energy  :      -2335.64459645436909 Eh          -63556.12060 eV
One Electron Energy:      -4070.74375074980935 Eh         -110770.56892 eV
Two Electron Energy:       1735.09915429544003 Eh           47214.44832 eV

Virial components:
Potential Energy   :      -1814.51448650572229 Eh          -49375.44938 eV
Kinetic Energy     :        905.76925443835785 Eh           24647.23445 eV
Virial Ratio       :          2.00328558031135

DFT components:
N(Alpha)           :       67.000013027575 electrons
N(Beta)            :       65.000024002045 electrons
N(Total)           :      132.000037029620 electrons
E(XC)              :      -86.263048906763 Eh       

---------------
SCF CONVERGENCE
---------------

  Last Energy change         ...    2.8108e-09  Tolerance :   1.0000e-08
  Last MAX-Density change    ...    2.4196e-04  Tolerance :   1.0000e-07
  Last RMS-Density change    ...    1.1849e-06  Tolerance :   5.0000e-09
  Last DIIS Error            ...    3.0030e-03  Tolerance :   5.0000e-07
  Last Orbital Gradient      ...    3.4522e-06  Tolerance :   1.0000e-05
  Last Orbital Rotation      ...    1.5656e-05  Tolerance :   1.0000e-05


----------------------
UHF SPIN CONTAMINATION
----------------------

Warning: in a DFT calculation there is little theoretical justification to 
         calculate <S**2> as in Hartree-Fock theory. We will do it anyways
         but you should keep in mind that the values have only limited relevance

Expectation value of <S**2>     :     2.011733
Ideal value S*(S+1) for S=1.0   :     2.000000
Deviation                       :     0.011733

----------------
ORBITAL ENERGIES
----------------
                 SPIN UP ORBITALS
  NO   OCC          E(Eh)            E(eV) 
   0   1.0000     -19.337658      -526.2044 
   1   1.0000     -19.335564      -526.1475 
   2   1.0000     -19.326890      -525.9114 
   3   1.0000     -19.324878      -525.8567 
   4   1.0000     -14.568912      -396.4402 
   5   1.0000     -14.565126      -396.3372 
   6   1.0000     -14.559643      -396.1880 
   7   1.0000     -14.556317      -396.0975 
   8   1.0000     -10.511692      -286.0377 
   9   1.0000     -10.510873      -286.0154 
  10   1.0000     -10.484880      -285.3081 
  11   1.0000     -10.481808      -285.2245 
  12   1.0000     -10.457891      -284.5737 
  13   1.0000     -10.442914      -284.1661 
  14   1.0000     -10.423379      -283.6346 
  15   1.0000     -10.416142      -283.4376 
  16   1.0000     -10.372793      -282.2580 
  17   1.0000     -10.362632      -281.9816 
  18   1.0000      -1.230958       -33.4961 
  19   1.0000      -1.218425       -33.1550 
  20   1.0000      -1.209513       -32.9125 
  21   1.0000      -1.192594       -32.4521 
  22   1.0000      -1.115875       -30.3645 
  23   1.0000      -1.101685       -29.9784 
  24   1.0000      -1.066398       -29.0182 
  25   1.0000      -1.058863       -28.8131 
  26   1.0000      -0.977468       -26.5983 
  27   1.0000      -0.949294       -25.8316 
  28   1.0000      -0.881959       -23.9993 
  29   1.0000      -0.850408       -23.1408 
  30   1.0000      -0.820587       -22.3293 
  31   1.0000      -0.800384       -21.7796 
  32   1.0000      -0.790344       -21.5064 
  33   1.0000      -0.786880       -21.4121 
  34   1.0000      -0.699321       -19.0295 
  35   1.0000      -0.690904       -18.8005 
  36   1.0000      -0.683926       -18.6106 
  37   1.0000      -0.679608       -18.4931 
  38   1.0000      -0.652711       -17.7612 
  39   1.0000      -0.636301       -17.3146 
  40   1.0000      -0.623863       -16.9762 
  41   1.0000      -0.604372       -16.4458 
  42   1.0000      -0.599573       -16.3152 
  43   1.0000      -0.590972       -16.0812 
  44   1.0000      -0.577207       -15.7066 
  45   1.0000      -0.571549       -15.5526 
  46   1.0000      -0.566127       -15.4051 
  47   1.0000      -0.563555       -15.3351 
  48   1.0000      -0.562174       -15.2975 
  49   1.0000      -0.556855       -15.1528 
  50   1.0000      -0.552088       -15.0231 
  51   1.0000      -0.541713       -14.7408 
  52   1.0000      -0.526804       -14.3351 
  53   1.0000      -0.520566       -14.1653 
  54   1.0000      -0.512838       -13.9550 
  55   1.0000      -0.509719       -13.8702 
  56   1.0000      -0.497396       -13.5348 
  57   1.0000      -0.432325       -11.7642 
  58   1.0000      -0.421253       -11.4629 
  59   1.0000      -0.411384       -11.1943 
  60   1.0000      -0.408024       -11.1029 
  61   1.0000      -0.406360       -11.0576 
  62   1.0000      -0.395733       -10.7684 
  63   1.0000      -0.392145       -10.6708 
  64   1.0000      -0.378393       -10.2966 
  65   1.0000      -0.353663        -9.6236 
  66   1.0000      -0.317801        -8.6478 
  67   0.0000       0.008974         0.2442 
  68   0.0000       0.030522         0.8305 
  69   0.0000       0.034324         0.9340 
  70   0.0000       0.035570         0.9679 
  71   0.0000       0.053169         1.4468 
  72   0.0000       0.058478         1.5913 
  73   0.0000       0.059333         1.6145 
  74   0.0000       0.062077         1.6892 
  75   0.0000       0.065534         1.7833 
  76   0.0000       0.066077         1.7980 
  77   0.0000       0.073265         1.9936 

                 SPIN DOWN ORBITALS
  NO   OCC          E(Eh)            E(eV) 
   0   1.0000     -19.333326      -526.0866 
   1   1.0000     -19.333215      -526.0835 
   2   1.0000     -19.326694      -525.9061 
   3   1.0000     -19.324593      -525.8489 
   4   1.0000     -14.568434      -396.4272 
   5   1.0000     -14.564808      -396.3286 
   6   1.0000     -14.559551      -396.1855 
   7   1.0000     -14.555516      -396.0757 
   8   1.0000     -10.511743      -286.0391 
   9   1.0000     -10.510952      -286.0175 
  10   1.0000     -10.485890      -285.3356 
  11   1.0000     -10.482626      -285.2467 
  12   1.0000     -10.457601      -284.5658 
  13   1.0000     -10.442134      -284.1449 
  14   1.0000     -10.411915      -283.3226 
  15   1.0000     -10.404297      -283.1153 
  16   1.0000     -10.373332      -282.2727 
  17   1.0000     -10.363080      -281.9937 
  18   1.0000      -1.230125       -33.4734 
  19   1.0000      -1.214995       -33.0617 
  20   1.0000      -1.206260       -32.8240 
  21   1.0000      -1.189322       -32.3631 
  22   1.0000      -1.113240       -30.2928 
  23   1.0000      -1.099545       -29.9201 
  24   1.0000      -1.064523       -28.9671 
  25   1.0000      -1.057374       -28.7726 
  26   1.0000      -0.964012       -26.2321 
  27   1.0000      -0.932295       -25.3690 
  28   1.0000      -0.877234       -23.8707 
  29   1.0000      -0.843980       -22.9659 
  30   1.0000      -0.812518       -22.1097 
  31   1.0000      -0.795770       -21.6540 
  32   1.0000      -0.788232       -21.4489 
  33   1.0000      -0.785563       -21.3763 
  34   1.0000      -0.692351       -18.8398 
  35   1.0000      -0.685916       -18.6647 
  36   1.0000      -0.678933       -18.4747 
  37   1.0000      -0.672455       -18.2984 
  38   1.0000      -0.638979       -17.3875 
  39   1.0000      -0.632795       -17.2192 
  40   1.0000      -0.619675       -16.8622 
  41   1.0000      -0.598581       -16.2882 
  42   1.0000      -0.593613       -16.1530 
  43   1.0000      -0.586796       -15.9675 
  44   1.0000      -0.570463       -15.5231 
  45   1.0000      -0.565983       -15.4012 
  46   1.0000      -0.562462       -15.3054 
  47   1.0000      -0.554691       -15.0939 
  48   1.0000      -0.553412       -15.0591 
  49   1.0000      -0.549067       -14.9409 
  50   1.0000      -0.544994       -14.8300 
  51   1.0000      -0.535291       -14.5660 
  52   1.0000      -0.521062       -14.1788 
  53   1.0000      -0.513374       -13.9696 
  54   1.0000      -0.503215       -13.6932 
  55   1.0000      -0.502307       -13.6685 
  56   1.0000      -0.493383       -13.4256 
  57   1.0000      -0.428265       -11.6537 
  58   1.0000      -0.418987       -11.4012 
  59   1.0000      -0.405894       -11.0449 
  60   1.0000      -0.396835       -10.7984 
  61   1.0000      -0.394895       -10.7456 
  62   1.0000      -0.390144       -10.6163 
  63   1.0000      -0.387654       -10.5486 
  64   1.0000      -0.367636       -10.0039 
  65   0.0000      -0.069162        -1.8820 
  66   0.0000      -0.040784        -1.1098 
  67   0.0000       0.008510         0.2316 
  68   0.0000       0.030208         0.8220 
  69   0.0000       0.034111         0.9282 
  70   0.0000       0.035457         0.9648 
  71   0.0000       0.054797         1.4911 
  72   0.0000       0.058627         1.5953 
  73   0.0000       0.060400         1.6436 
  74   0.0000       0.063217         1.7202 
  75   0.0000       0.065275         1.7762 
*Only the first 10 virtual orbitals were printed.

                    ********************************
                    * MULLIKEN POPULATION ANALYSIS *
                    ********************************

--------------------------------------------
MULLIKEN ATOMIC CHARGES AND SPIN POPULATIONS
--------------------------------------------
   0 O :   -0.670059    0.159859
   1 O :   -0.619855    0.089853
   2 O :   -0.648848    0.010793
   3 O :   -0.602150    0.006788
   4 N :   -0.294918    0.021915
   5 N :   -0.170180    0.030233
   6 N :    0.063155    0.033404
   7 N :   -0.008274    0.035089
   8 C :   -0.028516    0.481941
   9 C :   -0.594427    0.456137
  10 C :    0.518596    0.109414
  11 C :    0.828620    0.211425
  12 C :   -1.484219    0.024005
  13 C :   -1.506385   -0.025968
  14 C :    0.416784    0.105357
  15 C :    0.717169    0.120557
  16 C :    0.328195   -0.003911
  17 C :    0.412728    0.000112
  18 H :    0.603840    0.020323
  19 H :    0.573177    0.023478
  20 H :    0.291329    0.022230
  21 H :    0.380724   -0.000489
  22 H :    0.351733    0.017081
  23 H :    0.312324    0.021073
  24 H :    0.425931    0.026481
  25 H :    0.261501    0.009949
  26 H :    0.105485   -0.001077
  27 H :    0.027738   -0.002953
  28 H :    0.028315    0.000985
  29 H :   -0.019512   -0.004084
Sum of atomic charges         :   -0.0000000
Sum of atomic spin populations:    2.0000000

-----------------------------------------------------
MULLIKEN REDUCED ORBITAL CHARGES AND SPIN POPULATIONS
-----------------------------------------------------
CHARGE
  0 O s       :     4.105699  s :     4.105699
      pz      :     1.567324  p :     4.534745
      px      :     1.505385
      py      :     1.462036
      dz2     :     0.002981  d :     0.027722
      dxz     :     0.006888
      dyz     :     0.007512
      dx2y2   :     0.002678
      dxy     :     0.007662
      f0      :     0.000236  f :     0.001894
      f+1     :     0.000500
      f-1     :     0.000091
      f+2     :     0.000392
      f-2     :     0.000416
      f+3     :     0.000121
      f-3     :     0.000137

  1 O s       :     4.070018  s :     4.070018
      pz      :     1.372912  p :     4.512629
      px      :     1.712844
      py      :     1.426872
[...]
[1741090214.980646] [ohm:666971:0]        ib_iface.c:1059 UCX  ERROR ibv_create_cq(cqe=256) failed: Connection timed out
[1741090214.984634] [ohm:666844:0]        ib_iface.c:1059 UCX  ERROR ibv_create_cq(cqe=256) failed: Connection timed out
[1741090214.986521] [ohm:666853:0]        ib_iface.c:1059 UCX  ERROR ibv_create_cq(cqe=256) failed: Connection timed out
[1741090214.987279] [ohm:666941:0]        ib_iface.c:1059 UCX  ERROR ibv_create_cq(cqe=256) failed: Connection timed out
[1741090214.987493] [ohm:666977:0]        ib_iface.c:1059 UCX  ERROR ibv_create_cq(cqe=256) failed: Connection timed out
[1741090214.988191] [ohm:666852:0]        ib_iface.c:1059 UCX  ERROR ibv_create_cq(cqe=256) failed: Connection timed out
[1741090214.988571] [ohm:666974:0]        ib_iface.c:1059 UCX  ERROR ibv_create_cq(cqe=256) failed: Connection timed out
[1741090214.988608] [ohm:666932:0]        ib_iface.c:1059 UCX  ERROR ibv_create_cq(cqe=256) failed: Connection timed out
[1741090214.989481] [ohm:666958:0]        ib_iface.c:1059 UCX  ERROR ibv_create_cq(cqe=256) failed: Connection timed out
[1741090214.989966] [ohm:666984:0]        ib_iface.c:1059 UCX  ERROR ibv_create_cq(cqe=256) failed: Connection timed out
[1741090214.996296] [ohm:666871:0]        ib_iface.c:1059 UCX  ERROR ibv_create_cq(cqe=256) failed: Connection timed out


           ************************************************************
           *        Program running with 64 parallel MPI-processes    *
           *              working on a common directory               *
           ************************************************************

------------------------------------------------------------------------------
                              ORCA PROPERTY CALCULATIONS
------------------------------------------------------------------------------

GBWName                                 ... orca.gbw
Number of atoms                         ...     30
Number of basis functions               ...    882
Max core memory                         ...   1024 MB

Electric properties:
Dipole moment                           ... YES
Quadrupole moment                       ...  NO
Static polarizability (Dipole/Dipole)   ...  NO
Static polarizability (Dipole/Quad.)    ...  NO
Static polarizability (Quad./Quad.)     ...  NO
Static polarizability (Velocity)        ...  NO

Atomic electric properties:
Dipole moment                           ...  NO
Quadrupole moment                       ...  NO
Static polarizability                   ...  NO

Choice of electric origin               ... Center of mass
Position of electric origin             ...    -0.013935    -0.086676    -0.048366

General magnetic properties:
Magnetizability                         ...  NO

EPR properties:
g-Tensor (aka g-matrix)                 ...  NO
Zero-Field splitting spin-orbit         ...  NO
Zero-field splitting spin-spin          ...  NO
Hyperfine couplings                     ...  NO (   0 nuclei)
Quadrupole couplings                    ...  NO (   0 nuclei)
Contact density                         ...  NO (   0 nuclei)

NMR properties:
Chemical shifts                         ...  NO (   0 nuclei)
Spin-rotation constants                 ...  NO (   0 nuclei)
Spin-spin couplings                     ...  NO (   0 nuclei,    0 pairs)

Choice of magnetic origin               ... GIAO
Position of magnetic origin             ...     0.000000     0.000000     0.000000

Properties with geometric perturbations:
SCF Hessian                             ...  NO
IR spectrum                             ...  NO
VCD spectrum                            ...  NO
X-ray spectroscopy properties:
SCF XES/XAS/RIXS spectra                ...  NO


-------------
DIPOLE MOMENT
-------------

Method             : SCF
Type of density    : Electron Density
Multiplicity       :   3
Irrep              :   0
Energy             :  -908.7452320673644408 Eh
Relativity type    : 
Basis              : AO
                                X                 Y                 Z
Electronic contribution:     -9.921301754      -4.474543547      -1.022417316
Nuclear contribution   :     11.786274977       5.199268461       2.577579606
                        -----------------------------------------
Total Dipole Moment    :      1.864973223       0.724724914       1.555162290
                        -----------------------------------------
Magnitude (a.u.)       :      2.534143065
Magnitude (Debye)      :      6.441279775



--------------------
Rotational spectrum 
--------------------
 
Rotational constants in cm-1:             0.022303             0.012104             0.010978 
Rotational constants in MHz :           668.635458           362.864956           329.115643 

Dipole components along the rotational axes: 
x,y,z [a.u.] :     0.696071     2.386849     0.490225 
x,y,z [Debye]:     1.769271     6.066887     1.246054 

 

-------------
DIPOLE MOMENT
-------------

Method             : TDA/CIS
Type of density    : Electron Density
Level              : Relaxed density
State              :   1
Multiplicity       :   3
Irrep              :   0
Energy             :     0.0000000000000000 Eh
Relativity type    : 
Basis              : AO
                                X                 Y                 Z
Electronic contribution:     -9.949807579      -4.402118653      -0.926828694
Nuclear contribution   :     11.786274977       5.199268461       2.577579606
                        -----------------------------------------
Total Dipole Moment    :      1.836467398       0.797149808       1.650750912
                        -----------------------------------------
Magnitude (a.u.)       :      2.594809992
Magnitude (Debye)      :      6.595482847



--------------------
Rotational spectrum 
--------------------
 
Rotational constants in cm-1:             0.022303             0.012104             0.010978 
Rotational constants in MHz :           668.635458           362.864956           329.115643 

Dipole components along the rotational axes: 
x,y,z [a.u.] :     0.608172     2.468919     0.517307 
x,y,z [Debye]:     1.545850     6.275492     1.314890 

 

Dipole moment calculation done in   0.2 sec 

Maximum memory used throughout the entire PROP-calculation: 81.4 MB
[1741090217.556266] [ohm:667178:0]        ib_iface.c:1059 UCX  ERROR ibv_create_cq(cqe=256) failed: Connection timed out
[1741090217.586504] [ohm:667181:0]        ib_iface.c:1059 UCX  ERROR ibv_create_cq(cqe=256) failed: Connection timed out
[1741090217.589846] [ohm:667186:0]        ib_iface.c:1059 UCX  ERROR ibv_create_cq(cqe=256) failed: Connection timed out
[1741090217.593518] [ohm:667192:0]        ib_iface.c:1059 UCX  ERROR ibv_create_cq(cqe=256) failed: Connection timed out
[1741090217.624844] [ohm:667195:0]        ib_iface.c:1059 UCX  ERROR ibv_create_cq(cqe=256) failed: Connection timed out
[1741090217.666259] [ohm:667177:0]        ib_iface.c:1059 UCX  ERROR ibv_create_cq(cqe=256) failed: Connection timed out
[1741090217.718537] [ohm:667189:0]        ib_iface.c:1059 UCX  ERROR ibv_create_cq(cqe=256) failed: Connection timed out
[1741090217.725072] [ohm:667221:0]        ib_iface.c:1059 UCX  ERROR ibv_create_cq(cqe=256) failed: Connection timed out
[1741090217.725509] [ohm:667183:0]        ib_iface.c:1059 UCX  ERROR ibv_create_cq(cqe=256) failed: Connection timed out
[1741090217.726295] [ohm:667182:0]        ib_iface.c:1059 UCX  ERROR ibv_create_cq(cqe=256) failed: Connection timed out
[1741090217.729899] [ohm:667191:0]        ib_iface.c:1059 UCX  ERROR ibv_create_cq(cqe=256) failed: Connection timed out
[1741090217.734615] [ohm:667184:0]        ib_iface.c:1059 UCX  ERROR ibv_create_cq(cqe=256) failed: Connection timed out
[1741090217.736695] [ohm:667179:0]        ib_iface.c:1059 UCX  ERROR ibv_create_cq(cqe=256) failed: Connection timed out
[1741090217.740110] [ohm:667185:0]        ib_iface.c:1059 UCX  ERROR ibv_create_cq(cqe=256) failed: Connection timed out
[1741090217.744196] [ohm:667193:0]        ib_iface.c:1059 UCX  ERROR ibv_create_cq(cqe=256) failed: Connection timed out
[1741090217.765559] [ohm:667187:0]        ib_iface.c:1059 UCX  ERROR ibv_create_cq(cqe=256) failed: Connection timed out
[1741090217.774683] [ohm:667237:0]        ib_iface.c:1059 UCX  ERROR ibv_create_cq(cqe=256) failed: Connection timed out
[1741090217.817236] [ohm:667198:0]        ib_iface.c:1059 UCX  ERROR ibv_create_cq(cqe=256) failed: Connection timed out
[1741090217.829454] [ohm:667200:0]        ib_iface.c:1059 UCX  ERROR ibv_create_cq(cqe=256) failed: Connection timed out
[1741090217.836133] [ohm:667188:0]        ib_iface.c:1059 UCX  ERROR ibv_create_cq(cqe=256) failed: Connection timed out
[1741090217.842932] [ohm:667197:0]        ib_iface.c:1059 UCX  ERROR ibv_create_cq(cqe=256) failed: Connection timed out
[1741090217.848498] [ohm:667202:0]        ib_iface.c:1059 UCX  ERROR ibv_create_cq(cqe=256) failed: Connection timed out
[1741090217.850603] [ohm:667190:0]        ib_iface.c:1059 UCX  ERROR ibv_create_cq(cqe=256) failed: Connection timed out
[1741090217.864123] [ohm:667199:0]        ib_iface.c:1059 UCX  ERROR ibv_create_cq(cqe=256) failed: Connection timed out
[1741090217.874003] [ohm:667245:0]        ib_iface.c:1059 UCX  ERROR ibv_create_cq(cqe=256) failed: Connection timed out
[1741090217.874111] [ohm:667219:0]        ib_iface.c:1059 UCX  ERROR ibv_create_cq(cqe=256) failed: Connection timed out
[1741090217.892868] [ohm:667279:0]        ib_iface.c:1059 UCX  ERROR ibv_create_cq(cqe=256) failed: Connection timed out
[1741090217.894367] [ohm:667265:0]        ib_iface.c:1059 UCX  ERROR ibv_create_cq(cqe=256) failed: Connection timed out
[1741090217.899314] [ohm:667205:0]        ib_iface.c:1059 UCX  ERROR ibv_create_cq(cqe=256) failed: Connection timed out
[1741090217.899906] [ohm:667209:0]        ib_iface.c:1059 UCX  ERROR ibv_create_cq(cqe=256) failed: Connection timed out
[1741090217.909144] [ohm:667271:0]        ib_iface.c:1059 UCX  ERROR ibv_create_cq(cqe=256) failed: Connection timed out
[1741090217.916979] [ohm:667254:0]        ib_iface.c:1059 UCX  ERROR ibv_create_cq(cqe=256) failed: Connection timed out
[1741090217.927419] [ohm:667240:0]        ib_iface.c:1059 UCX  ERROR ibv_create_cq(cqe=256) failed: Connection timed out
[1741090217.928572] [ohm:667225:0]        ib_iface.c:1059 UCX  ERROR ibv_create_cq(cqe=256) failed: Connection timed out
[1741090217.931771] [ohm:667203:0]        ib_iface.c:1059 UCX  ERROR ibv_create_cq(cqe=256) failed: Connection timed out
[1741090217.937075] [ohm:667214:0]        ib_iface.c:1059 UCX  ERROR ibv_create_cq(cqe=256) failed: Connection timed out
[1741090217.937118] [ohm:667260:0]        ib_iface.c:1059 UCX  ERROR ibv_create_cq(cqe=256) failed: Connection timed out
[1741090217.944514] [ohm:667269:0]        ib_iface.c:1059 UCX  ERROR ibv_create_cq(cqe=256) failed: Connection timed out
[1741090217.948080] [ohm:667226:0]        ib_iface.c:1059 UCX  ERROR ibv_create_cq(cqe=256) failed: Connection timed out
[1741090217.948889] [ohm:667232:0]        ib_iface.c:1059 UCX  ERROR ibv_create_cq(cqe=256) failed: Connection timed out
[1741090217.949219] [ohm:667338:0]        ib_iface.c:1059 UCX  ERROR ibv_create_cq(cqe=256) failed: Connection timed out
[1741090217.949448] [ohm:667234:0]        ib_iface.c:1059 UCX  ERROR ibv_create_cq(cqe=256) failed: Connection timed out
[1741090217.952442] [ohm:667291:0]        ib_iface.c:1059 UCX  ERROR ibv_create_cq(cqe=256) failed: Connection timed out
[1741090217.956896] [ohm:667262:0]        ib_iface.c:1059 UCX  ERROR ibv_create_cq(cqe=256) failed: Connection timed out
[1741090217.962954] [ohm:667307:0]        ib_iface.c:1059 UCX  ERROR ibv_create_cq(cqe=256) failed: Connection timed out
[1741090217.963446] [ohm:667201:0]        ib_iface.c:1059 UCX  ERROR ibv_create_cq(cqe=256) failed: Connection timed out
[1741090217.965486] [ohm:667266:0]        ib_iface.c:1059 UCX  ERROR ibv_create_cq(cqe=256) failed: Connection timed out
[1741090217.966335] [ohm:667315:0]        ib_iface.c:1059 UCX  ERROR ibv_create_cq(cqe=256) failed: Connection timed out
[1741090217.967794] [ohm:667322:0]        ib_iface.c:1059 UCX  ERROR ibv_create_cq(cqe=256) failed: Connection timed out
[1741090217.976163] [ohm:667250:0]        ib_iface.c:1059 UCX  ERROR ibv_create_cq(cqe=256) failed: Connection timed out
[1741090217.985331] [ohm:667298:0]        ib_iface.c:1059 UCX  ERROR ibv_create_cq(cqe=256) failed: Connection timed out
[1741090217.987615] [ohm:667285:0]        ib_iface.c:1059 UCX  ERROR ibv_create_cq(cqe=256) failed: Connection timed out
[1741090217.988655] [ohm:667289:0]        ib_iface.c:1059 UCX  ERROR ibv_create_cq(cqe=256) failed: Connection timed out
[1741090217.989634] [ohm:667211:0]        ib_iface.c:1059 UCX  ERROR ibv_create_cq(cqe=256) failed: Connection timed out
[1741090217.996422] [ohm:667180:0]        ib_iface.c:1059 UCX  ERROR ibv_create_cq(cqe=256) failed: Connection timed out
[1741090217.997532] [ohm:667303:0]        ib_iface.c:1059 UCX  ERROR ibv_create_cq(cqe=256) failed: Connection timed out
[1741090217.998243] [ohm:667278:0]        ib_iface.c:1059 UCX  ERROR ibv_create_cq(cqe=256) failed: Connection timed out
[1741090217.999438] [ohm:667229:0]        ib_iface.c:1059 UCX  ERROR ibv_create_cq(cqe=256) failed: Connection timed out
[1741090218.002016] [ohm:667284:0]        ib_iface.c:1059 UCX  ERROR ibv_create_cq(cqe=256) failed: Connection timed out
[1741090218.003113] [ohm:667194:0]        ib_iface.c:1059 UCX  ERROR ibv_create_cq(cqe=256) failed: Connection timed out
[1741090218.003258] [ohm:667305:0]        ib_iface.c:1059 UCX  ERROR ibv_create_cq(cqe=256) failed: Connection timed out
[1741090218.004082] [ohm:667300:0]        ib_iface.c:1059 UCX  ERROR ibv_create_cq(cqe=256) failed: Connection timed out
[1741090218.005295] [ohm:667329:0]        ib_iface.c:1059 UCX  ERROR ibv_create_cq(cqe=256) failed: Connection timed out
[1741090218.006289] [ohm:667196:0]        ib_iface.c:1059 UCX  ERROR ibv_create_cq(cqe=256) failed: Connection timed out

--------------------------------
SUGGESTED CITATIONS FOR THIS RUN
--------------------------------

Below you find a list of papers that are relevant to this ORCA run
We neither can nor want to force you to cite these papers, but we appreciate if you do
You receive ORCA, which is the product of decades of hard work by many enthusiastic individuals, for free
The only thing we kindly ask in return is that you cite our papers,
We deeply appreciate it, if you show your appreciation for ORCA by not just citing the generic ORCA reference.

Please note that relegating all ORCA citations to the supporting information does *not* help us.
SI sections are not indexed - citations you put there will not count into any citation statistics
But we need these citations in order to attract the funding resources that allow us to do what we are doing

Therefore, if you are a happy ORCA user, please consider citing a few of the papers listed below in the main body of your paper

In addition to the list printed below, the program has created the file orca.bibtex that contains the list in bibtex format
You can import this file easily into all common literature databanks and citation aid programs


List of essential papers. We consider these as the minimum necessary citations

  1. Neese,F.
     Software update: the ORCA program system, version 5.0
     WIRES Comput. Molec. Sci., 2022 12(1)e1606
     doi.org/10.1002/wcms.1606

List of papers to cite with high priority. The work reported in these papers was absolutely
necessary for this run to complete.
Our perspective: the developers of density functionals and basis sets usually get cited in chemistry papers
Good! But without the algorithms to do something with them, the functionals or basis sets would not do anything.
Hence, in our opinion, the algorithm design and method developments papers are equally worthy of getting cited

  1. Neese,F.; Olbrich,G.
     Efficient use of the resolution of the identity approximation in time-dependent density functional calculations with hybrid density functionals
     Chem. Phys. Lett., 2002 362 170-178
     doi.org/10.1016/s0009-2614(02)01053-9
  2. Neese,F.
     An improvement of the resolution of the identity approximation for the formation of the Coulomb matrix
     J. Comp. Chem., 2003 24(14)1740-1747
     doi.org/10.1002/jcc.10318
  3. Neese,F.; Wennmohs,F.; Hansen,A.; Becker,U.
     Efficient, approximate and parallel Hartree-Fock and hybrid DFT calculations. A 'chain-of-spheres' algorithm for the Hartree-Fock exchange
     Chem. Phys., 2009 356(1-3)98-109
     doi.org/10.1016/j.chemphys.2008.10.036
  4. Petrenko,T.; Kossmann,S.; Neese,F.
     Efficient time-dependent density functional theory approximations for hybrid density functionals: Analytical gradients and parallelization
     J. Chem. Phys., 2011 134 054116
     doi.org/10.1063/1.3533441
  5. Helmich-Paris,B.; de Souza,B.; Neese,F.; Izsák,R.
     An improved chain of spheres for exchange algorithm
     J. Chem. Phys., 2021 155 104109
     doi.org/doi: 10.1063/5.0058766.
  6. Neese,F.
     The SHARK Integral Generation and Digestion System
     J. Comp. Chem., 2022  1-16
     doi.org/10.1002/jcc.26942
  7. Lehtola,S.; Steigemann,C.; Oliveira,M.; Marques,M.
     Recent developments in Libxc - A comprehensive library of functionals for density functional theory
     Software X, 2018 7 
     doi.org/10.1016/j.softx.2017.11.002
  8. Grimme,S.; Antony,J.; Ehrlich,S.; Krieg,H.
     A consistent and accurate ab initio parametrization of density functional dispersion correction (DFT-D) for the 94 elements H-Pu
     J. Chem. Phys., 2010 132 154104-XXXX
     doi.org/10.1063/1.3382344
  9. Grimme,S.; Ehrlich,S.; Goerigk,L.
     Effect of the damping function in dispersion corrected density functional theory
     J. Comput. Chem., 2011 32(7)1456-1465
     doi.org/10.1002/jcc.21759

List of suggested additional citations. These are papers that are important in the 'surrounding' of 
of this run, or papers that preceded the highly important papers. If you like your results we are grateful for a citation.

  1. Izsak,R.; Neese,F.
     An overlap fitted chain of spheres exchange method
     J. Chem. Phys., 2011 135 144105
     doi.org/10.1063/1.3646921
  2. Izsak,R.; Hansen,A.; Neese,F.
     The resolution of identity and chain of spheres approximations for the LPNO-CCSD singles Fock term
     Molec. Phys., 2012 110 2413-2417
     doi.org/10.1080/00268976.2012.687466
  3. Neese,F.
     The ORCA program system
     WIRES Comput. Molec. Sci., 2012 2(1)73-78
     doi.org/10.1002/wcms.81
  4. Izsak,R.; Neese,F.; Klopper,W.
     Robust fitting techniques in the chain of spheres approximation to the Fock exchange: The role of the complementary space
     J. Chem. Phys., 2013 139 
     doi.org/10.1063/1.4819264
  5. Neese,F.
     Software update: the ORCA program system, version 4.0
     WIRES Comput. Molec. Sci., 2018 8(1)1-6
     doi.org/10.1002/wcms.1327
  6. Neese,F.; Wennmohs,F.; Becker,U.; Riplinger,C.
     The ORCA quantum chemistry program package
     J. Chem. Phys., 2020 152 Art. No. L224108
     doi.org/10.1063/5.0004608

List of optional additional citations

  1. Neese,F.
     Approximate second-order SCF convergence for spin unrestricted wavefunctions
     Chem. Phys. Lett., 2000 325(1-3)93-98
     doi.org/10.1016/s0009-2614(00)00662-x

Timings for individual modules:

Sum of individual times          ...      293.719 sec (=   4.895 min)
Startup calculation              ...        6.759 sec (=   0.113 min)   2.3 %
SCF iterations                   ...      117.790 sec (=   1.963 min)  40.1 %
Property integrals               ...        4.239 sec (=   0.071 min)   1.4 %
Property calculations            ...        3.061 sec (=   0.051 min)   1.0 %
CIS module                       ...      161.871 sec (=   2.698 min)  55.1 %
                             ****ORCA TERMINATED NORMALLY****
TOTAL RUN TIME: 0 days 0 hours 4 minutes 56 seconds 53 msec
