
                                 *****************
                                 * O   R   C   A *
                                 *****************

                                            #,                                       
                                            ###                                      
                                            ####                                     
                                            #####                                    
                                            ######                                   
                                           ########,                                 
                                     ,,################,,,,,                         
                               ,,#################################,,                 
                          ,,##########################################,,             
                       ,#########################################, ''#####,          
                    ,#############################################,,   '####,        
                  ,##################################################,,,,####,       
                ,###########''''           ''''###############################       
              ,#####''   ,,,,##########,,,,          '''####'''          '####       
            ,##' ,,,,###########################,,,                        '##       
           ' ,,###''''                  '''############,,,                           
         ,,##''                                '''############,,,,        ,,,,,,###''
      ,#''                                            '''#######################'''  
     '                                                          ''''####''''         
             ,#######,   #######,   ,#######,      ##                                
            ,#'     '#,  ##    ##  ,#'     '#,    #''#        ,####,   ,####,        
            ##       ##  ##   ,#'  ##            #'  '#       #'       #'  '#        
            ##       ##  #######   ##           ,######,      #####,   #    #        
            '#,     ,#'  ##    ##  '#,     ,#' ,#      #,     #,   #   #,  ,#        
             '#######'   ##     ##  '#######'  #'      '#     '####' # '####'        



                #########################################################
                #                        -***-                          #
                #          Department of theory and spectroscopy        #
                #                                                       #
                #                      Frank Neese                      #
                #                                                       #
                #     Directorship, Architecture, Infrastructure        #
                #                    SHARK, DRIVERS                     #
                #        Core code/Algorithms in most modules           #
                #                                                       #
                #        Max Planck Institute fuer Kohlenforschung      #
                #                Kaiser Wilhelm Platz 1                 #
                #                 D-45470 Muelheim/Ruhr                 #
                #                      Germany                          #
                #                                                       #
                #                  All rights reserved                  #
                #                        -***-                          #
                #########################################################


                         Program Version 6.0.0  -   RELEASE  -


 With contributions from (in alphabetic order):
   Daniel Aravena         : Magnetic Suceptibility
   Michael Atanasov       : Ab Initio Ligand Field Theory (pilot matlab implementation)
   Alexander A. Auer      : GIAO ZORA, VPT2 properties, NMR spectrum
   Ute Becker             : All parallelization in ORCA, NUMFREQ, NUMCALC
   Giovanni Bistoni       : ED, misc. LED, open-shell LED, HFLD
   Martin Brehm           : Molecular dynamics
   Dmytro Bykov           : pre 5.0 version of the SCF Hessian
   Marcos Casanova-Páez   : Triplet and SCS-CIS(D). UHF-(DLPNO)-IP/EA/STEOM-CCSD. UHF-CVS-IP/STEOM-CCSD
   Vijay G. Chilkuri      : MRCI spin determinant printing, contributions to CSF-ICE
   Pauline Colinet        : FMM embedding
   Dipayan Datta          : RHF DLPNO-CCSD density
   Achintya Kumar Dutta   : EOM-CC, STEOM-CC
   Nicolas Foglia         : Exact transition moments, OPA infrastructure, MCD improvements
   Dmitry Ganyushin       : Spin-Orbit,Spin-Spin,Magnetic field MRCI
   Miquel Garcia          : C-PCM and meta-GGA Hessian, CCSD/C-PCM, Gaussian charge scheme
   Tiago L. C. Gouveia    : GS-ROHF, GS-ROCIS
   Yang Guo               : DLPNO-NEVPT2, F12-NEVPT2, CIM, IAO-localization
   Andreas Hansen         : Spin unrestricted coupled pair/coupled cluster methods
   Ingolf Harden          : AUTO-CI MPn and infrastructure 
   Benjamin Helmich-Paris : MC-RPA, TRAH-(SCF,CASSCF), AVAS, COSX integrals, SCF dyn. polar.
   Lee Huntington         : MR-EOM, pCC
   Robert Izsak           : Overlap fitted RIJCOSX, COSX-SCS-MP3, EOM
   Riya Kayal             : Wick's Theorem for AUTO-CI, AUTO-CI UHF-CCSDT
   Emily Kempfer          : AUTO-CI, RHF CISDT and CCSDT
   Christian Kollmar      : KDIIS, OOCD, Brueckner-CCSD(T), CCSD density, CASPT2, CASPT2-K, improved NEVPT2
   Axel Koslowski         : Symmetry handling
   Simone Kossmann        : Meta GGA functionals, TD-DFT gradient, OOMP2, (MP2 Hessian; deprecated post 5.0)
   Lucas Lang             : DCDCAS
   Marvin Lechner         : AUTO-CI (C++ implementation), FIC-MRCC
   Spencer Leger          : CASSCF response
   Dagmar Lenk            : GEPOL surface, SMD, ORCA-2-JSON
   Dimitrios Liakos       : Extrapolation schemes; Compound Job, initial MDCI parallelization
   Dimitrios Manganas     : Further ROCIS development; embedding schemes. LFT, Crystal Embedding
   Dimitrios Pantazis     : SARC Basis sets
   Anastasios Papadopoulos: AUTO-CI, single reference methods and gradients
   Taras Petrenko         : pre 6.0 DFT Hessian and TD-DFT gradient, (ASA, deprecated), ECA, 1-Electron XAS/XES, NRVS
   Peter Pinski           : DLPNO-MP2, DLPNO-MP2 Gradient
   Christoph Reimann      : Effective Core Potentials
   Marius Retegan         : Local ZFS, SOC
   Christoph Riplinger    : Optimizer, TS searches, QM/MM, DLPNO-CCSD(T), (RO)-DLPNO pert. Triples
   Michael Roemelt        : Original ROCIS implementation
   Masaaki Saitow         : Open-shell DLPNO-CCSD energy and density
   Barbara Sandhoefer     : DKH picture change effects
   Kantharuban Sivalingam : CASSCF convergence/infrastructure, NEVPT2 and variants, FIC-MRCI
   Bernardo de Souza      : ESD, SOC TD-DFT
   Georgi Stoychev        : AutoAux, RI-MP2 NMR, DLPNO-MP2 response, X2C
   Van Anh Tran           : RI-MP2 g-tensors
   Willem Van den Heuvel  : Paramagnetic NMR
   Zikuan Wang            : NOTCH, Electric field optimization 
   Frank Wennmohs         : Technical directorship and infrastructure
   Hang Xu                : AUTO-CI-Response properties 


 We gratefully acknowledge several colleagues who have allowed us to
 interface, adapt or use parts of their codes:
   Stefan Grimme, W. Hujo, H. Kruse, P. Pracht,  : VdW corrections, initial TS optimization,
                  C. Bannwarth, S. Ehlert,         DFT functionals, gCP, sTDA/sTD-DF
                  L. Wittmann, M. Mueller
   Ed Valeev, F. Pavosevic, A. Kumar             : LibInt (2-el integral package), F12 methods
   Garnet Chan, S. Sharma, J. Yang, R. Olivares  : DMRG
   Ulf Ekstrom                                   : XCFun DFT Library
   Mihaly Kallay                                 : mrcc  (arbitrary order and MRCC methods)
   Frank Weinhold                                : gennbo (NPA and NBO analysis)
   Simon Mueller                                 : openCOSMO-RS
   Christopher J. Cramer and Donald G. Truhlar   : smd solvation model
   Lars Goerigk                                  : TD-DFT with DH, B97 family of functionals
   V. Asgeirsson, H. Jonsson                     : NEB implementation
   FAccTs GmbH                                   : IRC, NEB, NEB-TS, DLPNO-Multilevel, CI-OPT
                                                   MM, QMMM, 2- and 3-layer-ONIOM, Crystal-QMMM,
                                                   LR-CPCM, SF, NACMEs, symmetry and pop. for TD-DFT,
                                                   nearIR, NL-DFT gradient (VV10), updates on ESD,
                                                   ML-optimized integration grids, MBIS, APM,
                                                   GOAT, DOCKER, SOLVATOR, interface openCOSMO-RS
   S Lehtola, MJT Oliveira, MAL Marques          : LibXC Library
   Liviu Ungur et al                             : ANISO software


 Your calculation uses the libint2 library for the computation of 2-el integrals
 For citations please refer to: http://libint.valeyev.net

 Your ORCA version has been built with support for libXC version: 6.2.2
 For citations please refer to: https://libxc.gitlab.io

 This ORCA versions uses:
   CBLAS   interface :  Fast vector & matrix operations
   LAPACKE interface :  Fast linear algebra routines
   SCALAPACK package :  Parallel linear algebra routines
   Shared memory     :  Shared parallel matrices
   BLAS/LAPACK       :  OpenBLAS 0.3.27  USE64BITINT DYNAMIC_ARCH NO_AFFINITY Zen SINGLE_THREADED
        Core in use  :  Zen
   Copyright (c) 2011-2014, The OpenBLAS Project


Your calculation utilizes the atom-pairwise dispersion correction
with the Becke-Johnson damping scheme (D3BJ)


Warning: RI is on but no J-basis has been assigned. Assigning Def2/J (nothing to worry about!)
================================================================================

----- Orbital basis set information -----
Your calculation utilizes the basis: def2-TZVPPD
   F. Weigend and R. Ahlrichs, Phys. Chem. Chem. Phys. 7, 3297 (2005).
   D. Rappoport and F. Furche, J. Chem. Phys. 133, 134105 (2010)
   D. Rappoport, J. Chem. Phys. 155, 124102 (2021).

----- AuxJ basis set information -----
Your calculation utilizes the auxiliary basis: def2/J
   F. Weigend, Phys. Chem. Chem. Phys. 8, 1057 (2006).

================================================================================
                                        WARNINGS
                       Please study these warnings very carefully!
================================================================================

Using LibXC functional ID 531 : wB97M-V exchange-correlation functional
[ 1]  N. Mardirossian and M. Head-Gordon.,  J. Chem. Phys. 144, 214110 (2016)
Using LibXC functional ID 531 : wB97M-V exchange-correlation functional
[ 1]  N. Mardirossian and M. Head-Gordon.,  J. Chem. Phys. 144, 214110 (2016)

WARNING: B97M-V or wB97M-V functional requested.
  ===> : libXC variant has now been activated.
         Any manually given DFX/HFX/RangeSep scaling parameters are IGNORED!

Your calculation utilizes LibXC
 by S Lehtola, C Steigemann, MJT Oliveira & MAL Marques
Please cite in your paper:
 S Lehtola, C Steigemann, MJT Oliveira & MAL Marques, SoftwareX, 7, (2018), 1.
   


WARNING: your system is open-shell and RHF/RKS was chosen
  ===> : WILL SWITCH to UHF/UKS

INFO   : Checking CIS options ...

WARNING: CIS/ROCIS methods need fully converged wavefunctions
  ===> : Setting SCFConvForced true
         You can overwrite this default with %scf ConvForced false 


================================================================================
                                       INPUT FILE
================================================================================
NAME = orca.inp
|  1> ! Engrad def2-TZVPPD wB97M-D3BJ 
|  2> %pal nprocs 8 end%pal nprocs 64 end 
|  3> %tddft 
|  4>  Iroot 2 Nroots 3 
|  5> sf true 
|  6> end 
|  7> *xyz 0 3 
|  8> O   -0.70035949 0.35581574 -0.08461086
|  9> C   0.60530217 0.49319001 0.2114583
| 10> C   1.41171863 -0.73255241 0.10530588
| 11> H   0.70577515 0.95659773 1.25326413
| 12> H   1.08624374 1.26817226 -0.45395732
| 13> H   1.125096 -1.70247144 0.50040957
| 14> H   2.29163279 -0.54244149 -0.52052846
| 15> *
| 16> 
| 17>                          ****END OF INPUT****
================================================================================

                     *******************************
                     * Energy+Gradient Calculation *
                     *******************************

---------------------------------
CARTESIAN COORDINATES (ANGSTROEM)
---------------------------------
  O     -0.700359    0.355816   -0.084611
  C      0.605302    0.493190    0.211458
  C      1.411719   -0.732552    0.105306
  H      0.705775    0.956598    1.253264
  H      1.086244    1.268172   -0.453957
  H      1.125096   -1.702471    0.500410
  H      2.291633   -0.542441   -0.520528

----------------------------
CARTESIAN COORDINATES (A.U.)
----------------------------
  NO LB      ZA    FRAG     MASS         X           Y           Z
   0 O     8.0000    0    15.999   -1.323488    0.672394   -0.159891
   1 C     6.0000    0    12.011    1.143855    0.931994    0.399598
   2 C     6.0000    0    12.011    2.667762   -1.384323    0.198999
   3 H     1.0000    0     1.008    1.333722    1.807708    2.368326
   4 H     1.0000    0     1.008    2.052703    2.396498   -0.857855
   5 H     1.0000    0     1.008    2.126123   -3.217205    0.945637
   6 H     1.0000    0     1.008    4.330558   -1.025066   -0.983656

--------------------------------
INTERNAL COORDINATES (ANGSTROEM)
--------------------------------
 O      0   0   0     0.000000000000     0.00000000     0.00000000
 C      1   0   0     1.345838403359     0.00000000     0.00000000
 C      2   1   0     1.471060951633   115.52446092     0.00000000
 H      2   1   3     1.144640084082   109.06895703   234.46697032
 H      2   1   3     1.129017373165   110.71226998   122.08078242
 H      3   2   1     1.085818761413   124.98317066   314.07189521
 H      3   2   1     1.096384837543   109.67360216   128.21582499

---------------------------
INTERNAL COORDINATES (A.U.)
---------------------------
 O      0   0   0     0.000000000000     0.00000000     0.00000000
 C      1   0   0     2.543266002862     0.00000000     0.00000000
 C      2   1   0     2.779902324891   115.52446092     0.00000000
 H      2   1   3     2.163056280824   109.06895703   234.46697032
 H      2   1   3     2.133533635722   110.71226998   122.08078242
 H      3   2   1     2.051900090144   124.98317066   314.07189521
 H      3   2   1     2.071867080341   109.67360216   128.21582499

---------------------
BASIS SET INFORMATION
---------------------
There are 3 groups of distinct atoms

 Group   1 Type O   : 12s7p3d1f contracted to 6s4p3d1f pattern {621111/4111/111/1}
 Group   2 Type C   : 12s6p3d1f contracted to 6s3p3d1f pattern {621111/411/111/1}
 Group   3 Type H   : 5s3p1d contracted to 3s3p1d pattern {311/111/1}

Atom   0O    basis set group =>   1
Atom   1C    basis set group =>   2
Atom   2C    basis set group =>   2
Atom   3H    basis set group =>   3
Atom   4H    basis set group =>   3
Atom   5H    basis set group =>   3
Atom   6H    basis set group =>   3
---------------------------------
AUXILIARY/J BASIS SET INFORMATION
---------------------------------
There are 3 groups of distinct atoms

 Group   1 Type O   : 12s5p4d2f1g contracted to 6s4p3d1f1g pattern {711111/2111/211/2/1}
 Group   2 Type C   : 12s5p4d2f1g contracted to 6s4p3d1f1g pattern {711111/2111/211/2/1}
 Group   3 Type H   : 5s2p1d contracted to 3s1p1d pattern {311/2/1}

Atom   0O    basis set group =>   1
Atom   1C    basis set group =>   2
Atom   2C    basis set group =>   2
Atom   3H    basis set group =>   3
Atom   4H    basis set group =>   3
Atom   5H    basis set group =>   3
Atom   6H    basis set group =>   3
[1741610977.542775] [ohm:3461477:0]        ib_iface.c:1059 UCX  ERROR ibv_create_cq(cqe=256) failed: Connection timed out
[1741610977.570976] [ohm:3461476:0]        ib_iface.c:1059 UCX  ERROR ibv_create_cq(cqe=256) failed: Connection timed out
[1741610977.571256] [ohm:3461474:0]        ib_iface.c:1059 UCX  ERROR ibv_create_cq(cqe=256) failed: Connection timed out
[1741610977.593581] [ohm:3461475:0]        ib_iface.c:1059 UCX  ERROR ibv_create_cq(cqe=256) failed: Connection timed out
[1741610977.602935] [ohm:3461473:0]        ib_iface.c:1059 UCX  ERROR ibv_create_cq(cqe=256) failed: Connection timed out
[1741610977.645355] [ohm:3461481:0]        ib_iface.c:1059 UCX  ERROR ibv_create_cq(cqe=256) failed: Connection timed out
[1741610977.647547] [ohm:3461479:0]        ib_iface.c:1059 UCX  ERROR ibv_create_cq(cqe=256) failed: Connection timed out
[1741610977.648545] [ohm:3461480:0]        ib_iface.c:1059 UCX  ERROR ibv_create_cq(cqe=256) failed: Connection timed out
[1741610977.648569] [ohm:3461514:0]        ib_iface.c:1059 UCX  ERROR ibv_create_cq(cqe=256) failed: Connection timed out
[1741610977.655280] [ohm:3461496:0]        ib_iface.c:1059 UCX  ERROR ibv_create_cq(cqe=256) failed: Connection timed out
[1741610977.655729] [ohm:3461497:0]        ib_iface.c:1059 UCX  ERROR ibv_create_cq(cqe=256) failed: Connection timed out
[1741610977.658942] [ohm:3461495:0]        ib_iface.c:1059 UCX  ERROR ibv_create_cq(cqe=256) failed: Connection timed out
[1741610977.659596] [ohm:3461482:0]        ib_iface.c:1059 UCX  ERROR ibv_create_cq(cqe=256) failed: Connection timed out
[1741610977.661181] [ohm:3461503:0]        ib_iface.c:1059 UCX  ERROR ibv_create_cq(cqe=256) failed: Connection timed out
[1741610977.707750] [ohm:3461591:0]        ib_iface.c:1059 UCX  ERROR ibv_create_cq(cqe=256) failed: Connection timed out
[1741610977.745380] [ohm:3461579:0]        ib_iface.c:1059 UCX  ERROR ibv_create_cq(cqe=256) failed: Connection timed out
[1741610977.747026] [ohm:3461583:0]        ib_iface.c:1059 UCX  ERROR ibv_create_cq(cqe=256) failed: Connection timed out
[1741610977.750992] [ohm:3461506:0]        ib_iface.c:1059 UCX  ERROR ibv_create_cq(cqe=256) failed: Connection timed out
[1741610977.753113] [ohm:3461494:0]        ib_iface.c:1059 UCX  ERROR ibv_create_cq(cqe=256) failed: Connection timed out
[1741610977.760147] [ohm:3461532:0]        ib_iface.c:1059 UCX  ERROR ibv_create_cq(cqe=256) failed: Connection timed out
[1741610977.763728] [ohm:3461614:0]        ib_iface.c:1059 UCX  ERROR ibv_create_cq(cqe=256) failed: Connection timed out
[1741610977.770240] [ohm:3461493:0]        ib_iface.c:1059 UCX  ERROR ibv_create_cq(cqe=256) failed: Connection timed out
[1741610977.772310] [ohm:3461613:0]        ib_iface.c:1059 UCX  ERROR ibv_create_cq(cqe=256) failed: Connection timed out
[1741610977.776941] [ohm:3461524:0]        ib_iface.c:1059 UCX  ERROR ibv_create_cq(cqe=256) failed: Connection timed out
[1741610977.777291] [ohm:3461478:0]        ib_iface.c:1059 UCX  ERROR ibv_create_cq(cqe=256) failed: Connection timed out
[1741610977.778320] [ohm:3461596:0]        ib_iface.c:1059 UCX  ERROR ibv_create_cq(cqe=256) failed: Connection timed out
[1741610977.778295] [ohm:3461574:0]        ib_iface.c:1059 UCX  ERROR ibv_create_cq(cqe=256) failed: Connection timed out
[1741610977.778389] [ohm:3461586:0]        ib_iface.c:1059 UCX  ERROR ibv_create_cq(cqe=256) failed: Connection timed out
[1741610977.782722] [ohm:3461483:0]        ib_iface.c:1059 UCX  ERROR ibv_create_cq(cqe=256) failed: Connection timed out
[1741610977.789080] [ohm:3461548:0]        ib_iface.c:1059 UCX  ERROR ibv_create_cq(cqe=256) failed: Connection timed out
[1741610977.790785] [ohm:3461565:0]        ib_iface.c:1059 UCX  ERROR ibv_create_cq(cqe=256) failed: Connection timed out
[1741610977.794508] [ohm:3461522:0]        ib_iface.c:1059 UCX  ERROR ibv_create_cq(cqe=256) failed: Connection timed out
[1741610977.803104] [ohm:3461594:0]        ib_iface.c:1059 UCX  ERROR ibv_create_cq(cqe=256) failed: Connection timed out
[1741610977.808683] [ohm:3461542:0]        ib_iface.c:1059 UCX  ERROR ibv_create_cq(cqe=256) failed: Connection timed out
[1741610977.829786] [ohm:3461597:0]        ib_iface.c:1059 UCX  ERROR ibv_create_cq(cqe=256) failed: Connection timed out
[1741610977.830225] [ohm:3461525:0]        ib_iface.c:1059 UCX  ERROR ibv_create_cq(cqe=256) failed: Connection timed out
[1741610977.832522] [ohm:3461500:0]        ib_iface.c:1059 UCX  ERROR ibv_create_cq(cqe=256) failed: Connection timed out
[1741610977.837080] [ohm:3461603:0]        ib_iface.c:1059 UCX  ERROR ibv_create_cq(cqe=256) failed: Connection timed out
[1741610977.842444] [ohm:3461521:0]        ib_iface.c:1059 UCX  ERROR ibv_create_cq(cqe=256) failed: Connection timed out
[1741610977.850717] [ohm:3461520:0]        ib_iface.c:1059 UCX  ERROR ibv_create_cq(cqe=256) failed: Connection timed out
[1741610977.858528] [ohm:3461528:0]        ib_iface.c:1059 UCX  ERROR ibv_create_cq(cqe=256) failed: Connection timed out
[1741610977.861448] [ohm:3461592:0]        ib_iface.c:1059 UCX  ERROR ibv_create_cq(cqe=256) failed: Connection timed out
[1741610977.867447] [ohm:3461526:0]        ib_iface.c:1059 UCX  ERROR ibv_create_cq(cqe=256) failed: Connection timed out
[1741610977.875933] [ohm:3461523:0]        ib_iface.c:1059 UCX  ERROR ibv_create_cq(cqe=256) failed: Connection timed out
[1741610977.876077] [ohm:3461545:0]        ib_iface.c:1059 UCX  ERROR ibv_create_cq(cqe=256) failed: Connection timed out
[1741610977.877113] [ohm:3461553:0]        ib_iface.c:1059 UCX  ERROR ibv_create_cq(cqe=256) failed: Connection timed out
[1741610977.881050] [ohm:3461580:0]        ib_iface.c:1059 UCX  ERROR ibv_create_cq(cqe=256) failed: Connection timed out
[1741610977.883188] [ohm:3461619:0]        ib_iface.c:1059 UCX  ERROR ibv_create_cq(cqe=256) failed: Connection timed out
[1741610977.902406] [ohm:3461517:0]        ib_iface.c:1059 UCX  ERROR ibv_create_cq(cqe=256) failed: Connection timed out
[1741610977.910318] [ohm:3461572:0]        ib_iface.c:1059 UCX  ERROR ibv_create_cq(cqe=256) failed: Connection timed out
[1741610977.910407] [ohm:3461610:0]        ib_iface.c:1059 UCX  ERROR ibv_create_cq(cqe=256) failed: Connection timed out
[1741610977.911704] [ohm:3461604:0]        ib_iface.c:1059 UCX  ERROR ibv_create_cq(cqe=256) failed: Connection timed out
[1741610977.914822] [ohm:3461498:0]        ib_iface.c:1059 UCX  ERROR ibv_create_cq(cqe=256) failed: Connection timed out
[1741610977.916943] [ohm:3461562:0]        ib_iface.c:1059 UCX  ERROR ibv_create_cq(cqe=256) failed: Connection timed out
[1741610977.917087] [ohm:3461529:0]        ib_iface.c:1059 UCX  ERROR ibv_create_cq(cqe=256) failed: Connection timed out
[1741610977.921307] [ohm:3461492:0]        ib_iface.c:1059 UCX  ERROR ibv_create_cq(cqe=256) failed: Connection timed out
[1741610977.921868] [ohm:3461511:0]        ib_iface.c:1059 UCX  ERROR ibv_create_cq(cqe=256) failed: Connection timed out
[1741610977.921868] [ohm:3461566:0]        ib_iface.c:1059 UCX  ERROR ibv_create_cq(cqe=256) failed: Connection timed out
[1741610977.922857] [ohm:3461558:0]        ib_iface.c:1059 UCX  ERROR ibv_create_cq(cqe=256) failed: Connection timed out
[1741610977.922854] [ohm:3461527:0]        ib_iface.c:1059 UCX  ERROR ibv_create_cq(cqe=256) failed: Connection timed out
[1741610977.923281] [ohm:3461534:0]        ib_iface.c:1059 UCX  ERROR ibv_create_cq(cqe=256) failed: Connection timed out
[1741610977.924781] [ohm:3461535:0]        ib_iface.c:1059 UCX  ERROR ibv_create_cq(cqe=256) failed: Connection timed out
[1741610977.924821] [ohm:3461499:0]        ib_iface.c:1059 UCX  ERROR ibv_create_cq(cqe=256) failed: Connection timed out
[1741610977.926260] [ohm:3461530:0]        ib_iface.c:1059 UCX  ERROR ibv_create_cq(cqe=256) failed: Connection timed out


           ************************************************************
           *        Program running with 64 parallel MPI-processes    *
           *              working on a common directory               *
           ************************************************************
------------------------------------------------------------------------------
                             ORCA STARTUP CALCULATIONS
                           -- RI-GTO INTEGRALS CHOSEN --
------------------------------------------------------------------------------
------------------------------------------------------------------------------
                   ___                                                        
                  /   \      - P O W E R E D   B Y -                         
                 /     \                                                     
                 |  |  |   _    _      __       _____    __    __             
                 |  |  |  | |  | |    /  \     |  _  \  |  |  /  |          
                  \  \/   | |  | |   /    \    | | | |  |  | /  /          
                 / \  \   | |__| |  /  /\  \   | |_| |  |  |/  /          
                |  |  |   |  __  | /  /__\  \  |    /   |      \           
                |  |  |   | |  | | |   __   |  |    \   |  |\   \          
                \     /   | |  | | |  |  |  |  | |\  \  |  | \   \       
                 \___/    |_|  |_| |__|  |__|  |_| \__\ |__|  \__/        
                                                                              
                      - O R C A' S   B I G   F R I E N D -                    
                                      &                                       
                       - I N T E G R A L  F E E D E R -                       
                                                                              
 v1 FN, 2020, v2 2021, v3 2022-2024                                           
------------------------------------------------------------------------------


----------------------
SHARK INTEGRAL PACKAGE
----------------------

Number of atoms                             ...      7
Number of basis functions                   ...    182
Number of shells                            ...     68
Maximum angular momentum                    ...      3
Integral batch strategy                     ... SHARK/LIBINT Hybrid
RI-J (if used) integral strategy            ... SPLIT-RIJ (Revised 2003 algorithm where possible)
Printlevel                                  ...      1
Contraction scheme used                     ... SEGMENTED contraction
Prescreening option                         ... SCHWARTZ
   Thresh                                   ... 2.500e-11
   Tcut                                     ... 2.500e-12
   Tpresel                                  ... 2.500e-12 
Coulomb Range Separation                    ... NOT USED
Exchange Range Separation                   ... Long Range
   Mu parameter                             ... 3.000e-01
   Scaling (regular/separated)              ... 1.500e-01 8.500e-01
Multipole approximations                    ... NOT USED
Finite Nucleus Model                        ... NOT USED
CABS basis                                  ... NOT available
Auxiliary Coulomb fitting basis             ... AVAILABLE
   # of basis functions in Aux-J            ...    191
   # of shells in Aux-J                     ...     65
   Maximum angular momentum in Aux-J        ...      4
Auxiliary J/K fitting basis                 ... NOT available
Auxiliary Correlation fitting basis         ... NOT available
Auxiliary 'external' fitting basis          ... NOT available

Checking pre-screening integrals            ... done (  0.0 sec) Dimension = 68
Check shell pair data                       ... done (  0.0 sec)
Shell pair information
Shell pair cut-off parameter TPreSel        ...   2.5e-12
Total number of shell pairs                 ...      2346
Shell pairs after pre-screening             ...      2328
Total number of primitive shell pairs       ...      5434
Primitive shell pairs kept                  ...      4819
          la=0 lb=0:    455 shell pairs
          la=1 lb=0:    655 shell pairs
          la=1 lb=1:    253 shell pairs
          la=2 lb=0:    387 shell pairs
          la=2 lb=1:    286 shell pairs
          la=2 lb=2:     91 shell pairs
          la=3 lb=0:     90 shell pairs
          la=3 lb=1:     66 shell pairs
          la=3 lb=2:     39 shell pairs
          la=3 lb=3:      6 shell pairs

Calculating one electron integrals          ... done (  0.0 sec)
Calculating RI/J V-Matrix + Cholesky decomp.... done (  0.0 sec)
Calculating Nuclear repulsion               ... done (  0.0 sec) ENN=     68.133587961392 Eh

Diagonalization of the overlap matrix:
Smallest eigenvalue                        ... 1.876e-05
Time for diagonalization                   ...    0.004 sec
Threshold for overlap eigenvalues          ... 1.000e-07
Number of eigenvalues below threshold      ... 0
Time for construction of square roots      ...    0.007 sec
Total time needed                          ...    0.012 sec

-------------------
DFT GRID GENERATION
-------------------

General Integration Accuracy     IntAcc      ... 4.388
Radial Grid Type                 RadialGrid  ... OptM3 with GC (2021)
Angular Grid (max. ang.)         AngularGrid ... 4 (Lebedev-302)
Angular grid pruning method      GridPruning ... 4 (adaptive)
Weight generation scheme         WeightScheme... mBecke (2022)
Basis function cutoff            BFCut       ... 1.0000e-11
Integration weight cutoff        WCut        ... 1.0000e-14
Partially contracted basis set               ... off
Rotationally invariant grid construction     ... off
Angular grids for H and He will be reduced by one unit
Diffuse basis detected: some atoms will have their outermost
                        angular grid increased by 1.

Total number of grid points                  ...    33144
Total number of batches                      ...      522
Average number of points per batch           ...       63
Average number of grid points per atom       ...     4735

--------------------
COSX GRID GENERATION
--------------------

GRIDX 1
-------
General Integration Accuracy     IntAcc      ... 3.816
Radial Grid Type                 RadialGrid  ... OptM3 with GC (2021)
Angular Grid (max. ang.)         AngularGrid ... 1 (Lebedev-50)
Angular grid pruning method      GridPruning ... 4 (adaptive)
Weight generation scheme         WeightScheme... mBecke (2022)
Basis function cutoff            BFCut       ... 1.0000e-11
Integration weight cutoff        WCut        ... 1.0000e-14
Partially contracted basis set               ... on
Rotationally invariant grid construction     ... off
Angular grids for H and He will be reduced by one unit
Diffuse basis detected: some atoms will have their outermost
                        angular grid increased by 1.

Total number of grid points                  ...     4174
Total number of batches                      ...       36
Average number of points per batch           ...      115
Average number of grid points per atom       ...      596
UseSFitting                                  ... on

GRIDX 2
-------
General Integration Accuracy     IntAcc      ... 4.020
Radial Grid Type                 RadialGrid  ... OptM3 with GC (2021)
Angular Grid (max. ang.)         AngularGrid ... 2 (Lebedev-110)
Angular grid pruning method      GridPruning ... 4 (adaptive)
Weight generation scheme         WeightScheme... mBecke (2022)
Basis function cutoff            BFCut       ... 1.0000e-11
Integration weight cutoff        WCut        ... 1.0000e-14
Partially contracted basis set               ... on
Rotationally invariant grid construction     ... off
Angular grids for H and He will be reduced by one unit
Diffuse basis detected: some atoms will have their outermost
                        angular grid increased by 1.

Total number of grid points                  ...    10288
Total number of batches                      ...       84
Average number of points per batch           ...      122
Average number of grid points per atom       ...     1470
UseSFitting                                  ... on

GRIDX 3
-------
General Integration Accuracy     IntAcc      ... 4.338
Radial Grid Type                 RadialGrid  ... OptM3 with GC (2021)
Angular Grid (max. ang.)         AngularGrid ... 3 (Lebedev-194)
Angular grid pruning method      GridPruning ... 4 (adaptive)
Weight generation scheme         WeightScheme... mBecke (2022)
Basis function cutoff            BFCut       ... 1.0000e-11
Integration weight cutoff        WCut        ... 1.0000e-14
Partially contracted basis set               ... on
Rotationally invariant grid construction     ... off
Angular grids for H and He will be reduced by one unit
Diffuse basis detected: some atoms will have their outermost
                        angular grid increased by 1.

Total number of grid points                  ...    23136
Total number of batches                      ...      184
Average number of points per batch           ...      125
Average number of grid points per atom       ...     3305
UseSFitting                                  ... on
Initializing property integral containers    ... done (  0.0 sec)

SHARK setup successfully completed in   0.4 seconds

Maximum memory used throughout the entire STARTUP-calculation: 13.8 MB
[1741610979.851818] [ohm:3461803:0]        ib_iface.c:1059 UCX  ERROR ibv_create_cq(cqe=256) failed: Connection timed out
[1741610979.867418] [ohm:3461800:0]        ib_iface.c:1059 UCX  ERROR ibv_create_cq(cqe=256) failed: Connection timed out
[1741610979.873760] [ohm:3461802:0]        ib_iface.c:1059 UCX  ERROR ibv_create_cq(cqe=256) failed: Connection timed out
[1741610979.942713] [ohm:3461801:0]        ib_iface.c:1059 UCX  ERROR ibv_create_cq(cqe=256) failed: Connection timed out
[1741610979.955024] [ohm:3461824:0]        ib_iface.c:1059 UCX  ERROR ibv_create_cq(cqe=256) failed: Connection timed out
[1741610979.958306] [ohm:3461823:0]        ib_iface.c:1059 UCX  ERROR ibv_create_cq(cqe=256) failed: Connection timed out
[1741610979.965320] [ohm:3461810:0]        ib_iface.c:1059 UCX  ERROR ibv_create_cq(cqe=256) failed: Connection timed out
[1741610979.967360] [ohm:3461809:0]        ib_iface.c:1059 UCX  ERROR ibv_create_cq(cqe=256) failed: Connection timed out
[1741610979.967952] [ohm:3461808:0]        ib_iface.c:1059 UCX  ERROR ibv_create_cq(cqe=256) failed: Connection timed out
[1741610979.997087] [ohm:3461805:0]        ib_iface.c:1059 UCX  ERROR ibv_create_cq(cqe=256) failed: Connection timed out
[1741610980.004733] [ohm:3461825:0]        ib_iface.c:1059 UCX  ERROR ibv_create_cq(cqe=256) failed: Connection timed out
[1741610980.009825] [ohm:3461807:0]        ib_iface.c:1059 UCX  ERROR ibv_create_cq(cqe=256) failed: Connection timed out
[1741610980.017110] [ohm:3461822:0]        ib_iface.c:1059 UCX  ERROR ibv_create_cq(cqe=256) failed: Connection timed out
[1741610980.020517] [ohm:3461834:0]        ib_iface.c:1059 UCX  ERROR ibv_create_cq(cqe=256) failed: Connection timed out
[1741610980.032414] [ohm:3461827:0]        ib_iface.c:1059 UCX  ERROR ibv_create_cq(cqe=256) failed: Connection timed out
[1741610980.044808] [ohm:3461830:0]        ib_iface.c:1059 UCX  ERROR ibv_create_cq(cqe=256) failed: Connection timed out
[1741610980.045110] [ohm:3461829:0]        ib_iface.c:1059 UCX  ERROR ibv_create_cq(cqe=256) failed: Connection timed out
[1741610980.045169] [ohm:3461853:0]        ib_iface.c:1059 UCX  ERROR ibv_create_cq(cqe=256) failed: Connection timed out
[1741610980.093245] [ohm:3461855:0]        ib_iface.c:1059 UCX  ERROR ibv_create_cq(cqe=256) failed: Connection timed out
[1741610980.094387] [ohm:3461958:0]        ib_iface.c:1059 UCX  ERROR ibv_create_cq(cqe=256) failed: Connection timed out
[1741610980.102073] [ohm:3461856:0]        ib_iface.c:1059 UCX  ERROR ibv_create_cq(cqe=256) failed: Connection timed out
[1741610980.107765] [ohm:3461828:0]        ib_iface.c:1059 UCX  ERROR ibv_create_cq(cqe=256) failed: Connection timed out
[1741610980.110790] [ohm:3461848:0]        ib_iface.c:1059 UCX  ERROR ibv_create_cq(cqe=256) failed: Connection timed out
[1741610980.124778] [ohm:3461852:0]        ib_iface.c:1059 UCX  ERROR ibv_create_cq(cqe=256) failed: Connection timed out
[1741610980.133578] [ohm:3461866:0]        ib_iface.c:1059 UCX  ERROR ibv_create_cq(cqe=256) failed: Connection timed out
[1741610980.136310] [ohm:3461859:0]        ib_iface.c:1059 UCX  ERROR ibv_create_cq(cqe=256) failed: Connection timed out
[1741610980.137636] [ohm:3461906:0]        ib_iface.c:1059 UCX  ERROR ibv_create_cq(cqe=256) failed: Connection timed out
[1741610980.137749] [ohm:3461854:0]        ib_iface.c:1059 UCX  ERROR ibv_create_cq(cqe=256) failed: Connection timed out
[1741610980.146870] [ohm:3461933:0]        ib_iface.c:1059 UCX  ERROR ibv_create_cq(cqe=256) failed: Connection timed out
[1741610980.148457] [ohm:3461844:0]        ib_iface.c:1059 UCX  ERROR ibv_create_cq(cqe=256) failed: Connection timed out
[1741610980.150362] [ohm:3461851:0]        ib_iface.c:1059 UCX  ERROR ibv_create_cq(cqe=256) failed: Connection timed out
[1741610980.152216] [ohm:3461937:0]        ib_iface.c:1059 UCX  ERROR ibv_create_cq(cqe=256) failed: Connection timed out
[1741610980.154235] [ohm:3461873:0]        ib_iface.c:1059 UCX  ERROR ibv_create_cq(cqe=256) failed: Connection timed out
[1741610980.155080] [ohm:3461837:0]        ib_iface.c:1059 UCX  ERROR ibv_create_cq(cqe=256) failed: Connection timed out
[1741610980.156888] [ohm:3461857:0]        ib_iface.c:1059 UCX  ERROR ibv_create_cq(cqe=256) failed: Connection timed out
[1741610980.162386] [ohm:3461922:0]        ib_iface.c:1059 UCX  ERROR ibv_create_cq(cqe=256) failed: Connection timed out
[1741610980.167830] [ohm:3461888:0]        ib_iface.c:1059 UCX  ERROR ibv_create_cq(cqe=256) failed: Connection timed out
[1741610980.175793] [ohm:3461826:0]        ib_iface.c:1059 UCX  ERROR ibv_create_cq(cqe=256) failed: Connection timed out
[1741610980.182663] [ohm:3461864:0]        ib_iface.c:1059 UCX  ERROR ibv_create_cq(cqe=256) failed: Connection timed out
[1741610980.183907] [ohm:3461918:0]        ib_iface.c:1059 UCX  ERROR ibv_create_cq(cqe=256) failed: Connection timed out
[1741610980.186696] [ohm:3461858:0]        ib_iface.c:1059 UCX  ERROR ibv_create_cq(cqe=256) failed: Connection timed out
[1741610980.186684] [ohm:3461870:0]        ib_iface.c:1059 UCX  ERROR ibv_create_cq(cqe=256) failed: Connection timed out
[1741610980.199442] [ohm:3461804:0]        ib_iface.c:1059 UCX  ERROR ibv_create_cq(cqe=256) failed: Connection timed out
[1741610980.199691] [ohm:3461899:0]        ib_iface.c:1059 UCX  ERROR ibv_create_cq(cqe=256) failed: Connection timed out
[1741610980.205154] [ohm:3461861:0]        ib_iface.c:1059 UCX  ERROR ibv_create_cq(cqe=256) failed: Connection timed out
[1741610980.212621] [ohm:3461840:0]        ib_iface.c:1059 UCX  ERROR ibv_create_cq(cqe=256) failed: Connection timed out
[1741610980.214454] [ohm:3461831:0]        ib_iface.c:1059 UCX  ERROR ibv_create_cq(cqe=256) failed: Connection timed out
[1741610980.226013] [ohm:3461934:0]        ib_iface.c:1059 UCX  ERROR ibv_create_cq(cqe=256) failed: Connection timed out
[1741610980.231160] [ohm:3461904:0]        ib_iface.c:1059 UCX  ERROR ibv_create_cq(cqe=256) failed: Connection timed out
[1741610980.232977] [ohm:3461913:0]        ib_iface.c:1059 UCX  ERROR ibv_create_cq(cqe=256) failed: Connection timed out
[1741610980.233784] [ohm:3461879:0]        ib_iface.c:1059 UCX  ERROR ibv_create_cq(cqe=256) failed: Connection timed out
[1741610980.235880] [ohm:3461926:0]        ib_iface.c:1059 UCX  ERROR ibv_create_cq(cqe=256) failed: Connection timed out
[1741610980.243508] [ohm:3461860:0]        ib_iface.c:1059 UCX  ERROR ibv_create_cq(cqe=256) failed: Connection timed out
[1741610980.245872] [ohm:3461878:0]        ib_iface.c:1059 UCX  ERROR ibv_create_cq(cqe=256) failed: Connection timed out
[1741610980.249961] [ohm:3461945:0]        ib_iface.c:1059 UCX  ERROR ibv_create_cq(cqe=256) failed: Connection timed out
[1741610980.250946] [ohm:3461896:0]        ib_iface.c:1059 UCX  ERROR ibv_create_cq(cqe=256) failed: Connection timed out
[1741610980.250934] [ohm:3461910:0]        ib_iface.c:1059 UCX  ERROR ibv_create_cq(cqe=256) failed: Connection timed out
[1741610980.251735] [ohm:3461806:0]        ib_iface.c:1059 UCX  ERROR ibv_create_cq(cqe=256) failed: Connection timed out
[1741610980.251861] [ohm:3461944:0]        ib_iface.c:1059 UCX  ERROR ibv_create_cq(cqe=256) failed: Connection timed out
[1741610980.251942] [ohm:3461939:0]        ib_iface.c:1059 UCX  ERROR ibv_create_cq(cqe=256) failed: Connection timed out
[1741610980.252609] [ohm:3461951:0]        ib_iface.c:1059 UCX  ERROR ibv_create_cq(cqe=256) failed: Connection timed out
[1741610980.252934] [ohm:3461928:0]        ib_iface.c:1059 UCX  ERROR ibv_create_cq(cqe=256) failed: Connection timed out
[1741610980.253664] [ohm:3461886:0]        ib_iface.c:1059 UCX  ERROR ibv_create_cq(cqe=256) failed: Connection timed out
[1741610980.254253] [ohm:3461893:0]        ib_iface.c:1059 UCX  ERROR ibv_create_cq(cqe=256) failed: Connection timed out


           ************************************************************
           *        Program running with 64 parallel MPI-processes    *
           *              working on a common directory               *
           ************************************************************
-------------------------------------------------------------------------------
                                 ORCA GUESS
                   Start orbitals & Density for SCF / CASSCF
-------------------------------------------------------------------------------

------------
SCF SETTINGS
------------
Hamiltonian:
 Density Functional     Method          .... DFT(GTOs)
  Functional kind                       .... Exchange-Correlation
  Functional name                       .... wB97M-V exchange-correlation functional
  Functional family                     .... Hybrid MGGA
  Functional refs                              
    [ 0] N. Mardirossian and M. Head-Gordon.,  J. Chem. Phys. 144, 214110 (2016), doi: 10.1063/1.4952647
  Fraction of HF Exchange (short range) .... 0.1500
  Fraction of HF Exchange (long range)  .... 1.0000
  Range separation parameter mu         .... 0.3000
  Functional external parameters        .... 17
    Parameter  0 _cx00      =  8.500000e-01 : u^00 coefficient for exchange
    Parameter  1 _cx01      =  1.007000e+00 : u^01 coefficient for exchange
    Parameter  2 _cx10      =  2.590000e-01 : u^10 coefficient for exchange
    Parameter  3 _css00     =  4.430000e-01 : u^00 coefficient for same-spin correlation
    Parameter  4 _css04     = -1.437000e+00 : u^04 coefficient for same-spin correlation
    Parameter  5 _css10     = -4.535000e+00 : u^10 coefficient for same-spin correlation
    Parameter  6 _css20     = -3.390000e+00 : u^20 coefficient for same-spin correlation
    Parameter  7 _css43     =  4.278000e+00 : u^43 coefficient for same-spin correlation
    Parameter  8 _cos00     =  1.000000e+00 : u^00 coefficient for opposite-spin correlation
    Parameter  9 _cos10     =  1.358000e+00 : u^10 coefficient for opposite-spin correlation
    Parameter 10 _cos20     =  2.924000e+00 : u^20 coefficient for opposite-spin correlation
    Parameter 11 _cos21     = -8.812000e+00 : u^21 coefficient for opposite-spin correlation
    Parameter 12 _cos60     = -1.390000e+00 : u^60 coefficient for opposite-spin correlation
    Parameter 13 _cos61     =  9.142000e+00 : u^61 coefficient for opposite-spin correlation
    Parameter 14 _alpha     =  1.000000e+00 : fraction of HF exchange
    Parameter 15 _beta      = -8.500000e-01 : fraction of short-range exchange
    Parameter 16 _omega     =  3.000000e-01 : range-separation constant
 Long-range corrected/Screened/Range-Separated Hybrid DFT is turned on
   Amount of maximum screened exact exchange              ....  0.850000
   Range separation parameter mu (erf(mu*r12)/r12)        ....  0.300000
 RI-approximation to the Coulomb term is turned on
   Number of AuxJ basis functions       .... 191
   RIJ-COSX (HFX calculated with COS-X)).... on


General Settings:
 Integral files         IntName         .... orca
 Hartree-Fock type      HFTyp           .... UHF
 Total Charge           Charge          ....    0
 Multiplicity           Mult            ....    3
 Number of Electrons    NEL             ....   24
 Basis Dimension        Dim             ....  182
 Nuclear Repulsion      ENuc            ....     68.1335879614 Eh

Convergence Acceleration:
 AO-DIIS                CNVDIIS         .... on
   Start iteration      DIISMaxIt       ....    12
   Startup error        DIISStart       ....  0.200000
   # of expansion vecs  DIISMaxEq       ....     5
   Bias factor          DIISBfac        ....   1.050
   Max. coefficient     DIISMaxC        ....  10.000
 MO-DIIS                CNVKDIIS        .... off
 Trust-Rad. Augm. Hess. CNVTRAH         .... auto
   Auto Start mean grad. ratio tolernc. ....  1.125000
   Auto Start start iteration           ....    50
   Auto Start num. interpolation iter.  ....    10
   Max. Number of Micro iterations      ....    24
   Max. Number of Macro iterations      .... Maxiter - #DIIS iter
   Number of Davidson start vectors     ....     2
   Converg. threshold    (grad. norm)   ....   1.000e-05
   Grad. Scal. Fac. for Micro threshold ....   0.100
   Minimum threshold for Micro iter.    ....   1.000e-02
   NR start threshold (gradient norm)   ....   1.000e-04
   Initial trust radius                 ....   0.400
   Minimum AH scaling param. (alpha)    ....   1.000
   Maximum AH scaling param. (alpha)    .... 1000.000
   Quad. conv. algorithm                .... NR
   White noise on init. David. guess    .... on
   Maximum white noise                  ....   0.010
   Pseudo random numbers                .... off
   Inactive MOs                         .... canonical
   Orbital update algorithm             .... Taylor
   Preconditioner                       .... Diag
   Full preconditioner red. dimension   ....   250
 SOSCF                  CNVSOSCF        .... on
   Start iteration      SOSCFMaxIt      ....   150
   Startup grad/error   SOSCFStart      ....  0.003300
   Hessian update       SOSCFHessUp     .... L-BFGS
 Level Shifting         CNVShift        .... on
   Level shift para.    LevelShift      ....    0.2500
   Turn off err/grad.   ShiftErr        ....    0.0010
 Zerner damping         CNVZerner       .... off
 Static damping         CNVDamp         .... on
   Fraction old density DampFac         ....    0.7000
   Max. Damping (<1)    DampMax         ....    0.9800
   Min. Damping (>=0)   DampMin         ....    0.0000
   Turn off err/grad.   DampErr         ....    0.1000

SCF Procedure:
 Maximum # iterations   MaxIter         ....   125
 SCF integral mode      SCFMode         .... Direct
   Integral package                     .... SHARK and LIBINT hybrid scheme
 Reset frequency        DirectResetFreq ....    20
 Integral Threshold     Thresh          ....  2.500e-11 Eh
 Primitive CutOff       TCut            ....  2.500e-12 Eh

Convergence Tolerance:
 Convergence Check Mode ConvCheckMode   .... Total+1el-Energy
 Convergence forced     ConvForced      .... 1
 Energy Change          TolE            ....  1.000e-08 Eh
 1-El. energy change                    ....  1.000e-05 Eh
 Orbital Gradient       TolG            ....  1.000e-05
 Orbital Rotation angle TolX            ....  1.000e-05
 DIIS Error             TolErr          ....  5.000e-07

------------------------------
INITIAL GUESS: MODEL POTENTIAL
------------------------------
Loading Hartree-Fock densities                     ... done
Calculating cut-offs                               ... done
Initializing the effective Hamiltonian             ... done
Setting up the integral package (SHARK)            ... done
Starting the Coulomb interaction                   ... done (   0.0 sec)
Making the grid                                    ... done (   0.0 sec)
Mapping shells                                     ... done
Starting the XC term evaluation                    ... done (   0.0 sec)
  promolecular density results
     # of electrons  =     23.998513848
     EX              =    -19.460169890
     EC              =     -0.765661300
     EX+EC           =    -20.225831190
Transforming the Hamiltonian                       ... done (   0.0 sec)
Diagonalizing the Hamiltonian                      ... done (   0.0 sec)
Back transforming the eigenvectors                 ... done (   0.0 sec)
Now organizing SCF variables                       ... done
                      ------------------
                      INITIAL GUESS DONE (   0.1 sec)
                      ------------------
             **** ENERGY FILE WAS UPDATED (orca.en.tmp) ****
Finished Guess after   1.7 sec
Maximum memory used throughout the entire GUESS-calculation: 9.5 MB
[1741610982.270485] [ohm:3462146:0]        ib_iface.c:1059 UCX  ERROR ibv_create_cq(cqe=256) failed: Connection timed out
[1741610982.276871] [ohm:3462147:0]        ib_iface.c:1059 UCX  ERROR ibv_create_cq(cqe=256) failed: Connection timed out
[1741610982.277295] [ohm:3462145:0]        ib_iface.c:1059 UCX  ERROR ibv_create_cq(cqe=256) failed: Connection timed out
[1741610982.279064] [ohm:3462152:0]        ib_iface.c:1059 UCX  ERROR ibv_create_cq(cqe=256) failed: Connection timed out
[1741610982.280502] [ohm:3462171:0]        ib_iface.c:1059 UCX  ERROR ibv_create_cq(cqe=256) failed: Connection timed out
[1741610982.282789] [ohm:3462150:0]        ib_iface.c:1059 UCX  ERROR ibv_create_cq(cqe=256) failed: Connection timed out
[1741610982.291865] [ohm:3462167:0]        ib_iface.c:1059 UCX  ERROR ibv_create_cq(cqe=256) failed: Connection timed out
[1741610982.295399] [ohm:3462155:0]        ib_iface.c:1059 UCX  ERROR ibv_create_cq(cqe=256) failed: Connection timed out
[1741610982.298817] [ohm:3462149:0]        ib_iface.c:1059 UCX  ERROR ibv_create_cq(cqe=256) failed: Connection timed out
[1741610982.303118] [ohm:3462144:0]        ib_iface.c:1059 UCX  ERROR ibv_create_cq(cqe=256) failed: Connection timed out
[1741610982.311739] [ohm:3462156:0]        ib_iface.c:1059 UCX  ERROR ibv_create_cq(cqe=256) failed: Connection timed out
[1741610982.314568] [ohm:3462157:0]        ib_iface.c:1059 UCX  ERROR ibv_create_cq(cqe=256) failed: Connection timed out
[1741610982.334077] [ohm:3462161:0]        ib_iface.c:1059 UCX  ERROR ibv_create_cq(cqe=256) failed: Connection timed out
[1741610982.355158] [ohm:3462153:0]        ib_iface.c:1059 UCX  ERROR ibv_create_cq(cqe=256) failed: Connection timed out
[1741610982.374423] [ohm:3462154:0]        ib_iface.c:1059 UCX  ERROR ibv_create_cq(cqe=256) failed: Connection timed out
[1741610982.400290] [ohm:3462274:0]        ib_iface.c:1059 UCX  ERROR ibv_create_cq(cqe=256) failed: Connection timed out
[1741610982.406715] [ohm:3462172:0]        ib_iface.c:1059 UCX  ERROR ibv_create_cq(cqe=256) failed: Connection timed out
[1741610982.409263] [ohm:3462285:0]        ib_iface.c:1059 UCX  ERROR ibv_create_cq(cqe=256) failed: Connection timed out
[1741610982.411249] [ohm:3462175:0]        ib_iface.c:1059 UCX  ERROR ibv_create_cq(cqe=256) failed: Connection timed out
[1741610982.416467] [ohm:3462238:0]        ib_iface.c:1059 UCX  ERROR ibv_create_cq(cqe=256) failed: Connection timed out
[1741610982.421145] [ohm:3462148:0]        ib_iface.c:1059 UCX  ERROR ibv_create_cq(cqe=256) failed: Connection timed out
[1741610982.422268] [ohm:3462162:0]        ib_iface.c:1059 UCX  ERROR ibv_create_cq(cqe=256) failed: Connection timed out
[1741610982.423694] [ohm:3462184:0]        ib_iface.c:1059 UCX  ERROR ibv_create_cq(cqe=256) failed: Connection timed out
[1741610982.428089] [ohm:3462269:0]        ib_iface.c:1059 UCX  ERROR ibv_create_cq(cqe=256) failed: Connection timed out
[1741610982.430176] [ohm:3462189:0]        ib_iface.c:1059 UCX  ERROR ibv_create_cq(cqe=256) failed: Connection timed out
[1741610982.434291] [ohm:3462278:0]        ib_iface.c:1059 UCX  ERROR ibv_create_cq(cqe=256) failed: Connection timed out
[1741610982.444464] [ohm:3462201:0]        ib_iface.c:1059 UCX  ERROR ibv_create_cq(cqe=256) failed: Connection timed out
[1741610982.444712] [ohm:3462264:0]        ib_iface.c:1059 UCX  ERROR ibv_create_cq(cqe=256) failed: Connection timed out
[1741610982.458808] [ohm:3462228:0]        ib_iface.c:1059 UCX  ERROR ibv_create_cq(cqe=256) failed: Connection timed out
[1741610982.466570] [ohm:3462182:0]        ib_iface.c:1059 UCX  ERROR ibv_create_cq(cqe=256) failed: Connection timed out
[1741610982.467337] [ohm:3462266:0]        ib_iface.c:1059 UCX  ERROR ibv_create_cq(cqe=256) failed: Connection timed out
[1741610982.481995] [ohm:3462241:0]        ib_iface.c:1059 UCX  ERROR ibv_create_cq(cqe=256) failed: Connection timed out
[1741610982.484522] [ohm:3462194:0]        ib_iface.c:1059 UCX  ERROR ibv_create_cq(cqe=256) failed: Connection timed out
[1741610982.495998] [ohm:3462211:0]        ib_iface.c:1059 UCX  ERROR ibv_create_cq(cqe=256) failed: Connection timed out
[1741610982.499515] [ohm:3462251:0]        ib_iface.c:1059 UCX  ERROR ibv_create_cq(cqe=256) failed: Connection timed out
[1741610982.499981] [ohm:3462286:0]        ib_iface.c:1059 UCX  ERROR ibv_create_cq(cqe=256) failed: Connection timed out
[1741610982.503556] [ohm:3462176:0]        ib_iface.c:1059 UCX  ERROR ibv_create_cq(cqe=256) failed: Connection timed out
[1741610982.504635] [ohm:3462249:0]        ib_iface.c:1059 UCX  ERROR ibv_create_cq(cqe=256) failed: Connection timed out
[1741610982.514389] [ohm:3462169:0]        ib_iface.c:1059 UCX  ERROR ibv_create_cq(cqe=256) failed: Connection timed out
[1741610982.520114] [ohm:3462163:0]        ib_iface.c:1059 UCX  ERROR ibv_create_cq(cqe=256) failed: Connection timed out
[1741610982.521433] [ohm:3462151:0]        ib_iface.c:1059 UCX  ERROR ibv_create_cq(cqe=256) failed: Connection timed out
[1741610982.527736] [ohm:3462225:0]        ib_iface.c:1059 UCX  ERROR ibv_create_cq(cqe=256) failed: Connection timed out
[1741610982.530049] [ohm:3462260:0]        ib_iface.c:1059 UCX  ERROR ibv_create_cq(cqe=256) failed: Connection timed out
[1741610982.540008] [ohm:3462170:0]        ib_iface.c:1059 UCX  ERROR ibv_create_cq(cqe=256) failed: Connection timed out
[1741610982.539988] [ohm:3462257:0]        ib_iface.c:1059 UCX  ERROR ibv_create_cq(cqe=256) failed: Connection timed out
[1741610982.554860] [ohm:3462174:0]        ib_iface.c:1059 UCX  ERROR ibv_create_cq(cqe=256) failed: Connection timed out
[1741610982.554836] [ohm:3462158:0]        ib_iface.c:1059 UCX  ERROR ibv_create_cq(cqe=256) failed: Connection timed out
[1741610982.556764] [ohm:3462159:0]        ib_iface.c:1059 UCX  ERROR ibv_create_cq(cqe=256) failed: Connection timed out
[1741610982.559653] [ohm:3462160:0]        ib_iface.c:1059 UCX  ERROR ibv_create_cq(cqe=256) failed: Connection timed out
[1741610982.561375] [ohm:3462272:0]        ib_iface.c:1059 UCX  ERROR ibv_create_cq(cqe=256) failed: Connection timed out
[1741610982.566794] [ohm:3462233:0]        ib_iface.c:1059 UCX  ERROR ibv_create_cq(cqe=256) failed: Connection timed out
[1741610982.570917] [ohm:3462168:0]        ib_iface.c:1059 UCX  ERROR ibv_create_cq(cqe=256) failed: Connection timed out
[1741610982.570928] [ohm:3462203:0]        ib_iface.c:1059 UCX  ERROR ibv_create_cq(cqe=256) failed: Connection timed out
[1741610982.572605] [ohm:3462164:0]        ib_iface.c:1059 UCX  ERROR ibv_create_cq(cqe=256) failed: Connection timed out
[1741610982.575160] [ohm:3462214:0]        ib_iface.c:1059 UCX  ERROR ibv_create_cq(cqe=256) failed: Connection timed out
[1741610982.575162] [ohm:3462165:0]        ib_iface.c:1059 UCX  ERROR ibv_create_cq(cqe=256) failed: Connection timed out
[1741610982.576887] [ohm:3462224:0]        ib_iface.c:1059 UCX  ERROR ibv_create_cq(cqe=256) failed: Connection timed out
[1741610982.580198] [ohm:3462231:0]        ib_iface.c:1059 UCX  ERROR ibv_create_cq(cqe=256) failed: Connection timed out
[1741610982.580448] [ohm:3462177:0]        ib_iface.c:1059 UCX  ERROR ibv_create_cq(cqe=256) failed: Connection timed out
[1741610982.580850] [ohm:3462173:0]        ib_iface.c:1059 UCX  ERROR ibv_create_cq(cqe=256) failed: Connection timed out
[1741610982.583060] [ohm:3462279:0]        ib_iface.c:1059 UCX  ERROR ibv_create_cq(cqe=256) failed: Connection timed out
[1741610982.583896] [ohm:3462256:0]        ib_iface.c:1059 UCX  ERROR ibv_create_cq(cqe=256) failed: Connection timed out
[1741610982.584837] [ohm:3462178:0]        ib_iface.c:1059 UCX  ERROR ibv_create_cq(cqe=256) failed: Connection timed out
[1741610982.584857] [ohm:3462166:0]        ib_iface.c:1059 UCX  ERROR ibv_create_cq(cqe=256) failed: Connection timed out


           ************************************************************
           *        Program running with 64 parallel MPI-processes    *
           *              working on a common directory               *
           ************************************************************

-------------------------------------------------------------------------------------------
                                      ORCA LEAN-SCF
                              memory conserving SCF solver
-------------------------------------------------------------------------------------------

----------------------------------------D-I-I-S--------------------------------------------
Iteration    Energy (Eh)           Delta-E    RMSDP     MaxDP     DIISErr   Damp  Time(sec)
-------------------------------------------------------------------------------------------
               ***  Starting incremental Fock matrix formation  ***
    1    -153.7029868446765022     0.00e+00  8.53e-04  2.31e-02  8.64e-02  0.700   0.3
    2    -153.7313184129190518    -2.83e-02  7.46e-04  2.07e-02  5.51e-02  0.700   0.3
                               ***Turning on AO-DIIS***
    3    -153.7467159560263781    -1.54e-02  6.07e-04  1.93e-02  3.52e-02  0.700   0.3
    4    -153.7563360410017026    -9.62e-03  1.54e-03  5.26e-02  2.88e-02  0.000   0.3
    5    -153.7793978327072750    -2.31e-02  1.73e-04  6.43e-03  1.09e-02  0.000   0.3
    6    -153.7801027430194267    -7.05e-04  1.14e-04  3.21e-03  5.79e-03  0.000   0.3
    7    -153.7804533536748295    -3.51e-04  6.73e-05  1.86e-03  4.49e-03  0.000   0.3
                              *** Initializing SOSCF ***
---------------------------------------S-O-S-C-F--------------------------------------
Iteration    Energy (Eh)           Delta-E    RMSDP     MaxDP     MaxGrad    Time(sec)
--------------------------------------------------------------------------------------
    8    -153.7806165528847373    -1.63e-04  3.84e-05  1.02e-03  1.99e-03     0.3
               *** Restarting incremental Fock matrix formation ***
    9    -153.7806733522207310    -5.68e-05  2.27e-05  6.82e-04  1.38e-03     0.3
   10    -153.7806900296770891    -1.67e-05  5.82e-05  2.17e-03  9.19e-04     0.3
   11    -153.7807103115828227    -2.03e-05  2.35e-05  1.06e-03  7.71e-04     0.3
   12    -153.7807198308389616    -9.52e-06  9.02e-05  4.67e-03  7.77e-04     0.2
   13    -153.7807501591741470    -3.03e-05  1.55e-04  8.22e-03  8.27e-04     0.3
   14    -153.7807892523776445    -3.91e-05  1.54e-04  7.83e-03  9.46e-04     0.3
   15    -153.7808193812125523    -3.01e-05  8.77e-05  3.72e-03  6.95e-04     0.3
   16    -153.7808328250025625    -1.34e-05  2.11e-05  6.99e-04  3.89e-04     0.3
   17    -153.7808352341820637    -2.41e-06  7.69e-06  3.60e-04  2.03e-04     0.3
   18    -153.7808356783778549    -4.44e-07  3.56e-06  1.25e-04  9.09e-05     0.2
   19    -153.7808357923219660    -1.14e-07  1.73e-06  4.92e-05  2.74e-05     0.2
   20    -153.7808358125865311    -2.03e-08  7.41e-07  3.27e-05  1.02e-05     0.2
   21    -153.7808358152225878    -2.64e-09  2.88e-07  8.90e-06  4.12e-06     0.2
                 **** Energy Check signals convergence ****

               *****************************************************
               *                     SUCCESS                       *
               *           SCF CONVERGED AFTER  21 CYCLES          *
               *****************************************************

Recomputing exchange energy using gridx3       ... done (    0.173 sec)
Old exchange energy                            :     -6.193831011 Eh
New exchange energy                            :     -6.193830853 Eh
Exchange energy change after final integration :      0.000000158 Eh
Total energy after final integration           :   -153.780835657 Eh
             **** ENERGY FILE WAS UPDATED (orca.en.tmp) ****

----------------
TOTAL SCF ENERGY
----------------

Total Energy       :       -153.78083565746471 Eh           -4184.58928 eV

Components:
Nuclear Repulsion  :         68.13358796139239 Eh            1854.00918 eV
Electronic Energy  :       -221.91442377661497 Eh           -6038.59847 eV
One Electron Energy:       -342.82052260236833 Eh           -9328.62068 eV
Two Electron Energy:        120.90609882575336 Eh            3290.02221 eV

Virial components:
Potential Energy   :       -307.04279386987093 Eh           -8355.05918 eV
Kinetic Energy     :        153.26195821240620 Eh            4170.46991 eV
Virial Ratio       :          2.00338555928105

DFT components:
N(Alpha)           :       12.999997847762 electrons
N(Beta)            :       10.999990174854 electrons
N(Total)           :       23.999988022617 electrons
E(XC)              :      -14.687496838046 Eh       

---------------
SCF CONVERGENCE
---------------

  Last Energy change         ...    2.6361e-09  Tolerance :   1.0000e-08
  Last MAX-Density change    ...    8.8956e-06  Tolerance :   1.0000e-07
  Last RMS-Density change    ...    2.8780e-07  Tolerance :   5.0000e-09
  Last DIIS Error            ...    1.9877e-03  Tolerance :   5.0000e-07
  Last Orbital Gradient      ...    4.1237e-06  Tolerance :   1.0000e-05
  Last Orbital Rotation      ...    4.5329e-05  Tolerance :   1.0000e-05


----------------------
UHF SPIN CONTAMINATION
----------------------

Warning: in a DFT calculation there is little theoretical justification to 
         calculate <S**2> as in Hartree-Fock theory. We will do it anyways
         but you should keep in mind that the values have only limited relevance

Expectation value of <S**2>     :     2.008517
Ideal value S*(S+1) for S=1.0   :     2.000000
Deviation                       :     0.008517

----------------
ORBITAL ENERGIES
----------------
                 SPIN UP ORBITALS
  NO   OCC          E(Eh)            E(eV) 
   0   1.0000     -19.387369      -527.5571 
   1   1.0000     -10.416358      -283.4435 
   2   1.0000     -10.368377      -282.1379 
   3   1.0000      -1.176017       -32.0010 
   4   1.0000      -0.880167       -23.9506 
   5   1.0000      -0.726318       -19.7641 
   6   1.0000      -0.617500       -16.8030 
   7   1.0000      -0.589073       -16.0295 
   8   1.0000      -0.555725       -15.1221 
   9   1.0000      -0.520611       -14.1665 
  10   1.0000      -0.434198       -11.8151 
  11   1.0000      -0.409928       -11.1547 
  12   1.0000      -0.325034        -8.8446 
  13   0.0000       0.040494         1.1019 
  14   0.0000       0.060884         1.6568 
  15   0.0000       0.076380         2.0784 
  16   0.0000       0.086847         2.3632 
  17   0.0000       0.113480         3.0880 
  18   0.0000       0.121157         3.2968 
  19   0.0000       0.129040         3.5113 
  20   0.0000       0.142427         3.8756 
  21   0.0000       0.179204         4.8764 
  22   0.0000       0.184534         5.0214 
  23   0.0000       0.200969         5.4686 

                 SPIN DOWN ORBITALS
  NO   OCC          E(Eh)            E(eV) 
   0   1.0000     -19.363997      -526.9211 
   1   1.0000     -10.417907      -283.4857 
   2   1.0000     -10.355097      -281.7765 
   3   1.0000      -1.123996       -30.5855 
   4   1.0000      -0.847253       -23.0549 
   5   1.0000      -0.698557       -19.0087 
   6   1.0000      -0.587768       -15.9940 
   7   1.0000      -0.546105       -14.8603 
   8   1.0000      -0.536239       -14.5918 
   9   1.0000      -0.488985       -13.3060 
  10   1.0000      -0.380328       -10.3493 
  11   0.0000      -0.057040        -1.5522 
  12   0.0000      -0.002582        -0.0703 
  13   0.0000       0.039914         1.0861 
  14   0.0000       0.061041         1.6610 
  15   0.0000       0.076132         2.0717 
  16   0.0000       0.088535         2.4092 
  17   0.0000       0.113775         3.0960 
  18   0.0000       0.124339         3.3834 
  19   0.0000       0.132500         3.6055 
  20   0.0000       0.144761         3.9391 
  21   0.0000       0.184447         5.0191 
*Only the first 10 virtual orbitals were printed.

                    ********************************
                    * MULLIKEN POPULATION ANALYSIS *
                    ********************************

--------------------------------------------
MULLIKEN ATOMIC CHARGES AND SPIN POPULATIONS
--------------------------------------------
   0 O :   -0.337917    0.896433
   1 C :    0.091252    0.005631
   2 C :   -0.628919    0.865709
   3 H :    0.186898    0.132538
   4 H :    0.190310    0.054861
   5 H :    0.269280    0.023343
   6 H :    0.229097    0.021486
Sum of atomic charges         :    0.0000000
Sum of atomic spin populations:    2.0000000

-----------------------------------------------------
MULLIKEN REDUCED ORBITAL CHARGES AND SPIN POPULATIONS
-----------------------------------------------------
CHARGE
  0 O s       :     4.000972  s :     4.000972
      pz      :     1.144803  p :     4.313452
      px      :     1.311373
      py      :     1.857275
      dz2     :     0.002676  d :     0.022168
      dxz     :     0.007558
      dyz     :     0.000488
      dx2y2   :     0.007228
      dxy     :     0.004218
      f0      :     0.000105  f :     0.001326
      f+1     :     0.000195
      f-1     :     0.000025
      f+2     :     0.000237
      f-2     :     0.000054
      f+3     :     0.000404
      f-3     :     0.000306

  1 C s       :     3.184430  s :     3.184430
      pz      :     1.049604  p :     2.540035
      px      :     0.604133
      py      :     0.886298
      dz2     :     0.013197  d :     0.173249
      dxz     :     0.044418
      dyz     :     0.031427
      dx2y2   :     0.015045
      dxy     :     0.069160
      f0      :     0.001040  f :     0.011035
      f+1     :     0.001160
      f-1     :     0.000618
      f+2     :     0.001364
      f-2     :     0.000899
      f+3     :     0.002170
      f-3     :     0.003784

  2 C s       :     3.621393  s :     3.621393
      pz      :     0.967502  p :     2.978376
      px      :     1.017473
      py      :     0.993401
      dz2     :     0.005178  d :     0.025411
      dxz     :     0.007684
      dyz     :     0.005685
      dx2y2   :     0.001071
      dxy     :     0.005794
      f0      :     0.000557  f :     0.003738
      f+1     :     0.000228
      f-1     :     0.000336
      f+2     :     0.000388
      f-2     :     0.000602
      f+3     :     0.000699
      f-3     :     0.000929

  3 H s       :     0.780941  s :     0.780941
      pz      :     0.018947  p :     0.029715
      px      :     0.008518
      py      :     0.002250
      dz2     :     0.000739  d :     0.002446
      dxz     :     0.000761
      dyz     :     0.000625
      dx2y2   :     0.000153
      dxy     :     0.000168

  4 H s       :     0.761481  s :     0.761481
      pz      :     0.009204  p :     0.045665
      px      :     0.018108
      py      :     0.018352
      dz2     :     0.000619  d :     0.002544
      dxz     :     0.000346
      dyz     :     0.000432
      dx2y2   :     0.000623
      dxy     :     0.000522

  5 H s       :     0.687252  s :     0.687252
      pz      :     0.018401  p :     0.041225
      px      :     0.006058
      py      :     0.016766
      dz2     :     0.000339  d :     0.002243
      dxz     :     0.000130
      dyz     :     0.000618
      dx2y2   :     0.000532
      dxy     :     0.000625

  6 H s       :     0.730042  s :     0.730042
      pz      :     0.018256  p :     0.038496
      px      :     0.011039
      py      :     0.009201
      dz2     :     0.000571  d :     0.002366
      dxz     :     0.000514
      dyz     :     0.000272
      dx2y2   :     0.000451
      dxy     :     0.000558


SPIN
  0 O s       :     0.004249  s :     0.004249
      pz      :     0.752166  p :     0.897031
      px      :     0.091932
      py      :     0.052932
      dz2     :    -0.000675  d :    -0.004652
      dxz     :    -0.003231
      dyz     :    -0.000250
      dx2y2   :    -0.000395
      dxy     :    -0.000101
      f0      :    -0.000059  f :    -0.000195
      f+1     :    -0.000112
      f-1     :     0.000011
      f+2     :    -0.000035
      f-2     :    -0.000005
      f+3     :     0.000003
      f-3     :     0.000002

  1 C s       :     0.005254  s :     0.005254
      pz      :    -0.027103  p :    -0.086274
      px      :    -0.041182
      py      :    -0.017989
      dz2     :     0.015282  d :     0.083683
      dxz     :     0.033769
      dyz     :     0.030964
      dx2y2   :     0.006818
      dxy     :    -0.003149
      f0      :     0.000546  f :     0.002967
      f+1     :     0.000416
      f-1     :     0.000020
      f+2     :     0.000820
      f-2     :     0.000432
      f+3     :     0.000181
      f-3     :     0.000552

  2 C s       :    -0.033603  s :    -0.033603
      pz      :     0.602679  p :     0.911825
      px      :     0.243847
      py      :     0.065299
      dz2     :    -0.000540  d :    -0.011482
      dxz     :    -0.001419
      dyz     :    -0.004714
      dx2y2   :    -0.004444
      dxy     :    -0.000365
      f0      :    -0.000300  f :    -0.001031
      f+1     :    -0.000087
      f-1     :    -0.000111
      f+2     :    -0.000185
      f-2     :    -0.000195
      f+3     :    -0.000127
      f-3     :    -0.000026

  3 H s       :     0.123758  s :     0.123758
      pz      :     0.006395  p :     0.008650
      px      :     0.001420
      py      :     0.000835
      dz2     :     0.000052  d :     0.000130
      dxz     :     0.000008
      dyz     :     0.000036
      dx2y2   :     0.000017
      dxy     :     0.000017

  4 H s       :     0.050474  s :     0.050474
      pz      :     0.000664  p :     0.004380
      px      :     0.002100
      py      :     0.001616
      dz2     :    -0.000017  d :     0.000006
      dxz     :    -0.000005
      dyz     :     0.000034
      dx2y2   :     0.000006
      dxy     :    -0.000013

  5 H s       :    -0.000084  s :    -0.000084
      pz      :     0.015700  p :     0.022402
      px      :     0.004506
      py      :     0.002196
      dz2     :     0.000230  d :     0.001025
      dxz     :     0.000025
      dyz     :     0.000415
      dx2y2   :     0.000064
      dxy     :     0.000291

  6 H s       :    -0.004318  s :    -0.004318
      pz      :     0.016247  p :     0.024802
      px      :     0.005730
      py      :     0.002825
      dz2     :     0.000536  d :     0.001002
      dxz     :     0.000080
      dyz     :     0.000050
      dx2y2   :     0.000176
      dxy     :     0.000160



                     *******************************
                     * LOEWDIN POPULATION ANALYSIS *
                     *******************************

-------------------------------------------
LOEWDIN ATOMIC CHARGES AND SPIN POPULATIONS
-------------------------------------------
   0 O :    0.058674    0.832864
   1 C :   -0.309884    0.218838
   2 C :    0.238821    0.672361
   3 H :    0.069105    0.095296
   4 H :    0.036696    0.025693
   5 H :   -0.046471    0.076094
   6 H :   -0.046942    0.078854

----------------------------------------------------
LOEWDIN REDUCED ORBITAL CHARGES AND SPIN POPULATIONS
----------------------------------------------------
CHARGE
  0 O s       :     3.463226  s :     3.463226
      pz      :     1.082199  p :     4.207921
      px      :     1.439272
      py      :     1.686450
      dz2     :     0.030876  d :     0.265789
      dxz     :     0.076383
      dyz     :     0.007721
      dx2y2   :     0.059176
      dxy     :     0.091634
      f0      :     0.000425  f :     0.004390
      f+1     :     0.000757
      f-1     :     0.000093
      f+2     :     0.000756
      f-2     :     0.000201
      f+3     :     0.000971
      f-3     :     0.001187

  1 C s       :     2.661536  s :     2.661536
      pz      :     0.878471  p :     2.609228
      px      :     0.818117
      py      :     0.912640
      dz2     :     0.117843  d :     0.950750
      dxz     :     0.146058
      dyz     :     0.134808
      dx2y2   :     0.245494
      dxy     :     0.306547
      f0      :     0.007853  f :     0.088370
      f+1     :     0.011088
      f-1     :     0.004940
      f+2     :     0.012210
      f-2     :     0.010105
      f+3     :     0.016945
      f-3     :     0.025228

  2 C s       :     2.739119  s :     2.739119
      pz      :     0.780885  p :     2.600108
      px      :     0.876888
      py      :     0.942335
      dz2     :     0.034175  d :     0.398466
      dxz     :     0.052609
      dyz     :     0.088355
      dx2y2   :     0.137514
      dxy     :     0.085812
      f0      :     0.003038  f :     0.023486
      f+1     :     0.001699
      f-1     :     0.002276
      f+2     :     0.002774
      f-2     :     0.003913
      f+3     :     0.004324
      f-3     :     0.005462

  3 H s       :     0.660924  s :     0.660924
      pz      :     0.117748  p :     0.244248
      px      :     0.052241
      py      :     0.074259
      dz2     :     0.008992  d :     0.025722
      dxz     :     0.005872
      dyz     :     0.008145
      dx2y2   :     0.001400
      dxy     :     0.001313

  4 H s       :     0.680306  s :     0.680306
      pz      :     0.088358  p :     0.255947
      px      :     0.071060
      py      :     0.096529
      dz2     :     0.005940  d :     0.027051
      dxz     :     0.004018
      dyz     :     0.006223
      dx2y2   :     0.005399
      dxy     :     0.005471

  5 H s       :     0.731292  s :     0.731292
      pz      :     0.087843  p :     0.284913
      px      :     0.080363
      py      :     0.116707
      dz2     :     0.004400  d :     0.030266
      dxz     :     0.001689
      dyz     :     0.008606
      dx2y2   :     0.007849
      dxy     :     0.007721

  6 H s       :     0.722750  s :     0.722750
      pz      :     0.099979  p :     0.294057
      px      :     0.116042
      py      :     0.078036
      dz2     :     0.006247  d :     0.030135
      dxz     :     0.008502
      dyz     :     0.003095
      dx2y2   :     0.006126
      dxy     :     0.006165


SPIN
  0 O s       :     0.013720  s :     0.013720
      pz      :     0.671551  p :     0.803984
      px      :     0.076173
      py      :     0.056259
      dz2     :     0.002883  d :     0.015170
      dxz     :     0.007733
      dyz     :     0.002383
      dx2y2   :    -0.000463
      dxy     :     0.002634
      f0      :     0.000015  f :    -0.000009
      f+1     :    -0.000020
      f-1     :     0.000031
      f+2     :    -0.000006
      f-2     :     0.000025
      f+3     :    -0.000037
      f-3     :    -0.000016

  1 C s       :    -0.004962  s :    -0.004962
      pz      :     0.001673  p :    -0.020941
      px      :    -0.009656
      py      :    -0.012958
      dz2     :     0.038321  d :     0.220492
      dxz     :     0.074982
      dyz     :     0.083989
      dx2y2   :     0.023935
      dxy     :    -0.000735
      f0      :     0.004349  f :     0.024248
      f+1     :     0.003168
      f-1     :     0.000375
      f+2     :     0.006644
      f-2     :     0.003624
      f+3     :     0.002341
      f-3     :     0.003746

  2 C s       :     0.012463  s :     0.012463
      pz      :     0.437468  p :     0.660901
      px      :     0.181647
      py      :     0.041785
      dz2     :    -0.000232  d :    -0.000473
      dxz     :    -0.001799
      dyz     :     0.005165
      dx2y2   :    -0.001592
      dxy     :    -0.002015
      f0      :    -0.000272  f :    -0.000529
      f+1     :     0.000355
      f-1     :    -0.000047
      f+2     :    -0.000008
      f-2     :    -0.000043
      f+3     :    -0.000334
      f-3     :    -0.000179

  3 H s       :     0.083580  s :     0.083580
      pz      :     0.003127  p :     0.012179
      px      :     0.006828
      py      :     0.002223
      dz2     :    -0.000139  d :    -0.000463
      dxz     :    -0.000146
      dyz     :    -0.000199
      dx2y2   :     0.000018
      dxy     :     0.000004

  4 H s       :     0.024980  s :     0.024980
      pz      :    -0.000106  p :     0.001084
      px      :     0.001626
      py      :    -0.000436
      dz2     :    -0.000073  d :    -0.000371
      dxz     :    -0.000082
      dyz     :    -0.000010
      dx2y2   :    -0.000002
      dxy     :    -0.000203

  5 H s       :    -0.013128  s :    -0.013128
      pz      :     0.051286  p :     0.078621
      px      :     0.020532
      py      :     0.006804
      dz2     :     0.002677  d :     0.010600
      dxz     :     0.000092
      dyz     :     0.004588
      dx2y2   :     0.000457
      dxy     :     0.002787

  6 H s       :    -0.011002  s :    -0.011002
      pz      :     0.051611  p :     0.079651
      px      :     0.022413
      py      :     0.005628
      dz2     :     0.005867  d :     0.010205
      dxz     :     0.001323
      dyz     :     0.000169
      dx2y2   :     0.001804
      dxy     :     0.001042



                      *****************************
                      * MAYER POPULATION ANALYSIS *
                      *****************************

  NA   - Mulliken gross atomic population
  ZA   - Total nuclear charge
  QA   - Mulliken gross atomic charge
  VA   - Mayer's total valence
  BVA  - Mayer's bonded valence
  FA   - Mayer's free valence

  ATOM       NA         ZA         QA         VA         BVA        FA
  0 O      8.3379     8.0000    -0.3379     1.8278     1.0968     0.7310
  1 C      5.9087     6.0000     0.0913     3.5054     3.4894     0.0160
  2 C      6.6289     6.0000    -0.6289     3.4775     2.7156     0.7618
  3 H      0.8131     1.0000     0.1869     1.0014     0.9854     0.0160
  4 H      0.8097     1.0000     0.1903     1.0456     1.0437     0.0019
  5 H      0.7307     1.0000     0.2693     0.9436     0.9434     0.0002
  6 H      0.7709     1.0000     0.2291     0.9368     0.9365     0.0003

  Mayer bond orders larger than 0.100000
B(  0-O ,  1-C ) :   0.9229 B(  1-C ,  2-C ) :   0.7229 B(  1-C ,  3-H ) :   0.9134 
B(  1-C ,  4-H ) :   1.0031 B(  2-C ,  5-H ) :   0.9441 B(  2-C ,  6-H ) :   0.9863 


-------
TIMINGS
-------

Total SCF time: 0 days 0 hours 0 min 7 sec 

Total time                  ....       7.792 sec
Sum of individual times     ....       7.761 sec  ( 99.6%)

SCF preparation             ....       1.817 sec  ( 23.3%)
Fock matrix formation       ....       4.636 sec  ( 59.5%)
  Startup                   ....       0.081 sec  (  1.7% of F)
  Split-RI-J                ....       0.479 sec  ( 10.3% of F)
  Chain of spheres X        ....       2.635 sec  ( 56.8% of F)
  XC integration            ....       1.154 sec  ( 24.9% of F)
    XC Preparation          ....       0.000 sec  (  0.0% of XC)
    Basis function eval.    ....       0.052 sec  (  4.5% of XC)
    Density eval.           ....       0.226 sec  ( 19.5% of XC)
    XC-Functional eval.     ....       0.016 sec  (  1.4% of XC)
    XC-Potential eval.      ....       0.328 sec  ( 28.4% of XC)
Diagonalization             ....       0.000 sec  (  0.0%)
Density matrix formation    ....       0.159 sec  (  2.0%)
Total Energy calculation    ....       0.136 sec  (  1.7%)
Population analysis         ....       0.038 sec  (  0.5%)
[...]
[1741611000.286092] [ohm:3463225:0]        ib_iface.c:1059 UCX  ERROR ibv_create_cq(cqe=256) failed: Connection timed out
[1741611000.286157] [ohm:3463287:0]        ib_iface.c:1059 UCX  ERROR ibv_create_cq(cqe=256) failed: Connection timed out
[1741611000.288170] [ohm:3463294:0]        ib_iface.c:1059 UCX  ERROR ibv_create_cq(cqe=256) failed: Connection timed out
[1741611000.290220] [ohm:3463322:0]        ib_iface.c:1059 UCX  ERROR ibv_create_cq(cqe=256) failed: Connection timed out
[1741611000.290248] [ohm:3463243:0]        ib_iface.c:1059 UCX  ERROR ibv_create_cq(cqe=256) failed: Connection timed out
[1741611000.292393] [ohm:3463238:0]        ib_iface.c:1059 UCX  ERROR ibv_create_cq(cqe=256) failed: Connection timed out
[1741611000.292826] [ohm:3463316:0]        ib_iface.c:1059 UCX  ERROR ibv_create_cq(cqe=256) failed: Connection timed out
[1741611000.296229] [ohm:3463271:0]        ib_iface.c:1059 UCX  ERROR ibv_create_cq(cqe=256) failed: Connection timed out
[1741611000.296810] [ohm:3463336:0]        ib_iface.c:1059 UCX  ERROR ibv_create_cq(cqe=256) failed: Connection timed out
[1741611000.296872] [ohm:3463255:0]        ib_iface.c:1059 UCX  ERROR ibv_create_cq(cqe=256) failed: Connection timed out


           ************************************************************
           *        Program running with 64 parallel MPI-processes    *
           *              working on a common directory               *
           ************************************************************

------------------------------------------------------------------------------
                              ORCA PROPERTY CALCULATIONS
------------------------------------------------------------------------------

GBWName                                 ... orca.gbw
Number of atoms                         ...      7
Number of basis functions               ...    182
Max core memory                         ...   1024 MB

Electric properties:
Dipole moment                           ... YES
Quadrupole moment                       ...  NO
Static polarizability (Dipole/Dipole)   ...  NO
Static polarizability (Dipole/Quad.)    ...  NO
Static polarizability (Quad./Quad.)     ...  NO
Static polarizability (Velocity)        ...  NO

Atomic electric properties:
Dipole moment                           ...  NO
Quadrupole moment                       ...  NO
Static polarizability                   ...  NO

Choice of electric origin               ... Center of mass
Position of electric origin             ...     0.783799     0.120000     0.138830

General magnetic properties:
Magnetizability                         ...  NO

EPR properties:
g-Tensor (aka g-matrix)                 ...  NO
Zero-Field splitting spin-orbit         ...  NO
Zero-field splitting spin-spin          ...  NO
Hyperfine couplings                     ...  NO (   0 nuclei)
Quadrupole couplings                    ...  NO (   0 nuclei)
Contact density                         ...  NO (   0 nuclei)

NMR properties:
Chemical shifts                         ...  NO (   0 nuclei)
Spin-rotation constants                 ...  NO (   0 nuclei)
Spin-spin couplings                     ...  NO (   0 nuclei,    0 pairs)

Choice of magnetic origin               ... GIAO
Position of magnetic origin             ...     0.000000     0.000000     0.000000

Properties with geometric perturbations:
SCF Hessian                             ...  NO
IR spectrum                             ...  NO
VCD spectrum                            ...  NO
X-ray spectroscopy properties:
SCF XES/XAS/RIXS spectra                ...  NO


-------------
DIPOLE MOMENT
-------------

Method             : SCF
Type of density    : Electron Density
Multiplicity       :   3
Irrep              :   0
Energy             :  -153.7808356574647064 Eh
Relativity type    : 
Basis              : AO
                                X                 Y                 Z
Electronic contribution:     -2.584940738       0.355818228      -0.229444801
Nuclear contribution   :      3.313727635      -0.252875115       0.452982539
                        -----------------------------------------
Total Dipole Moment    :      0.728786898       0.102943113       0.223537738
                        -----------------------------------------
Magnitude (a.u.)       :      0.769218270
Magnitude (Debye)      :      1.955197460



--------------------
Rotational spectrum 
--------------------
 
Rotational constants in cm-1:             1.458595             0.353372             0.311291 
Rotational constants in MHz :         43727.588638         10593.822943          9332.282697 

Dipole components along the rotational axes: 
x,y,z [a.u.] :    -0.605720     0.459451     0.117071 
x,y,z [Debye]:    -1.539617     1.167830     0.297570 

 

-------------
DIPOLE MOMENT
-------------

Method             : TDA/CIS
Type of density    : Electron Density
Level              : Relaxed density
State              :   2
Multiplicity       :   3
Irrep              :   0
Energy             :     0.0000000000000000 Eh
Relativity type    : 
Basis              : AO
                                X                 Y                 Z
Electronic contribution:     -2.644934974       0.389627917      -0.232474666
Nuclear contribution   :      3.313727635      -0.252875115       0.452982539
                        -----------------------------------------
Total Dipole Moment    :      0.668792661       0.136752801       0.220507873
                        -----------------------------------------
Magnitude (a.u.)       :      0.717362303
Magnitude (Debye)      :      1.823390068



--------------------
Rotational spectrum 
--------------------
 
Rotational constants in cm-1:             1.458595             0.353372             0.311291 
Rotational constants in MHz :         43727.588638         10593.822943          9332.282697 

Dipole components along the rotational axes: 
x,y,z [a.u.] :    -0.536811     0.461024     0.117895 
x,y,z [Debye]:    -1.364465     1.171831     0.299665 

 

Dipole moment calculation done in   0.0 sec 

Maximum memory used throughout the entire PROP-calculation: 7.4 MB
[1741611001.990156] [ohm:3463544:0]        ib_iface.c:1059 UCX  ERROR ibv_create_cq(cqe=256) failed: Connection timed out
[1741611002.002440] [ohm:3463543:0]        ib_iface.c:1059 UCX  ERROR ibv_create_cq(cqe=256) failed: Connection timed out
[1741611002.017690] [ohm:3463546:0]        ib_iface.c:1059 UCX  ERROR ibv_create_cq(cqe=256) failed: Connection timed out
[1741611002.021019] [ohm:3463552:0]        ib_iface.c:1059 UCX  ERROR ibv_create_cq(cqe=256) failed: Connection timed out
[1741611002.022565] [ohm:3463542:0]        ib_iface.c:1059 UCX  ERROR ibv_create_cq(cqe=256) failed: Connection timed out
[1741611002.027750] [ohm:3463568:0]        ib_iface.c:1059 UCX  ERROR ibv_create_cq(cqe=256) failed: Connection timed out
[1741611002.028471] [ohm:3463591:0]        ib_iface.c:1059 UCX  ERROR ibv_create_cq(cqe=256) failed: Connection timed out
[1741611002.028570] [ohm:3463548:0]        ib_iface.c:1059 UCX  ERROR ibv_create_cq(cqe=256) failed: Connection timed out
[1741611002.034033] [ohm:3463593:0]        ib_iface.c:1059 UCX  ERROR ibv_create_cq(cqe=256) failed: Connection timed out
[1741611002.037025] [ohm:3463547:0]        ib_iface.c:1059 UCX  ERROR ibv_create_cq(cqe=256) failed: Connection timed out
[1741611002.041008] [ohm:3463612:0]        ib_iface.c:1059 UCX  ERROR ibv_create_cq(cqe=256) failed: Connection timed out
[1741611002.045258] [ohm:3463576:0]        ib_iface.c:1059 UCX  ERROR ibv_create_cq(cqe=256) failed: Connection timed out
[1741611002.046463] [ohm:3463558:0]        ib_iface.c:1059 UCX  ERROR ibv_create_cq(cqe=256) failed: Connection timed out
[1741611002.064519] [ohm:3463549:0]        ib_iface.c:1059 UCX  ERROR ibv_create_cq(cqe=256) failed: Connection timed out
[1741611002.064524] [ohm:3463569:0]        ib_iface.c:1059 UCX  ERROR ibv_create_cq(cqe=256) failed: Connection timed out
[1741611002.085068] [ohm:3463585:0]        ib_iface.c:1059 UCX  ERROR ibv_create_cq(cqe=256) failed: Connection timed out
[1741611002.099804] [ohm:3463555:0]        ib_iface.c:1059 UCX  ERROR ibv_create_cq(cqe=256) failed: Connection timed out
[1741611002.121465] [ohm:3463557:0]        ib_iface.c:1059 UCX  ERROR ibv_create_cq(cqe=256) failed: Connection timed out
[1741611002.125060] [ohm:3463625:0]        ib_iface.c:1059 UCX  ERROR ibv_create_cq(cqe=256) failed: Connection timed out
[1741611002.135504] [ohm:3463654:0]        ib_iface.c:1059 UCX  ERROR ibv_create_cq(cqe=256) failed: Connection timed out
[1741611002.138027] [ohm:3463614:0]        ib_iface.c:1059 UCX  ERROR ibv_create_cq(cqe=256) failed: Connection timed out
[1741611002.149743] [ohm:3463605:0]        ib_iface.c:1059 UCX  ERROR ibv_create_cq(cqe=256) failed: Connection timed out
[1741611002.151046] [ohm:3463563:0]        ib_iface.c:1059 UCX  ERROR ibv_create_cq(cqe=256) failed: Connection timed out
[1741611002.151416] [ohm:3463636:0]        ib_iface.c:1059 UCX  ERROR ibv_create_cq(cqe=256) failed: Connection timed out
[1741611002.151902] [ohm:3463659:0]        ib_iface.c:1059 UCX  ERROR ibv_create_cq(cqe=256) failed: Connection timed out
[1741611002.154473] [ohm:3463662:0]        ib_iface.c:1059 UCX  ERROR ibv_create_cq(cqe=256) failed: Connection timed out
[1741611002.163885] [ohm:3463578:0]        ib_iface.c:1059 UCX  ERROR ibv_create_cq(cqe=256) failed: Connection timed out
[1741611002.164675] [ohm:3463645:0]        ib_iface.c:1059 UCX  ERROR ibv_create_cq(cqe=256) failed: Connection timed out
[1741611002.178603] [ohm:3463583:0]        ib_iface.c:1059 UCX  ERROR ibv_create_cq(cqe=256) failed: Connection timed out
[1741611002.189975] [ohm:3463640:0]        ib_iface.c:1059 UCX  ERROR ibv_create_cq(cqe=256) failed: Connection timed out
[1741611002.193297] [ohm:3463679:0]        ib_iface.c:1059 UCX  ERROR ibv_create_cq(cqe=256) failed: Connection timed out
[1741611002.198167] [ohm:3463672:0]        ib_iface.c:1059 UCX  ERROR ibv_create_cq(cqe=256) failed: Connection timed out
[1741611002.198782] [ohm:3463600:0]        ib_iface.c:1059 UCX  ERROR ibv_create_cq(cqe=256) failed: Connection timed out
[1741611002.200457] [ohm:3463622:0]        ib_iface.c:1059 UCX  ERROR ibv_create_cq(cqe=256) failed: Connection timed out
[1741611002.209000] [ohm:3463570:0]        ib_iface.c:1059 UCX  ERROR ibv_create_cq(cqe=256) failed: Connection timed out
[1741611002.213296] [ohm:3463670:0]        ib_iface.c:1059 UCX  ERROR ibv_create_cq(cqe=256) failed: Connection timed out
[1741611002.223527] [ohm:3463632:0]        ib_iface.c:1059 UCX  ERROR ibv_create_cq(cqe=256) failed: Connection timed out
[1741611002.233450] [ohm:3463566:0]        ib_iface.c:1059 UCX  ERROR ibv_create_cq(cqe=256) failed: Connection timed out
[1741611002.237812] [ohm:3463635:0]        ib_iface.c:1059 UCX  ERROR ibv_create_cq(cqe=256) failed: Connection timed out
[1741611002.242869] [ohm:3463571:0]        ib_iface.c:1059 UCX  ERROR ibv_create_cq(cqe=256) failed: Connection timed out
[1741611002.248113] [ohm:3463551:0]        ib_iface.c:1059 UCX  ERROR ibv_create_cq(cqe=256) failed: Connection timed out
[1741611002.249946] [ohm:3463683:0]        ib_iface.c:1059 UCX  ERROR ibv_create_cq(cqe=256) failed: Connection timed out
[1741611002.254739] [ohm:3463565:0]        ib_iface.c:1059 UCX  ERROR ibv_create_cq(cqe=256) failed: Connection timed out
[1741611002.254741] [ohm:3463545:0]        ib_iface.c:1059 UCX  ERROR ibv_create_cq(cqe=256) failed: Connection timed out
[1741611002.259263] [ohm:3463560:0]        ib_iface.c:1059 UCX  ERROR ibv_create_cq(cqe=256) failed: Connection timed out
[1741611002.264641] [ohm:3463554:0]        ib_iface.c:1059 UCX  ERROR ibv_create_cq(cqe=256) failed: Connection timed out
[1741611002.265171] [ohm:3463681:0]        ib_iface.c:1059 UCX  ERROR ibv_create_cq(cqe=256) failed: Connection timed out
[1741611002.282486] [ohm:3463665:0]        ib_iface.c:1059 UCX  ERROR ibv_create_cq(cqe=256) failed: Connection timed out
[1741611002.288186] [ohm:3463650:0]        ib_iface.c:1059 UCX  ERROR ibv_create_cq(cqe=256) failed: Connection timed out
[1741611002.288546] [ohm:3463567:0]        ib_iface.c:1059 UCX  ERROR ibv_create_cq(cqe=256) failed: Connection timed out
[1741611002.289209] [ohm:3463556:0]        ib_iface.c:1059 UCX  ERROR ibv_create_cq(cqe=256) failed: Connection timed out
[1741611002.293920] [ohm:3463610:0]        ib_iface.c:1059 UCX  ERROR ibv_create_cq(cqe=256) failed: Connection timed out
[1741611002.295555] [ohm:3463573:0]        ib_iface.c:1059 UCX  ERROR ibv_create_cq(cqe=256) failed: Connection timed out
[1741611002.299997] [ohm:3463561:0]        ib_iface.c:1059 UCX  ERROR ibv_create_cq(cqe=256) failed: Connection timed out
[1741611002.300202] [ohm:3463553:0]        ib_iface.c:1059 UCX  ERROR ibv_create_cq(cqe=256) failed: Connection timed out
[1741611002.303915] [ohm:3463598:0]        ib_iface.c:1059 UCX  ERROR ibv_create_cq(cqe=256) failed: Connection timed out
[1741611002.304379] [ohm:3463550:0]        ib_iface.c:1059 UCX  ERROR ibv_create_cq(cqe=256) failed: Connection timed out
[1741611002.304844] [ohm:3463559:0]        ib_iface.c:1059 UCX  ERROR ibv_create_cq(cqe=256) failed: Connection timed out
[1741611002.305119] [ohm:3463572:0]        ib_iface.c:1059 UCX  ERROR ibv_create_cq(cqe=256) failed: Connection timed out
[1741611002.305111] [ohm:3463643:0]        ib_iface.c:1059 UCX  ERROR ibv_create_cq(cqe=256) failed: Connection timed out
[1741611002.305351] [ohm:3463628:0]        ib_iface.c:1059 UCX  ERROR ibv_create_cq(cqe=256) failed: Connection timed out
[1741611002.307375] [ohm:3463564:0]        ib_iface.c:1059 UCX  ERROR ibv_create_cq(cqe=256) failed: Connection timed out
[1741611002.308142] [ohm:3463677:0]        ib_iface.c:1059 UCX  ERROR ibv_create_cq(cqe=256) failed: Connection timed out
[1741611002.308156] [ohm:3463562:0]        ib_iface.c:1059 UCX  ERROR ibv_create_cq(cqe=256) failed: Connection timed out

--------------------------------
SUGGESTED CITATIONS FOR THIS RUN
--------------------------------

Below you find a list of papers that are relevant to this ORCA run
We neither can nor want to force you to cite these papers, but we appreciate if you do
You receive ORCA, which is the product of decades of hard work by many enthusiastic individuals, for free
The only thing we kindly ask in return is that you cite our papers,
We deeply appreciate it, if you show your appreciation for ORCA by not just citing the generic ORCA reference.

Please note that relegating all ORCA citations to the supporting information does *not* help us.
SI sections are not indexed - citations you put there will not count into any citation statistics
But we need these citations in order to attract the funding resources that allow us to do what we are doing

Therefore, if you are a happy ORCA user, please consider citing a few of the papers listed below in the main body of your paper

In addition to the list printed below, the program has created the file orca.bibtex that contains the list in bibtex format
You can import this file easily into all common literature databanks and citation aid programs


List of essential papers. We consider these as the minimum necessary citations

  1. Neese,F.
     Software update: the ORCA program system, version 5.0
     WIRES Comput. Molec. Sci., 2022 12(1)e1606
     doi.org/10.1002/wcms.1606

List of papers to cite with high priority. The work reported in these papers was absolutely
necessary for this run to complete.
Our perspective: the developers of density functionals and basis sets usually get cited in chemistry papers
Good! But without the algorithms to do something with them, the functionals or basis sets would not do anything.
Hence, in our opinion, the algorithm design and method developments papers are equally worthy of getting cited

  1. Neese,F.; Olbrich,G.
     Efficient use of the resolution of the identity approximation in time-dependent density functional calculations with hybrid density functionals
     Chem. Phys. Lett., 2002 362 170-178
     doi.org/10.1016/s0009-2614(02)01053-9
  2. Neese,F.
     An improvement of the resolution of the identity approximation for the formation of the Coulomb matrix
     J. Comp. Chem., 2003 24(14)1740-1747
     doi.org/10.1002/jcc.10318
  3. Neese,F.; Wennmohs,F.; Hansen,A.; Becker,U.
     Efficient, approximate and parallel Hartree-Fock and hybrid DFT calculations. A 'chain-of-spheres' algorithm for the Hartree-Fock exchange
     Chem. Phys., 2009 356(1-3)98-109
     doi.org/10.1016/j.chemphys.2008.10.036
  4. Petrenko,T.; Kossmann,S.; Neese,F.
     Efficient time-dependent density functional theory approximations for hybrid density functionals: Analytical gradients and parallelization
     J. Chem. Phys., 2011 134 054116
     doi.org/10.1063/1.3533441
  5. Helmich-Paris,B.; de Souza,B.; Neese,F.; Izsák,R.
     An improved chain of spheres for exchange algorithm
     J. Chem. Phys., 2021 155 104109
     doi.org/doi: 10.1063/5.0058766.
  6. Neese,F.
     The SHARK Integral Generation and Digestion System
     J. Comp. Chem., 2022  1-16
     doi.org/10.1002/jcc.26942
  7. Lehtola,S.; Steigemann,C.; Oliveira,M.; Marques,M.
     Recent developments in Libxc - A comprehensive library of functionals for density functional theory
     Software X, 2018 7 
     doi.org/10.1016/j.softx.2017.11.002
  8. Grimme,S.; Antony,J.; Ehrlich,S.; Krieg,H.
     A consistent and accurate ab initio parametrization of density functional dispersion correction (DFT-D) for the 94 elements H-Pu
     J. Chem. Phys., 2010 132 154104-XXXX
     doi.org/10.1063/1.3382344
  9. Grimme,S.; Ehrlich,S.; Goerigk,L.
     Effect of the damping function in dispersion corrected density functional theory
     J. Comput. Chem., 2011 32(7)1456-1465
     doi.org/10.1002/jcc.21759

List of suggested additional citations. These are papers that are important in the 'surrounding' of 
of this run, or papers that preceded the highly important papers. If you like your results we are grateful for a citation.

  1. Izsak,R.; Neese,F.
     An overlap fitted chain of spheres exchange method
     J. Chem. Phys., 2011 135 144105
     doi.org/10.1063/1.3646921
  2. Izsak,R.; Hansen,A.; Neese,F.
     The resolution of identity and chain of spheres approximations for the LPNO-CCSD singles Fock term
     Molec. Phys., 2012 110 2413-2417
     doi.org/10.1080/00268976.2012.687466
  3. Neese,F.
     The ORCA program system
     WIRES Comput. Molec. Sci., 2012 2(1)73-78
     doi.org/10.1002/wcms.81
  4. Izsak,R.; Neese,F.; Klopper,W.
     Robust fitting techniques in the chain of spheres approximation to the Fock exchange: The role of the complementary space
     J. Chem. Phys., 2013 139 
     doi.org/10.1063/1.4819264
  5. Neese,F.
     Software update: the ORCA program system, version 4.0
     WIRES Comput. Molec. Sci., 2018 8(1)1-6
     doi.org/10.1002/wcms.1327
  6. Neese,F.; Wennmohs,F.; Becker,U.; Riplinger,C.
     The ORCA quantum chemistry program package
     J. Chem. Phys., 2020 152 Art. No. L224108
     doi.org/10.1063/5.0004608

List of optional additional citations

  1. Neese,F.
     Approximate second-order SCF convergence for spin unrestricted wavefunctions
     Chem. Phys. Lett., 2000 325(1-3)93-98
     doi.org/10.1016/s0009-2614(00)00662-x

Timings for individual modules:

Sum of individual times          ...       24.349 sec (=   0.406 min)
Startup calculation              ...        2.372 sec (=   0.040 min)   9.7 %
SCF iterations                   ...       10.334 sec (=   0.172 min)  42.4 %
Property integrals               ...        2.053 sec (=   0.034 min)   8.4 %
Property calculations            ...        1.949 sec (=   0.032 min)   8.0 %
CIS module                       ...        7.641 sec (=   0.127 min)  31.4 %
                             ****ORCA TERMINATED NORMALLY****
TOTAL RUN TIME: 0 days 0 hours 0 minutes 26 seconds 453 msec
