
                                 *****************
                                 * O   R   C   A *
                                 *****************

                                            #,                                       
                                            ###                                      
                                            ####                                     
                                            #####                                    
                                            ######                                   
                                           ########,                                 
                                     ,,################,,,,,                         
                               ,,#################################,,                 
                          ,,##########################################,,             
                       ,#########################################, ''#####,          
                    ,#############################################,,   '####,        
                  ,##################################################,,,,####,       
                ,###########''''           ''''###############################       
              ,#####''   ,,,,##########,,,,          '''####'''          '####       
            ,##' ,,,,###########################,,,                        '##       
           ' ,,###''''                  '''############,,,                           
         ,,##''                                '''############,,,,        ,,,,,,###''
      ,#''                                            '''#######################'''  
     '                                                          ''''####''''         
             ,#######,   #######,   ,#######,      ##                                
            ,#'     '#,  ##    ##  ,#'     '#,    #''#        ,####,   ,####,        
            ##       ##  ##   ,#'  ##            #'  '#       #'       #'  '#        
            ##       ##  #######   ##           ,######,      #####,   #    #        
            '#,     ,#'  ##    ##  '#,     ,#' ,#      #,     #,   #   #,  ,#        
             '#######'   ##     ##  '#######'  #'      '#     '####' # '####'        



                #########################################################
                #                        -***-                          #
                #          Department of theory and spectroscopy        #
                #                                                       #
                #                      Frank Neese                      #
                #                                                       #
                #     Directorship, Architecture, Infrastructure        #
                #                    SHARK, DRIVERS                     #
                #        Core code/Algorithms in most modules           #
                #                                                       #
                #        Max Planck Institute fuer Kohlenforschung      #
                #                Kaiser Wilhelm Platz 1                 #
                #                 D-45470 Muelheim/Ruhr                 #
                #                      Germany                          #
                #                                                       #
                #                  All rights reserved                  #
                #                        -***-                          #
                #########################################################


                         Program Version 6.0.0  -   RELEASE  -


 With contributions from (in alphabetic order):
   Daniel Aravena         : Magnetic Suceptibility
   Michael Atanasov       : Ab Initio Ligand Field Theory (pilot matlab implementation)
   Alexander A. Auer      : GIAO ZORA, VPT2 properties, NMR spectrum
   Ute Becker             : All parallelization in ORCA, NUMFREQ, NUMCALC
   Giovanni Bistoni       : ED, misc. LED, open-shell LED, HFLD
   Martin Brehm           : Molecular dynamics
   Dmytro Bykov           : pre 5.0 version of the SCF Hessian
   Marcos Casanova-Páez   : Triplet and SCS-CIS(D). UHF-(DLPNO)-IP/EA/STEOM-CCSD. UHF-CVS-IP/STEOM-CCSD
   Vijay G. Chilkuri      : MRCI spin determinant printing, contributions to CSF-ICE
   Pauline Colinet        : FMM embedding
   Dipayan Datta          : RHF DLPNO-CCSD density
   Achintya Kumar Dutta   : EOM-CC, STEOM-CC
   Nicolas Foglia         : Exact transition moments, OPA infrastructure, MCD improvements
   Dmitry Ganyushin       : Spin-Orbit,Spin-Spin,Magnetic field MRCI
   Miquel Garcia          : C-PCM and meta-GGA Hessian, CCSD/C-PCM, Gaussian charge scheme
   Tiago L. C. Gouveia    : GS-ROHF, GS-ROCIS
   Yang Guo               : DLPNO-NEVPT2, F12-NEVPT2, CIM, IAO-localization
   Andreas Hansen         : Spin unrestricted coupled pair/coupled cluster methods
   Ingolf Harden          : AUTO-CI MPn and infrastructure 
   Benjamin Helmich-Paris : MC-RPA, TRAH-(SCF,CASSCF), AVAS, COSX integrals, SCF dyn. polar.
   Lee Huntington         : MR-EOM, pCC
   Robert Izsak           : Overlap fitted RIJCOSX, COSX-SCS-MP3, EOM
   Riya Kayal             : Wick's Theorem for AUTO-CI, AUTO-CI UHF-CCSDT
   Emily Kempfer          : AUTO-CI, RHF CISDT and CCSDT
   Christian Kollmar      : KDIIS, OOCD, Brueckner-CCSD(T), CCSD density, CASPT2, CASPT2-K, improved NEVPT2
   Axel Koslowski         : Symmetry handling
   Simone Kossmann        : Meta GGA functionals, TD-DFT gradient, OOMP2, (MP2 Hessian; deprecated post 5.0)
   Lucas Lang             : DCDCAS
   Marvin Lechner         : AUTO-CI (C++ implementation), FIC-MRCC
   Spencer Leger          : CASSCF response
   Dagmar Lenk            : GEPOL surface, SMD, ORCA-2-JSON
   Dimitrios Liakos       : Extrapolation schemes; Compound Job, initial MDCI parallelization
   Dimitrios Manganas     : Further ROCIS development; embedding schemes. LFT, Crystal Embedding
   Dimitrios Pantazis     : SARC Basis sets
   Anastasios Papadopoulos: AUTO-CI, single reference methods and gradients
   Taras Petrenko         : pre 6.0 DFT Hessian and TD-DFT gradient, (ASA, deprecated), ECA, 1-Electron XAS/XES, NRVS
   Peter Pinski           : DLPNO-MP2, DLPNO-MP2 Gradient
   Christoph Reimann      : Effective Core Potentials
   Marius Retegan         : Local ZFS, SOC
   Christoph Riplinger    : Optimizer, TS searches, QM/MM, DLPNO-CCSD(T), (RO)-DLPNO pert. Triples
   Michael Roemelt        : Original ROCIS implementation
   Masaaki Saitow         : Open-shell DLPNO-CCSD energy and density
   Barbara Sandhoefer     : DKH picture change effects
   Kantharuban Sivalingam : CASSCF convergence/infrastructure, NEVPT2 and variants, FIC-MRCI
   Bernardo de Souza      : ESD, SOC TD-DFT
   Georgi Stoychev        : AutoAux, RI-MP2 NMR, DLPNO-MP2 response, X2C
   Van Anh Tran           : RI-MP2 g-tensors
   Willem Van den Heuvel  : Paramagnetic NMR
   Zikuan Wang            : NOTCH, Electric field optimization 
   Frank Wennmohs         : Technical directorship and infrastructure
   Hang Xu                : AUTO-CI-Response properties 


 We gratefully acknowledge several colleagues who have allowed us to
 interface, adapt or use parts of their codes:
   Stefan Grimme, W. Hujo, H. Kruse, P. Pracht,  : VdW corrections, initial TS optimization,
                  C. Bannwarth, S. Ehlert,         DFT functionals, gCP, sTDA/sTD-DF
                  L. Wittmann, M. Mueller
   Ed Valeev, F. Pavosevic, A. Kumar             : LibInt (2-el integral package), F12 methods
   Garnet Chan, S. Sharma, J. Yang, R. Olivares  : DMRG
   Ulf Ekstrom                                   : XCFun DFT Library
   Mihaly Kallay                                 : mrcc  (arbitrary order and MRCC methods)
   Frank Weinhold                                : gennbo (NPA and NBO analysis)
   Simon Mueller                                 : openCOSMO-RS
   Christopher J. Cramer and Donald G. Truhlar   : smd solvation model
   Lars Goerigk                                  : TD-DFT with DH, B97 family of functionals
   V. Asgeirsson, H. Jonsson                     : NEB implementation
   FAccTs GmbH                                   : IRC, NEB, NEB-TS, DLPNO-Multilevel, CI-OPT
                                                   MM, QMMM, 2- and 3-layer-ONIOM, Crystal-QMMM,
                                                   LR-CPCM, SF, NACMEs, symmetry and pop. for TD-DFT,
                                                   nearIR, NL-DFT gradient (VV10), updates on ESD,
                                                   ML-optimized integration grids, MBIS, APM,
                                                   GOAT, DOCKER, SOLVATOR, interface openCOSMO-RS
   S Lehtola, MJT Oliveira, MAL Marques          : LibXC Library
   Liviu Ungur et al                             : ANISO software


 Your calculation uses the libint2 library for the computation of 2-el integrals
 For citations please refer to: http://libint.valeyev.net

 Your ORCA version has been built with support for libXC version: 6.2.2
 For citations please refer to: https://libxc.gitlab.io

 This ORCA versions uses:
   CBLAS   interface :  Fast vector & matrix operations
   LAPACKE interface :  Fast linear algebra routines
   SCALAPACK package :  Parallel linear algebra routines
   Shared memory     :  Shared parallel matrices
   BLAS/LAPACK       :  OpenBLAS 0.3.27  USE64BITINT DYNAMIC_ARCH NO_AFFINITY Zen SINGLE_THREADED
        Core in use  :  Zen
   Copyright (c) 2011-2014, The OpenBLAS Project


Your calculation utilizes the atom-pairwise dispersion correction
with the Becke-Johnson damping scheme (D3BJ)


Warning: RI is on but no J-basis has been assigned. Assigning Def2/J (nothing to worry about!)
================================================================================

----- Orbital basis set information -----
Your calculation utilizes the basis: def2-TZVPPD
   F. Weigend and R. Ahlrichs, Phys. Chem. Chem. Phys. 7, 3297 (2005).
   D. Rappoport and F. Furche, J. Chem. Phys. 133, 134105 (2010)
   D. Rappoport, J. Chem. Phys. 155, 124102 (2021).

----- AuxJ basis set information -----
Your calculation utilizes the auxiliary basis: def2/J
   F. Weigend, Phys. Chem. Chem. Phys. 8, 1057 (2006).

================================================================================
                                        WARNINGS
                       Please study these warnings very carefully!
================================================================================

Using LibXC functional ID 531 : wB97M-V exchange-correlation functional
[ 1]  N. Mardirossian and M. Head-Gordon.,  J. Chem. Phys. 144, 214110 (2016)
Using LibXC functional ID 531 : wB97M-V exchange-correlation functional
[ 1]  N. Mardirossian and M. Head-Gordon.,  J. Chem. Phys. 144, 214110 (2016)

WARNING: B97M-V or wB97M-V functional requested.
  ===> : libXC variant has now been activated.
         Any manually given DFX/HFX/RangeSep scaling parameters are IGNORED!

Your calculation utilizes LibXC
 by S Lehtola, C Steigemann, MJT Oliveira & MAL Marques
Please cite in your paper:
 S Lehtola, C Steigemann, MJT Oliveira & MAL Marques, SoftwareX, 7, (2018), 1.
   


WARNING: your system is open-shell and RHF/RKS was chosen
  ===> : WILL SWITCH to UHF/UKS

INFO   : Checking CIS options ...

WARNING: CIS/ROCIS methods need fully converged wavefunctions
  ===> : Setting SCFConvForced true
         You can overwrite this default with %scf ConvForced false 


================================================================================
                                       INPUT FILE
================================================================================
NAME = orca.inp
|  1> ! Engrad def2-TZVPPD wB97M-D3BJ 
|  2> %pal nprocs 8 end%pal nprocs 64 end 
|  3> %tddft Nroots 2 Iroot 1 
|  4> sf true 
|  5> end 
|  6> *xyz 0 3 
|  7> O   3.11789204 0.53801556 -0.85813864
|  8> O   -0.44090619 1.34317574 -2.31400634
|  9> O   0.42613279 -3.06703736 -0.54608588
| 10> O   -3.14861769 -1.59576755 -0.24639961
| 11> N   0.28505229 -1.51818513 1.10255696
| 12> N   -2.12939861 -0.02855266 1.04689857
| 13> N   1.58871736 -1.14207 -0.79158641
| 14> N   -1.50706556 -0.30776928 -1.17481764
| 15> C   1.58950977 0.51818984 0.94873876
| 16> C   -0.63765601 1.56472146 0.05014897
| 17> C   0.37719205 -0.1494989 1.57765866
| 18> C   -0.91654252 0.72453344 1.27256637
| 19> C   2.31205304 1.58881436 1.69172058
| 20> C   -0.59522729 3.04547847 0.11200719
| 21> C   2.17091513 0.01393673 -0.28221379
| 22> C   -0.8229558 0.91066278 -1.23727108
| 23> C   0.73141331 -1.98181759 -0.1071222
| 24> C   -2.31642168 -0.72301589 -0.12936803
| 25> H   0.50258817 -0.1781469 2.65956213
| 26> H   -1.078416 1.37944944 2.13451243
| 27> H   3.00709359 2.11852681 1.04920893
| 28> H   1.62302128 2.31257774 2.16454427
| 29> H   2.86923065 1.14755673 2.52771075
| 30> H   -1.5757267 3.43324586 0.37882797
| 31> H   0.0581592 3.40260104 0.90603201
| 32> H   -0.2886923 3.43076832 -0.85846958
| 33> H   -0.37700404 -2.1350027 1.54640788
| 34> H   -2.67575548 -0.36187753 1.82663835
| 35> H   1.99505966 -1.50807372 -1.65405494
| 36> H   -1.66063818 -0.78700275 -2.0574769
| 37> *
| 38> 
| 39>                          ****END OF INPUT****
================================================================================

                     *******************************
                     * Energy+Gradient Calculation *
                     *******************************

---------------------------------
CARTESIAN COORDINATES (ANGSTROEM)
---------------------------------
  O      3.117892    0.538016   -0.858139
  O     -0.440906    1.343176   -2.314006
  O      0.426133   -3.067037   -0.546086
  O     -3.148618   -1.595768   -0.246400
  N      0.285052   -1.518185    1.102557
  N     -2.129399   -0.028553    1.046899
  N      1.588717   -1.142070   -0.791586
  N     -1.507066   -0.307769   -1.174818
  C      1.589510    0.518190    0.948739
  C     -0.637656    1.564721    0.050149
  C      0.377192   -0.149499    1.577659
  C     -0.916543    0.724533    1.272566
  C      2.312053    1.588814    1.691721
  C     -0.595227    3.045478    0.112007
  C      2.170915    0.013937   -0.282214
  C     -0.822956    0.910663   -1.237271
  C      0.731413   -1.981818   -0.107122
  C     -2.316422   -0.723016   -0.129368
  H      0.502588   -0.178147    2.659562
  H     -1.078416    1.379449    2.134512
  H      3.007094    2.118527    1.049209
  H      1.623021    2.312578    2.164544
  H      2.869231    1.147557    2.527711
  H     -1.575727    3.433246    0.378828
  H      0.058159    3.402601    0.906032
  H     -0.288692    3.430768   -0.858470
  H     -0.377004   -2.135003    1.546408
  H     -2.675755   -0.361878    1.826638
  H      1.995060   -1.508074   -1.654055
  H     -1.660638   -0.787003   -2.057477

----------------------------
CARTESIAN COORDINATES (A.U.)
----------------------------
  NO LB      ZA    FRAG     MASS         X           Y           Z
   0 O     8.0000    0    15.999    5.891962    1.016702   -1.621647
   1 O     8.0000    0    15.999   -0.833192    2.538234   -4.372838
   2 O     8.0000    0    15.999    0.805274   -5.795861   -1.031953
   3 O     8.0000    0    15.999   -5.950025   -3.015564   -0.465628
   4 N     7.0000    0    14.007    0.538671   -2.868954    2.083531
   5 N     7.0000    0    14.007   -4.023980   -0.053957    1.978352
   6 N     7.0000    0    14.007    3.002241   -2.158200   -1.495882
   7 N     7.0000    0    14.007   -2.847941   -0.581600   -2.220084
   8 C     6.0000    0    12.011    3.003738    0.979237    1.792856
   9 C     6.0000    0    12.011   -1.204995    2.956895    0.094768
  10 C     6.0000    0    12.011    0.712790   -0.282512    2.981343
  11 C     6.0000    0    12.011   -1.732014    1.369170    2.404802
  12 C     6.0000    0    12.011    4.369147    3.002424    3.196889
  13 C     6.0000    0    12.011   -1.124817    5.755120    0.211663
  14 C     6.0000    0    12.011    4.102435    0.026337   -0.533307
  15 C     6.0000    0    12.011   -1.555161    1.720903   -2.338103
  16 C     6.0000    0    12.011    1.382171   -3.745092   -0.202432
  17 C     6.0000    0    12.011   -4.377403   -1.366302   -0.244470
  18 H     1.0000    0     1.008    0.949754   -0.336649    5.025844
  19 H     1.0000    0     1.008   -2.037911    2.606782    4.033644
  20 H     1.0000    0     1.008    5.682583    4.003435    1.982718
  21 H     1.0000    0     1.008    3.067066    4.370139    4.090396
  22 H     1.0000    0     1.008    5.422060    2.168568    4.776681
  23 H     1.0000    0     1.008   -2.977692    6.487894    0.715881
  24 H     1.0000    0     1.008    0.109905    6.429984    1.712152
  25 H     1.0000    0     1.008   -0.545549    6.483213   -1.622272
  26 H     1.0000    0     1.008   -0.712434   -4.034570    2.922287
  27 H     1.0000    0     1.008   -5.056445   -0.683849    3.451846
  28 H     1.0000    0     1.008    3.770116   -2.849846   -3.125711
  29 H     1.0000    0     1.008   -3.138151   -1.487220   -3.888068

--------------------------------
INTERNAL COORDINATES (ANGSTROEM)
--------------------------------
 O      0   0   0     0.000000000000     0.00000000     0.00000000
 O      1   0   0     3.928470251537     0.00000000     0.00000000
 O      1   2   0     4.509916999345    69.43844514     0.00000000
 O      3   1   2     3.877278389348   104.61403162   331.43624867
 N      3   1   2     2.266466446198    62.69145305   276.07252106
 N      4   3   1     2.273233429911    83.81195049   321.42937315
 N      3   1   2     2.262161075100     6.03504142   357.24069807
 N      2   1   3     2.271577899943    95.18500082    22.08376539
 C      1   2   3     2.366675170161    72.52015406   292.34127222
 C      2   1   3     2.382650483710    74.10624137    81.06916866
 C      5   3   1     1.451727714452   151.44900673    30.50748083
 C      6   4   3     1.445366571158   145.51461869    32.44538533
 C      9   1   2     1.490076382169    93.52668766   238.65177359
 C     10   2   1     1.482655711326    97.57929177   102.07445424
 C      1   2   3     1.226015220531    64.02240825   324.04956572
 C      2   1   3     1.221633408677    83.34485491    52.09377799
 C      3   1   2     1.209788104359    32.58870806   283.38089080
 C      4   3   1     1.211586583703    69.36174939   349.42042928
 H     11   5   3     1.089522837399   107.90818388   200.09925800
 H     12   6   4     1.094563383698   108.09573945   179.99202938
 H     13   9   1     1.084664863548   111.48453073    16.02063186
 H     13   9   1     1.105513653621   112.42204031   139.35669980
 H     13   9   1     1.097285172348   109.70466729   255.43073380
 H     14  10   2     1.087628599476   109.90771526   109.17314567
 H     14  10   2     1.088542994141   112.04061343   224.51151412
 H     14  10   2     1.088226598516   108.93247167   348.25555136
 H      5   3   1     1.007862162172    86.73236699   183.33386076
 H      6   4   3     1.008764304915    88.23041683   244.33483791
 H      7   3  17     1.021236874121    89.49401319   176.67149263
 H      8   2   1     1.016039683106    88.74390626   248.54539550

---------------------------
INTERNAL COORDINATES (A.U.)
---------------------------
 O      0   0   0     0.000000000000     0.00000000     0.00000000
 O      1   0   0     7.423732900662     0.00000000     0.00000000
 O      1   2   0     8.522508015479    69.43844514     0.00000000
 O      3   1   2     7.326994300839   104.61403162   331.43624867
 N      3   1   2     4.283000875035    62.69145305   276.07252106
 N      4   3   1     4.295788621006    83.81195049   321.42937315
 N      3   1   2     4.274864902756     6.03504142   357.24069807
 N      2   1   3     4.292660122760    95.18500082    22.08376539
 C      1   2   3     4.472367919555    72.52015406   292.34127222
 C      2   1   3     4.502556887066    74.10624137    81.06916866
 C      5   3   1     2.743367801337   151.44900673    30.50748083
 C      6   4   3     2.731346982613   145.51461869    32.44538533
 C      9   1   2     2.815836280924    93.52668766   238.65177359
 C     10   2   1     2.801813245300    97.57929177   102.07445424
 C      1   2   3     2.316833002824    64.02240825   324.04956572
 C      2   1   3     2.308552578449    83.34485491    52.09377799
 C      3   1   2     2.286168197315    32.58870806   283.38089080
 C      4   3   1     2.289566830733    69.36174939   349.42042928
 H     11   5   3     2.058899779336   107.90818388   200.09925800
 H     12   6   4     2.068425031408   108.09573945   179.99202938
 H     13   9   1     2.049719539192   111.48453073    16.02063186
 H     13   9   1     2.089118042655   112.42204031   139.35669980
 H     13   9   1     2.073568466551   109.70466729   255.43073380
 H     14  10   2     2.055320188429   109.90771526   109.17314567
 H     14  10   2     2.057048143926   112.04061343   224.51151412
 H     14  10   2     2.056450242843   108.93247167   348.25555136
 H      5   3   1     1.904583467247    86.73236699   183.33386076
 H      6   4   3     1.906288269965    88.23041683   244.33483791
 H      7   3  17     1.929858009950    89.49401319   176.67149263
 H      8   2   1     1.920036742266    88.74390626   248.54539550

---------------------
BASIS SET INFORMATION
---------------------
There are 4 groups of distinct atoms

 Group   1 Type O   : 12s7p3d1f contracted to 6s4p3d1f pattern {621111/4111/111/1}
 Group   2 Type N   : 12s6p3d1f contracted to 6s3p3d1f pattern {621111/411/111/1}
 Group   3 Type C   : 12s6p3d1f contracted to 6s3p3d1f pattern {621111/411/111/1}
 Group   4 Type H   : 5s3p1d contracted to 3s3p1d pattern {311/111/1}

Atom   0O    basis set group =>   1
Atom   1O    basis set group =>   1
Atom   2O    basis set group =>   1
Atom   3O    basis set group =>   1
Atom   4N    basis set group =>   2
Atom   5N    basis set group =>   2
Atom   6N    basis set group =>   2
Atom   7N    basis set group =>   2
Atom   8C    basis set group =>   3
Atom   9C    basis set group =>   3
Atom  10C    basis set group =>   3
Atom  11C    basis set group =>   3
Atom  12C    basis set group =>   3
Atom  13C    basis set group =>   3
Atom  14C    basis set group =>   3
Atom  15C    basis set group =>   3
Atom  16C    basis set group =>   3
Atom  17C    basis set group =>   3
Atom  18H    basis set group =>   4
Atom  19H    basis set group =>   4
Atom  20H    basis set group =>   4
Atom  21H    basis set group =>   4
Atom  22H    basis set group =>   4
Atom  23H    basis set group =>   4
Atom  24H    basis set group =>   4
Atom  25H    basis set group =>   4
Atom  26H    basis set group =>   4
Atom  27H    basis set group =>   4
Atom  28H    basis set group =>   4
Atom  29H    basis set group =>   4
---------------------------------
AUXILIARY/J BASIS SET INFORMATION
---------------------------------
There are 4 groups of distinct atoms

 Group   1 Type O   : 12s5p4d2f1g contracted to 6s4p3d1f1g pattern {711111/2111/211/2/1}
 Group   2 Type N   : 12s5p4d2f1g contracted to 6s4p3d1f1g pattern {711111/2111/211/2/1}
 Group   3 Type C   : 12s5p4d2f1g contracted to 6s4p3d1f1g pattern {711111/2111/211/2/1}
 Group   4 Type H   : 5s2p1d contracted to 3s1p1d pattern {311/2/1}

Atom   0O    basis set group =>   1
Atom   1O    basis set group =>   1
Atom   2O    basis set group =>   1
Atom   3O    basis set group =>   1
Atom   4N    basis set group =>   2
Atom   5N    basis set group =>   2
Atom   6N    basis set group =>   2
Atom   7N    basis set group =>   2
Atom   8C    basis set group =>   3
Atom   9C    basis set group =>   3
Atom  10C    basis set group =>   3
Atom  11C    basis set group =>   3
Atom  12C    basis set group =>   3
Atom  13C    basis set group =>   3
Atom  14C    basis set group =>   3
Atom  15C    basis set group =>   3
Atom  16C    basis set group =>   3
Atom  17C    basis set group =>   3
Atom  18H    basis set group =>   4
Atom  19H    basis set group =>   4
Atom  20H    basis set group =>   4
Atom  21H    basis set group =>   4
Atom  22H    basis set group =>   4
Atom  23H    basis set group =>   4
Atom  24H    basis set group =>   4
Atom  25H    basis set group =>   4
Atom  26H    basis set group =>   4
Atom  27H    basis set group =>   4
Atom  28H    basis set group =>   4
Atom  29H    basis set group =>   4
[1739895765.902428] [ohm:249849:0]        ib_iface.c:1059 UCX  ERROR ibv_create_cq(cqe=256) failed: Connection timed out
[1739895765.904003] [ohm:249840:0]        ib_iface.c:1059 UCX  ERROR ibv_create_cq(cqe=256) failed: Connection timed out
[1739895765.905792] [ohm:249841:0]        ib_iface.c:1059 UCX  ERROR ibv_create_cq(cqe=256) failed: Connection timed out
[1739895765.909814] [ohm:249854:0]        ib_iface.c:1059 UCX  ERROR ibv_create_cq(cqe=256) failed: Connection timed out
[1739895765.910054] [ohm:249843:0]        ib_iface.c:1059 UCX  ERROR ibv_create_cq(cqe=256) failed: Connection timed out
[1739895765.915564] [ohm:249846:0]        ib_iface.c:1059 UCX  ERROR ibv_create_cq(cqe=256) failed: Connection timed out
[1739895765.919094] [ohm:249851:0]        ib_iface.c:1059 UCX  ERROR ibv_create_cq(cqe=256) failed: Connection timed out
[1739895765.928043] [ohm:249847:0]        ib_iface.c:1059 UCX  ERROR ibv_create_cq(cqe=256) failed: Connection timed out
[1739895765.936305] [ohm:249859:0]        ib_iface.c:1059 UCX  ERROR ibv_create_cq(cqe=256) failed: Connection timed out
[1739895765.938647] [ohm:249871:0]        ib_iface.c:1059 UCX  ERROR ibv_create_cq(cqe=256) failed: Connection timed out
[1739895765.939651] [ohm:249845:0]        ib_iface.c:1059 UCX  ERROR ibv_create_cq(cqe=256) failed: Connection timed out
[1739895765.940181] [ohm:249844:0]        ib_iface.c:1059 UCX  ERROR ibv_create_cq(cqe=256) failed: Connection timed out
[1739895765.943640] [ohm:249842:0]        ib_iface.c:1059 UCX  ERROR ibv_create_cq(cqe=256) failed: Connection timed out
[1739895765.950497] [ohm:249866:0]        ib_iface.c:1059 UCX  ERROR ibv_create_cq(cqe=256) failed: Connection timed out
[1739895765.958911] [ohm:249908:0]        ib_iface.c:1059 UCX  ERROR ibv_create_cq(cqe=256) failed: Connection timed out
[1739895765.970887] [ohm:249857:0]        ib_iface.c:1059 UCX  ERROR ibv_create_cq(cqe=256) failed: Connection timed out
[1739895765.980342] [ohm:249864:0]        ib_iface.c:1059 UCX  ERROR ibv_create_cq(cqe=256) failed: Connection timed out
[1739895765.993286] [ohm:249948:0]        ib_iface.c:1059 UCX  ERROR ibv_create_cq(cqe=256) failed: Connection timed out
[1739895766.018628] [ohm:249861:0]        ib_iface.c:1059 UCX  ERROR ibv_create_cq(cqe=256) failed: Connection timed out
[1739895766.032831] [ohm:249855:0]        ib_iface.c:1059 UCX  ERROR ibv_create_cq(cqe=256) failed: Connection timed out
[1739895766.039723] [ohm:249931:0]        ib_iface.c:1059 UCX  ERROR ibv_create_cq(cqe=256) failed: Connection timed out
[1739895766.040899] [ohm:249888:0]        ib_iface.c:1059 UCX  ERROR ibv_create_cq(cqe=256) failed: Connection timed out
[1739895766.042042] [ohm:249850:0]        ib_iface.c:1059 UCX  ERROR ibv_create_cq(cqe=256) failed: Connection timed out
[1739895766.043963] [ohm:249961:0]        ib_iface.c:1059 UCX  ERROR ibv_create_cq(cqe=256) failed: Connection timed out
[1739895766.045054] [ohm:249917:0]        ib_iface.c:1059 UCX  ERROR ibv_create_cq(cqe=256) failed: Connection timed out
[1739895766.084429] [ohm:249853:0]        ib_iface.c:1059 UCX  ERROR ibv_create_cq(cqe=256) failed: Connection timed out
[1739895766.094928] [ohm:249874:0]        ib_iface.c:1059 UCX  ERROR ibv_create_cq(cqe=256) failed: Connection timed out
[1739895766.100441] [ohm:249973:0]        ib_iface.c:1059 UCX  ERROR ibv_create_cq(cqe=256) failed: Connection timed out
[1739895766.101027] [ohm:249875:0]        ib_iface.c:1059 UCX  ERROR ibv_create_cq(cqe=256) failed: Connection timed out
[1739895766.106490] [ohm:249912:0]        ib_iface.c:1059 UCX  ERROR ibv_create_cq(cqe=256) failed: Connection timed out
[1739895766.106950] [ohm:249924:0]        ib_iface.c:1059 UCX  ERROR ibv_create_cq(cqe=256) failed: Connection timed out
[1739895766.119384] [ohm:249958:0]        ib_iface.c:1059 UCX  ERROR ibv_create_cq(cqe=256) failed: Connection timed out
[1739895766.120699] [ohm:249865:0]        ib_iface.c:1059 UCX  ERROR ibv_create_cq(cqe=256) failed: Connection timed out
[1739895766.124160] [ohm:249952:0]        ib_iface.c:1059 UCX  ERROR ibv_create_cq(cqe=256) failed: Connection timed out
[1739895766.125702] [ohm:249978:0]        ib_iface.c:1059 UCX  ERROR ibv_create_cq(cqe=256) failed: Connection timed out
[1739895766.125700] [ohm:249990:0]        ib_iface.c:1059 UCX  ERROR ibv_create_cq(cqe=256) failed: Connection timed out
[1739895766.131450] [ohm:249862:0]        ib_iface.c:1059 UCX  ERROR ibv_create_cq(cqe=256) failed: Connection timed out
[1739895766.137135] [ohm:249971:0]        ib_iface.c:1059 UCX  ERROR ibv_create_cq(cqe=256) failed: Connection timed out
[1739895766.152425] [ohm:249839:0]        ib_iface.c:1059 UCX  ERROR ibv_create_cq(cqe=256) failed: Connection timed out
[1739895766.154189] [ohm:249885:0]        ib_iface.c:1059 UCX  ERROR ibv_create_cq(cqe=256) failed: Connection timed out
[1739895766.156820] [ohm:249867:0]        ib_iface.c:1059 UCX  ERROR ibv_create_cq(cqe=256) failed: Connection timed out
[1739895766.157278] [ohm:249942:0]        ib_iface.c:1059 UCX  ERROR ibv_create_cq(cqe=256) failed: Connection timed out
[1739895766.163803] [ohm:249935:0]        ib_iface.c:1059 UCX  ERROR ibv_create_cq(cqe=256) failed: Connection timed out
[1739895766.168352] [ohm:249920:0]        ib_iface.c:1059 UCX  ERROR ibv_create_cq(cqe=256) failed: Connection timed out
[1739895766.170427] [ohm:249882:0]        ib_iface.c:1059 UCX  ERROR ibv_create_cq(cqe=256) failed: Connection timed out
[1739895766.175561] [ohm:249858:0]        ib_iface.c:1059 UCX  ERROR ibv_create_cq(cqe=256) failed: Connection timed out
[1739895766.183839] [ohm:249955:0]        ib_iface.c:1059 UCX  ERROR ibv_create_cq(cqe=256) failed: Connection timed out
[1739895766.186261] [ohm:249895:0]        ib_iface.c:1059 UCX  ERROR ibv_create_cq(cqe=256) failed: Connection timed out
[1739895766.194452] [ohm:249848:0]        ib_iface.c:1059 UCX  ERROR ibv_create_cq(cqe=256) failed: Connection timed out
[1739895766.194785] [ohm:249863:0]        ib_iface.c:1059 UCX  ERROR ibv_create_cq(cqe=256) failed: Connection timed out
[1739895766.195132] [ohm:249934:0]        ib_iface.c:1059 UCX  ERROR ibv_create_cq(cqe=256) failed: Connection timed out
[1739895766.195783] [ohm:249900:0]        ib_iface.c:1059 UCX  ERROR ibv_create_cq(cqe=256) failed: Connection timed out
[1739895766.197077] [ohm:249897:0]        ib_iface.c:1059 UCX  ERROR ibv_create_cq(cqe=256) failed: Connection timed out
[1739895766.197298] [ohm:249926:0]        ib_iface.c:1059 UCX  ERROR ibv_create_cq(cqe=256) failed: Connection timed out
[1739895766.197988] [ohm:249967:0]        ib_iface.c:1059 UCX  ERROR ibv_create_cq(cqe=256) failed: Connection timed out
[1739895766.198643] [ohm:249902:0]        ib_iface.c:1059 UCX  ERROR ibv_create_cq(cqe=256) failed: Connection timed out
[1739895766.198645] [ohm:249983:0]        ib_iface.c:1059 UCX  ERROR ibv_create_cq(cqe=256) failed: Connection timed out
[1739895766.198797] [ohm:249893:0]        ib_iface.c:1059 UCX  ERROR ibv_create_cq(cqe=256) failed: Connection timed out
[1739895766.202403] [ohm:249852:0]        ib_iface.c:1059 UCX  ERROR ibv_create_cq(cqe=256) failed: Connection timed out
[1739895766.202990] [ohm:249963:0]        ib_iface.c:1059 UCX  ERROR ibv_create_cq(cqe=256) failed: Connection timed out
[1739895766.204231] [ohm:249945:0]        ib_iface.c:1059 UCX  ERROR ibv_create_cq(cqe=256) failed: Connection timed out
[1739895766.204303] [ohm:249856:0]        ib_iface.c:1059 UCX  ERROR ibv_create_cq(cqe=256) failed: Connection timed out
[1739895766.206298] [ohm:249938:0]        ib_iface.c:1059 UCX  ERROR ibv_create_cq(cqe=256) failed: Connection timed out
[1739895766.206549] [ohm:249860:0]        ib_iface.c:1059 UCX  ERROR ibv_create_cq(cqe=256) failed: Connection timed out


           ************************************************************
           *        Program running with 64 parallel MPI-processes    *
           *              working on a common directory               *
           ************************************************************
------------------------------------------------------------------------------
                             ORCA STARTUP CALCULATIONS
                           -- RI-GTO INTEGRALS CHOSEN --
------------------------------------------------------------------------------
------------------------------------------------------------------------------
                   ___                                                        
                  /   \      - P O W E R E D   B Y -                         
                 /     \                                                     
                 |  |  |   _    _      __       _____    __    __             
                 |  |  |  | |  | |    /  \     |  _  \  |  |  /  |          
                  \  \/   | |  | |   /    \    | | | |  |  | /  /          
                 / \  \   | |__| |  /  /\  \   | |_| |  |  |/  /          
                |  |  |   |  __  | /  /__\  \  |    /   |      \           
                |  |  |   | |  | | |   __   |  |    \   |  |\   \          
                \     /   | |  | | |  |  |  |  | |\  \  |  | \   \       
                 \___/    |_|  |_| |__|  |__|  |_| \__\ |__|  \__/        
                                                                              
                      - O R C A' S   B I G   F R I E N D -                    
                                      &                                       
                       - I N T E G R A L  F E E D E R -                       
                                                                              
 v1 FN, 2020, v2 2021, v3 2022-2024                                           
------------------------------------------------------------------------------


----------------------
SHARK INTEGRAL PACKAGE
----------------------

Number of atoms                             ...     30
Number of basis functions                   ...    882
Number of shells                            ...    322
Maximum angular momentum                    ...      3
Integral batch strategy                     ... SHARK/LIBINT Hybrid
RI-J (if used) integral strategy            ... SPLIT-RIJ (Revised 2003 algorithm where possible)
Printlevel                                  ...      1
Contraction scheme used                     ... SEGMENTED contraction
Prescreening option                         ... SCHWARTZ
   Thresh                                   ... 2.500e-11
   Tcut                                     ... 2.500e-12
   Tpresel                                  ... 2.500e-12 
Coulomb Range Separation                    ... NOT USED
Exchange Range Separation                   ... Long Range
   Mu parameter                             ... 3.000e-01
   Scaling (regular/separated)              ... 1.500e-01 8.500e-01
Multipole approximations                    ... NOT USED
Finite Nucleus Model                        ... NOT USED
CABS basis                                  ... NOT available
Auxiliary Coulomb fitting basis             ... AVAILABLE
   # of basis functions in Aux-J            ...   1014
   # of shells in Aux-J                     ...    330
   Maximum angular momentum in Aux-J        ...      4
Auxiliary J/K fitting basis                 ... NOT available
Auxiliary Correlation fitting basis         ... NOT available
Auxiliary 'external' fitting basis          ... NOT available

Checking pre-screening integrals            ... done (  0.0 sec) Dimension = 322
Check shell pair data                       ... done (  0.0 sec)
Shell pair information
Shell pair cut-off parameter TPreSel        ...   2.5e-12
Total number of shell pairs                 ...     52003
Shell pairs after pre-screening             ...     45318
Total number of primitive shell pairs       ...    129718
Primitive shell pairs kept                  ...     84762
          la=0 lb=0:   8769 shell pairs
          la=1 lb=0:  11961 shell pairs
          la=1 lb=1:   4131 shell pairs
          la=2 lb=0:   8136 shell pairs
          la=2 lb=1:   5617 shell pairs
          la=2 lb=2:   1943 shell pairs
          la=3 lb=0:   2101 shell pairs
          la=3 lb=1:   1495 shell pairs
          la=3 lb=2:   1023 shell pairs
          la=3 lb=3:    142 shell pairs

Calculating one electron integrals          ... done (  0.2 sec)
Calculating RI/J V-Matrix + Cholesky decomp.... done (  0.0 sec)
Calculating Nuclear repulsion               ... done (  0.0 sec) ENN=   1462.885855454676 Eh

Diagonalization of the overlap matrix:
Smallest eigenvalue                        ... 3.558e-07
Time for diagonalization                   ...    0.129 sec
Threshold for overlap eigenvalues          ... 1.000e-07
Number of eigenvalues below threshold      ... 0

IMPORTANT:
Smallest eigenvalue of S below the DiffSThresh (1.000e-06) while
Thresh>1e-12 and/or TCut>1e-13! In order to avoid SCF convergence issues,
Thresh will be set to at least 1e-12 and TCut to at least 1e-13.
This can be turned off by adding %SCF DiffSThresh -1 END to the input.

Time for construction of square roots      ...    0.136 sec
Total time needed                          ...    0.277 sec

-------------------
DFT GRID GENERATION
-------------------

General Integration Accuracy     IntAcc      ... 4.388
Radial Grid Type                 RadialGrid  ... OptM3 with GC (2021)
Angular Grid (max. ang.)         AngularGrid ... 4 (Lebedev-302)
Angular grid pruning method      GridPruning ... 4 (adaptive)
Weight generation scheme         WeightScheme... mBecke (2022)
Basis function cutoff            BFCut       ... 1.0000e-11
Integration weight cutoff        WCut        ... 1.0000e-14
Partially contracted basis set               ... off
Rotationally invariant grid construction     ... off
Angular grids for H and He will be reduced by one unit
Diffuse basis detected: some atoms will have their outermost
                        angular grid increased by 1.

Total number of grid points                  ...   151903
Total number of batches                      ...     2386
Average number of points per batch           ...       63
Average number of grid points per atom       ...     5063

--------------------
COSX GRID GENERATION
--------------------

GRIDX 1
-------
General Integration Accuracy     IntAcc      ... 3.816
Radial Grid Type                 RadialGrid  ... OptM3 with GC (2021)
Angular Grid (max. ang.)         AngularGrid ... 1 (Lebedev-50)
Angular grid pruning method      GridPruning ... 4 (adaptive)
Weight generation scheme         WeightScheme... mBecke (2022)
Basis function cutoff            BFCut       ... 1.0000e-11
Integration weight cutoff        WCut        ... 1.0000e-14
Partially contracted basis set               ... on
Rotationally invariant grid construction     ... off
Angular grids for H and He will be reduced by one unit
Diffuse basis detected: some atoms will have their outermost
                        angular grid increased by 1.

Total number of grid points                  ...    18993
Total number of batches                      ...      166
Average number of points per batch           ...      114
Average number of grid points per atom       ...      633
UseSFitting                                  ... on

GRIDX 2
-------
General Integration Accuracy     IntAcc      ... 4.020
Radial Grid Type                 RadialGrid  ... OptM3 with GC (2021)
Angular Grid (max. ang.)         AngularGrid ... 2 (Lebedev-110)
Angular grid pruning method      GridPruning ... 4 (adaptive)
Weight generation scheme         WeightScheme... mBecke (2022)
Basis function cutoff            BFCut       ... 1.0000e-11
Integration weight cutoff        WCut        ... 1.0000e-14
Partially contracted basis set               ... on
Rotationally invariant grid construction     ... off
Angular grids for H and He will be reduced by one unit
Diffuse basis detected: some atoms will have their outermost
                        angular grid increased by 1.

Total number of grid points                  ...    45824
Total number of batches                      ...      373
Average number of points per batch           ...      122
Average number of grid points per atom       ...     1527
UseSFitting                                  ... on

GRIDX 3
-------
General Integration Accuracy     IntAcc      ... 4.338
Radial Grid Type                 RadialGrid  ... OptM3 with GC (2021)
Angular Grid (max. ang.)         AngularGrid ... 3 (Lebedev-194)
Angular grid pruning method      GridPruning ... 4 (adaptive)
Weight generation scheme         WeightScheme... mBecke (2022)
Basis function cutoff            BFCut       ... 1.0000e-11
Integration weight cutoff        WCut        ... 1.0000e-14
Partially contracted basis set               ... on
Rotationally invariant grid construction     ... off
Angular grids for H and He will be reduced by one unit
Diffuse basis detected: some atoms will have their outermost
                        angular grid increased by 1.

Total number of grid points                  ...   100813
Total number of batches                      ...      803
Average number of points per batch           ...      125
Average number of grid points per atom       ...     3360
UseSFitting                                  ... on
Initializing property integral containers    ... done (  0.0 sec)

SHARK setup successfully completed in   4.2 seconds

Maximum memory used throughout the entire STARTUP-calculation: 80.4 MB
[1739895772.344035] [ohm:250213:0]        ib_iface.c:1059 UCX  ERROR ibv_create_cq(cqe=256) failed: Connection timed out
[1739895772.344816] [ohm:250221:0]        ib_iface.c:1059 UCX  ERROR ibv_create_cq(cqe=256) failed: Connection timed out
[1739895772.351729] [ohm:250215:0]        ib_iface.c:1059 UCX  ERROR ibv_create_cq(cqe=256) failed: Connection timed out
[1739895772.364144] [ohm:250219:0]        ib_iface.c:1059 UCX  ERROR ibv_create_cq(cqe=256) failed: Connection timed out
[1739895772.371099] [ohm:250216:0]        ib_iface.c:1059 UCX  ERROR ibv_create_cq(cqe=256) failed: Connection timed out
[1739895772.405520] [ohm:250233:0]        ib_iface.c:1059 UCX  ERROR ibv_create_cq(cqe=256) failed: Connection timed out
[1739895772.407466] [ohm:250222:0]        ib_iface.c:1059 UCX  ERROR ibv_create_cq(cqe=256) failed: Connection timed out
[1739895772.408725] [ohm:250226:0]        ib_iface.c:1059 UCX  ERROR ibv_create_cq(cqe=256) failed: Connection timed out
[1739895772.413850] [ohm:250225:0]        ib_iface.c:1059 UCX  ERROR ibv_create_cq(cqe=256) failed: Connection timed out
[1739895772.426259] [ohm:250234:0]        ib_iface.c:1059 UCX  ERROR ibv_create_cq(cqe=256) failed: Connection timed out
[1739895772.487101] [ohm:250228:0]        ib_iface.c:1059 UCX  ERROR ibv_create_cq(cqe=256) failed: Connection timed out
[1739895772.499383] [ohm:250232:0]        ib_iface.c:1059 UCX  ERROR ibv_create_cq(cqe=256) failed: Connection timed out
[1739895772.503891] [ohm:250229:0]        ib_iface.c:1059 UCX  ERROR ibv_create_cq(cqe=256) failed: Connection timed out
[1739895772.506581] [ohm:250218:0]        ib_iface.c:1059 UCX  ERROR ibv_create_cq(cqe=256) failed: Connection timed out
[1739895772.510716] [ohm:250224:0]        ib_iface.c:1059 UCX  ERROR ibv_create_cq(cqe=256) failed: Connection timed out
[1739895772.512979] [ohm:250288:0]        ib_iface.c:1059 UCX  ERROR ibv_create_cq(cqe=256) failed: Connection timed out
[1739895772.518626] [ohm:250223:0]        ib_iface.c:1059 UCX  ERROR ibv_create_cq(cqe=256) failed: Connection timed out
[1739895772.532969] [ohm:250247:0]        ib_iface.c:1059 UCX  ERROR ibv_create_cq(cqe=256) failed: Connection timed out
[1739895772.534415] [ohm:250269:0]        ib_iface.c:1059 UCX  ERROR ibv_create_cq(cqe=256) failed: Connection timed out
[1739895772.548276] [ohm:250290:0]        ib_iface.c:1059 UCX  ERROR ibv_create_cq(cqe=256) failed: Connection timed out
[1739895772.551961] [ohm:250283:0]        ib_iface.c:1059 UCX  ERROR ibv_create_cq(cqe=256) failed: Connection timed out
[1739895772.556697] [ohm:250262:0]        ib_iface.c:1059 UCX  ERROR ibv_create_cq(cqe=256) failed: Connection timed out
[1739895772.565515] [ohm:250312:0]        ib_iface.c:1059 UCX  ERROR ibv_create_cq(cqe=256) failed: Connection timed out
[1739895772.574892] [ohm:250253:0]        ib_iface.c:1059 UCX  ERROR ibv_create_cq(cqe=256) failed: Connection timed out
[1739895772.587023] [ohm:250260:0]        ib_iface.c:1059 UCX  ERROR ibv_create_cq(cqe=256) failed: Connection timed out
[1739895772.587965] [ohm:250296:0]        ib_iface.c:1059 UCX  ERROR ibv_create_cq(cqe=256) failed: Connection timed out
[1739895772.593183] [ohm:250319:0]        ib_iface.c:1059 UCX  ERROR ibv_create_cq(cqe=256) failed: Connection timed out
[1739895772.601174] [ohm:250302:0]        ib_iface.c:1059 UCX  ERROR ibv_create_cq(cqe=256) failed: Connection timed out
[1739895772.601278] [ohm:250265:0]        ib_iface.c:1059 UCX  ERROR ibv_create_cq(cqe=256) failed: Connection timed out
[1739895772.605973] [ohm:250245:0]        ib_iface.c:1059 UCX  ERROR ibv_create_cq(cqe=256) failed: Connection timed out
[1739895772.610508] [ohm:250313:0]        ib_iface.c:1059 UCX  ERROR ibv_create_cq(cqe=256) failed: Connection timed out
[1739895772.611887] [ohm:250299:0]        ib_iface.c:1059 UCX  ERROR ibv_create_cq(cqe=256) failed: Connection timed out
[1739895772.612132] [ohm:250347:0]        ib_iface.c:1059 UCX  ERROR ibv_create_cq(cqe=256) failed: Connection timed out
[1739895772.617024] [ohm:250278:0]        ib_iface.c:1059 UCX  ERROR ibv_create_cq(cqe=256) failed: Connection timed out
[1739895772.617298] [ohm:250236:0]        ib_iface.c:1059 UCX  ERROR ibv_create_cq(cqe=256) failed: Connection timed out
[1739895772.622452] [ohm:250341:0]        ib_iface.c:1059 UCX  ERROR ibv_create_cq(cqe=256) failed: Connection timed out
[1739895772.625766] [ohm:250238:0]        ib_iface.c:1059 UCX  ERROR ibv_create_cq(cqe=256) failed: Connection timed out
[1739895772.636321] [ohm:250241:0]        ib_iface.c:1059 UCX  ERROR ibv_create_cq(cqe=256) failed: Connection timed out
[1739895772.639681] [ohm:250336:0]        ib_iface.c:1059 UCX  ERROR ibv_create_cq(cqe=256) failed: Connection timed out
[1739895772.643133] [ohm:250322:0]        ib_iface.c:1059 UCX  ERROR ibv_create_cq(cqe=256) failed: Connection timed out
[1739895772.648640] [ohm:250255:0]        ib_iface.c:1059 UCX  ERROR ibv_create_cq(cqe=256) failed: Connection timed out
[1739895772.649616] [ohm:250325:0]        ib_iface.c:1059 UCX  ERROR ibv_create_cq(cqe=256) failed: Connection timed out
[1739895772.656787] [ohm:250217:0]        ib_iface.c:1059 UCX  ERROR ibv_create_cq(cqe=256) failed: Connection timed out
[1739895772.656839] [ohm:250316:0]        ib_iface.c:1059 UCX  ERROR ibv_create_cq(cqe=256) failed: Connection timed out
[1739895772.663526] [ohm:250267:0]        ib_iface.c:1059 UCX  ERROR ibv_create_cq(cqe=256) failed: Connection timed out
[1739895772.671156] [ohm:250349:0]        ib_iface.c:1059 UCX  ERROR ibv_create_cq(cqe=256) failed: Connection timed out
[1739895772.680907] [ohm:250330:0]        ib_iface.c:1059 UCX  ERROR ibv_create_cq(cqe=256) failed: Connection timed out
[1739895772.682772] [ohm:250272:0]        ib_iface.c:1059 UCX  ERROR ibv_create_cq(cqe=256) failed: Connection timed out
[1739895772.683364] [ohm:250227:0]        ib_iface.c:1059 UCX  ERROR ibv_create_cq(cqe=256) failed: Connection timed out
[1739895772.686516] [ohm:250293:0]        ib_iface.c:1059 UCX  ERROR ibv_create_cq(cqe=256) failed: Connection timed out
[1739895772.687445] [ohm:250339:0]        ib_iface.c:1059 UCX  ERROR ibv_create_cq(cqe=256) failed: Connection timed out
[1739895772.687861] [ohm:250304:0]        ib_iface.c:1059 UCX  ERROR ibv_create_cq(cqe=256) failed: Connection timed out
[1739895772.688880] [ohm:250237:0]        ib_iface.c:1059 UCX  ERROR ibv_create_cq(cqe=256) failed: Connection timed out
[1739895772.690406] [ohm:250235:0]        ib_iface.c:1059 UCX  ERROR ibv_create_cq(cqe=256) failed: Connection timed out
[1739895772.692449] [ohm:250230:0]        ib_iface.c:1059 UCX  ERROR ibv_create_cq(cqe=256) failed: Connection timed out
[1739895772.694920] [ohm:250214:0]        ib_iface.c:1059 UCX  ERROR ibv_create_cq(cqe=256) failed: Connection timed out
[1739895772.696300] [ohm:250353:0]        ib_iface.c:1059 UCX  ERROR ibv_create_cq(cqe=256) failed: Connection timed out
[1739895772.697872] [ohm:250364:0]        ib_iface.c:1059 UCX  ERROR ibv_create_cq(cqe=256) failed: Connection timed out
[1739895772.698181] [ohm:250220:0]        ib_iface.c:1059 UCX  ERROR ibv_create_cq(cqe=256) failed: Connection timed out
[1739895772.698602] [ohm:250332:0]        ib_iface.c:1059 UCX  ERROR ibv_create_cq(cqe=256) failed: Connection timed out
[1739895772.699157] [ohm:250307:0]        ib_iface.c:1059 UCX  ERROR ibv_create_cq(cqe=256) failed: Connection timed out
[1739895772.699623] [ohm:250231:0]        ib_iface.c:1059 UCX  ERROR ibv_create_cq(cqe=256) failed: Connection timed out
[1739895772.699666] [ohm:250240:0]        ib_iface.c:1059 UCX  ERROR ibv_create_cq(cqe=256) failed: Connection timed out
[1739895772.700379] [ohm:250358:0]        ib_iface.c:1059 UCX  ERROR ibv_create_cq(cqe=256) failed: Connection timed out


           ************************************************************
           *        Program running with 64 parallel MPI-processes    *
           *              working on a common directory               *
           ************************************************************
-------------------------------------------------------------------------------
                                 ORCA GUESS
                   Start orbitals & Density for SCF / CASSCF
-------------------------------------------------------------------------------

------------
SCF SETTINGS
------------
Hamiltonian:
 Density Functional     Method          .... DFT(GTOs)
  Functional kind                       .... Exchange-Correlation
  Functional name                       .... wB97M-V exchange-correlation functional
  Functional family                     .... Hybrid MGGA
  Functional refs                              
    [ 0] N. Mardirossian and M. Head-Gordon.,  J. Chem. Phys. 144, 214110 (2016), doi: 10.1063/1.4952647
  Fraction of HF Exchange (short range) .... 0.1500
  Fraction of HF Exchange (long range)  .... 1.0000
  Range separation parameter mu         .... 0.3000
  Functional external parameters        .... 17
    Parameter  0 _cx00      =  8.500000e-01 : u^00 coefficient for exchange
    Parameter  1 _cx01      =  1.007000e+00 : u^01 coefficient for exchange
    Parameter  2 _cx10      =  2.590000e-01 : u^10 coefficient for exchange
    Parameter  3 _css00     =  4.430000e-01 : u^00 coefficient for same-spin correlation
    Parameter  4 _css04     = -1.437000e+00 : u^04 coefficient for same-spin correlation
    Parameter  5 _css10     = -4.535000e+00 : u^10 coefficient for same-spin correlation
    Parameter  6 _css20     = -3.390000e+00 : u^20 coefficient for same-spin correlation
    Parameter  7 _css43     =  4.278000e+00 : u^43 coefficient for same-spin correlation
    Parameter  8 _cos00     =  1.000000e+00 : u^00 coefficient for opposite-spin correlation
    Parameter  9 _cos10     =  1.358000e+00 : u^10 coefficient for opposite-spin correlation
    Parameter 10 _cos20     =  2.924000e+00 : u^20 coefficient for opposite-spin correlation
    Parameter 11 _cos21     = -8.812000e+00 : u^21 coefficient for opposite-spin correlation
    Parameter 12 _cos60     = -1.390000e+00 : u^60 coefficient for opposite-spin correlation
    Parameter 13 _cos61     =  9.142000e+00 : u^61 coefficient for opposite-spin correlation
    Parameter 14 _alpha     =  1.000000e+00 : fraction of HF exchange
    Parameter 15 _beta      = -8.500000e-01 : fraction of short-range exchange
    Parameter 16 _omega     =  3.000000e-01 : range-separation constant
 Long-range corrected/Screened/Range-Separated Hybrid DFT is turned on
   Amount of maximum screened exact exchange              ....  0.850000
   Range separation parameter mu (erf(mu*r12)/r12)        ....  0.300000
 RI-approximation to the Coulomb term is turned on
   Number of AuxJ basis functions       .... 1014
   RIJ-COSX (HFX calculated with COS-X)).... on


General Settings:
 Integral files         IntName         .... orca
 Hartree-Fock type      HFTyp           .... UHF
 Total Charge           Charge          ....    0
 Multiplicity           Mult            ....    3
 Number of Electrons    NEL             ....  132
 Basis Dimension        Dim             ....  882
 Nuclear Repulsion      ENuc            ....   1462.8858554547 Eh

Convergence Acceleration:
 AO-DIIS                CNVDIIS         .... on
   Start iteration      DIISMaxIt       ....    12
   Startup error        DIISStart       ....  0.200000
   # of expansion vecs  DIISMaxEq       ....     5
   Bias factor          DIISBfac        ....   1.050
   Max. coefficient     DIISMaxC        ....  10.000
 MO-DIIS                CNVKDIIS        .... off
 Trust-Rad. Augm. Hess. CNVTRAH         .... auto
   Auto Start mean grad. ratio tolernc. ....  1.125000
   Auto Start start iteration           ....    50
   Auto Start num. interpolation iter.  ....    10
   Max. Number of Micro iterations      ....    24
   Max. Number of Macro iterations      .... Maxiter - #DIIS iter
   Number of Davidson start vectors     ....     2
   Converg. threshold    (grad. norm)   ....   1.000e-05
   Grad. Scal. Fac. for Micro threshold ....   0.100
   Minimum threshold for Micro iter.    ....   1.000e-02
   NR start threshold (gradient norm)   ....   1.000e-04
   Initial trust radius                 ....   0.400
   Minimum AH scaling param. (alpha)    ....   1.000
   Maximum AH scaling param. (alpha)    .... 1000.000
   Quad. conv. algorithm                .... NR
   White noise on init. David. guess    .... on
   Maximum white noise                  ....   0.010
   Pseudo random numbers                .... off
   Inactive MOs                         .... canonical
   Orbital update algorithm             .... Taylor
   Preconditioner                       .... Diag
   Full preconditioner red. dimension   ....   250
 SOSCF                  CNVSOSCF        .... on
   Start iteration      SOSCFMaxIt      ....   150
   Startup grad/error   SOSCFStart      ....  0.003300
   Hessian update       SOSCFHessUp     .... L-BFGS
 Level Shifting         CNVShift        .... on
   Level shift para.    LevelShift      ....    0.2500
   Turn off err/grad.   ShiftErr        ....    0.0010
 Zerner damping         CNVZerner       .... off
 Static damping         CNVDamp         .... on
   Fraction old density DampFac         ....    0.7000
   Max. Damping (<1)    DampMax         ....    0.9800
   Min. Damping (>=0)   DampMin         ....    0.0000
   Turn off err/grad.   DampErr         ....    0.1000

SCF Procedure:
 Maximum # iterations   MaxIter         ....   125
 SCF integral mode      SCFMode         .... Direct
   Integral package                     .... SHARK and LIBINT hybrid scheme
 Reset frequency        DirectResetFreq ....    20
 Integral Threshold     Thresh          ....  1.000e-12 Eh
 Primitive CutOff       TCut            ....  1.000e-13 Eh

Convergence Tolerance:
 Convergence Check Mode ConvCheckMode   .... Total+1el-Energy
 Convergence forced     ConvForced      .... 1
 Energy Change          TolE            ....  1.000e-08 Eh
 1-El. energy change                    ....  1.000e-05 Eh
 Orbital Gradient       TolG            ....  1.000e-05
 Orbital Rotation angle TolX            ....  1.000e-05
 DIIS Error             TolErr          ....  5.000e-07

------------------------------
INITIAL GUESS: MODEL POTENTIAL
------------------------------
Loading Hartree-Fock densities                     ... done
Calculating cut-offs                               ... done
Initializing the effective Hamiltonian             ... done
Setting up the integral package (SHARK)            ... done
Starting the Coulomb interaction                   ... done (   0.1 sec)
Making the grid                                    ... done (   0.2 sec)
Mapping shells                                     ... done
Starting the XC term evaluation                    ... done (   0.1 sec)
  promolecular density results
     # of electrons  =    132.004634615
     EX              =   -113.542375060
     EC              =     -4.495415796
     EX+EC           =   -118.037790856
Transforming the Hamiltonian                       ... done (   0.1 sec)
Diagonalizing the Hamiltonian                      ... done (   0.1 sec)
Back transforming the eigenvectors                 ... done (   0.1 sec)
Now organizing SCF variables                       ... done
                      ------------------
                      INITIAL GUESS DONE (   1.1 sec)
                      ------------------
             **** ENERGY FILE WAS UPDATED (orca.en.tmp) ****
Finished Guess after   3.6 sec
Maximum memory used throughout the entire GUESS-calculation: 72.8 MB
[1739895776.461569] [ohm:250557:0]        ib_iface.c:1059 UCX  ERROR ibv_create_cq(cqe=256) failed: Connection timed out
[1739895776.468851] [ohm:250552:0]        ib_iface.c:1059 UCX  ERROR ibv_create_cq(cqe=256) failed: Connection timed out
[1739895776.484040] [ohm:250560:0]        ib_iface.c:1059 UCX  ERROR ibv_create_cq(cqe=256) failed: Connection timed out
[1739895776.491202] [ohm:250555:0]        ib_iface.c:1059 UCX  ERROR ibv_create_cq(cqe=256) failed: Connection timed out
[1739895776.495394] [ohm:250562:0]        ib_iface.c:1059 UCX  ERROR ibv_create_cq(cqe=256) failed: Connection timed out
[1739895776.512571] [ohm:250550:0]        ib_iface.c:1059 UCX  ERROR ibv_create_cq(cqe=256) failed: Connection timed out
[1739895776.548587] [ohm:250553:0]        ib_iface.c:1059 UCX  ERROR ibv_create_cq(cqe=256) failed: Connection timed out
[1739895776.548581] [ohm:250589:0]        ib_iface.c:1059 UCX  ERROR ibv_create_cq(cqe=256) failed: Connection timed out
[1739895776.549411] [ohm:250556:0]        ib_iface.c:1059 UCX  ERROR ibv_create_cq(cqe=256) failed: Connection timed out
[1739895776.557790] [ohm:250591:0]        ib_iface.c:1059 UCX  ERROR ibv_create_cq(cqe=256) failed: Connection timed out
[1739895776.564173] [ohm:250551:0]        ib_iface.c:1059 UCX  ERROR ibv_create_cq(cqe=256) failed: Connection timed out
[1739895776.565783] [ohm:250587:0]        ib_iface.c:1059 UCX  ERROR ibv_create_cq(cqe=256) failed: Connection timed out
[1739895776.566729] [ohm:250577:0]        ib_iface.c:1059 UCX  ERROR ibv_create_cq(cqe=256) failed: Connection timed out
[1739895776.575937] [ohm:250609:0]        ib_iface.c:1059 UCX  ERROR ibv_create_cq(cqe=256) failed: Connection timed out
[1739895776.585299] [ohm:250664:0]        ib_iface.c:1059 UCX  ERROR ibv_create_cq(cqe=256) failed: Connection timed out
[1739895776.587795] [ohm:250565:0]        ib_iface.c:1059 UCX  ERROR ibv_create_cq(cqe=256) failed: Connection timed out
[1739895776.615600] [ohm:250559:0]        ib_iface.c:1059 UCX  ERROR ibv_create_cq(cqe=256) failed: Connection timed out
[1739895776.630558] [ohm:250568:0]        ib_iface.c:1059 UCX  ERROR ibv_create_cq(cqe=256) failed: Connection timed out
[1739895776.635908] [ohm:250583:0]        ib_iface.c:1059 UCX  ERROR ibv_create_cq(cqe=256) failed: Connection timed out
[1739895776.637479] [ohm:250569:0]        ib_iface.c:1059 UCX  ERROR ibv_create_cq(cqe=256) failed: Connection timed out
[1739895776.668160] [ohm:250564:0]        ib_iface.c:1059 UCX  ERROR ibv_create_cq(cqe=256) failed: Connection timed out
[1739895776.679385] [ohm:250612:0]        ib_iface.c:1059 UCX  ERROR ibv_create_cq(cqe=256) failed: Connection timed out
[1739895776.688097] [ohm:250682:0]        ib_iface.c:1059 UCX  ERROR ibv_create_cq(cqe=256) failed: Connection timed out
[1739895776.689859] [ohm:250619:0]        ib_iface.c:1059 UCX  ERROR ibv_create_cq(cqe=256) failed: Connection timed out
[1739895776.699249] [ohm:250617:0]        ib_iface.c:1059 UCX  ERROR ibv_create_cq(cqe=256) failed: Connection timed out
[1739895776.701944] [ohm:250606:0]        ib_iface.c:1059 UCX  ERROR ibv_create_cq(cqe=256) failed: Connection timed out
[1739895776.702328] [ohm:250567:0]        ib_iface.c:1059 UCX  ERROR ibv_create_cq(cqe=256) failed: Connection timed out
[1739895776.704625] [ohm:250597:0]        ib_iface.c:1059 UCX  ERROR ibv_create_cq(cqe=256) failed: Connection timed out
[1739895776.705218] [ohm:250563:0]        ib_iface.c:1059 UCX  ERROR ibv_create_cq(cqe=256) failed: Connection timed out
[1739895776.706440] [ohm:250581:0]        ib_iface.c:1059 UCX  ERROR ibv_create_cq(cqe=256) failed: Connection timed out
[1739895776.706467] [ohm:250570:0]        ib_iface.c:1059 UCX  ERROR ibv_create_cq(cqe=256) failed: Connection timed out
[1739895776.707098] [ohm:250566:0]        ib_iface.c:1059 UCX  ERROR ibv_create_cq(cqe=256) failed: Connection timed out
[1739895776.707738] [ohm:250599:0]        ib_iface.c:1059 UCX  ERROR ibv_create_cq(cqe=256) failed: Connection timed out
[1739895776.717764] [ohm:250610:0]        ib_iface.c:1059 UCX  ERROR ibv_create_cq(cqe=256) failed: Connection timed out
[1739895776.719075] [ohm:250674:0]        ib_iface.c:1059 UCX  ERROR ibv_create_cq(cqe=256) failed: Connection timed out
[1739895776.719732] [ohm:250615:0]        ib_iface.c:1059 UCX  ERROR ibv_create_cq(cqe=256) failed: Connection timed out
[1739895776.742698] [ohm:250601:0]        ib_iface.c:1059 UCX  ERROR ibv_create_cq(cqe=256) failed: Connection timed out
[1739895776.744826] [ohm:250637:0]        ib_iface.c:1059 UCX  ERROR ibv_create_cq(cqe=256) failed: Connection timed out
[1739895776.746023] [ohm:250605:0]        ib_iface.c:1059 UCX  ERROR ibv_create_cq(cqe=256) failed: Connection timed out
[1739895776.753781] [ohm:250574:0]        ib_iface.c:1059 UCX  ERROR ibv_create_cq(cqe=256) failed: Connection timed out
[1739895776.760374] [ohm:250593:0]        ib_iface.c:1059 UCX  ERROR ibv_create_cq(cqe=256) failed: Connection timed out
[1739895776.765793] [ohm:250638:0]        ib_iface.c:1059 UCX  ERROR ibv_create_cq(cqe=256) failed: Connection timed out
[1739895776.765798] [ohm:250689:0]        ib_iface.c:1059 UCX  ERROR ibv_create_cq(cqe=256) failed: Connection timed out
[1739895776.767218] [ohm:250658:0]        ib_iface.c:1059 UCX  ERROR ibv_create_cq(cqe=256) failed: Connection timed out
[1739895776.775351] [ohm:250650:0]        ib_iface.c:1059 UCX  ERROR ibv_create_cq(cqe=256) failed: Connection timed out
[1739895776.777310] [ohm:250653:0]        ib_iface.c:1059 UCX  ERROR ibv_create_cq(cqe=256) failed: Connection timed out
[1739895776.780501] [ohm:250594:0]        ib_iface.c:1059 UCX  ERROR ibv_create_cq(cqe=256) failed: Connection timed out
[1739895776.785066] [ohm:250647:0]        ib_iface.c:1059 UCX  ERROR ibv_create_cq(cqe=256) failed: Connection timed out
[1739895776.791055] [ohm:250677:0]        ib_iface.c:1059 UCX  ERROR ibv_create_cq(cqe=256) failed: Connection timed out
[1739895776.794647] [ohm:250669:0]        ib_iface.c:1059 UCX  ERROR ibv_create_cq(cqe=256) failed: Connection timed out
[1739895776.799229] [ohm:250554:0]        ib_iface.c:1059 UCX  ERROR ibv_create_cq(cqe=256) failed: Connection timed out
[1739895776.806334] [ohm:250683:0]        ib_iface.c:1059 UCX  ERROR ibv_create_cq(cqe=256) failed: Connection timed out
[1739895776.807291] [ohm:250699:0]        ib_iface.c:1059 UCX  ERROR ibv_create_cq(cqe=256) failed: Connection timed out
[1739895776.807604] [ohm:250632:0]        ib_iface.c:1059 UCX  ERROR ibv_create_cq(cqe=256) failed: Connection timed out
[1739895776.811084] [ohm:250696:0]        ib_iface.c:1059 UCX  ERROR ibv_create_cq(cqe=256) failed: Connection timed out
[1739895776.811467] [ohm:250558:0]        ib_iface.c:1059 UCX  ERROR ibv_create_cq(cqe=256) failed: Connection timed out
[1739895776.811601] [ohm:250665:0]        ib_iface.c:1059 UCX  ERROR ibv_create_cq(cqe=256) failed: Connection timed out
[1739895776.812073] [ohm:250691:0]        ib_iface.c:1059 UCX  ERROR ibv_create_cq(cqe=256) failed: Connection timed out
[1739895776.812516] [ohm:250625:0]        ib_iface.c:1059 UCX  ERROR ibv_create_cq(cqe=256) failed: Connection timed out
[1739895776.814135] [ohm:250561:0]        ib_iface.c:1059 UCX  ERROR ibv_create_cq(cqe=256) failed: Connection timed out
[1739895776.814561] [ohm:250659:0]        ib_iface.c:1059 UCX  ERROR ibv_create_cq(cqe=256) failed: Connection timed out
[1739895776.816344] [ohm:250642:0]        ib_iface.c:1059 UCX  ERROR ibv_create_cq(cqe=256) failed: Connection timed out
[1739895776.816403] [ohm:250573:0]        ib_iface.c:1059 UCX  ERROR ibv_create_cq(cqe=256) failed: Connection timed out
[1739895776.817549] [ohm:250627:0]        ib_iface.c:1059 UCX  ERROR ibv_create_cq(cqe=256) failed: Connection timed out


           ************************************************************
           *        Program running with 64 parallel MPI-processes    *
           *              working on a common directory               *
           ************************************************************

-------------------------------------------------------------------------------------------
                                      ORCA LEAN-SCF
                              memory conserving SCF solver
-------------------------------------------------------------------------------------------

----------------------------------------D-I-I-S--------------------------------------------
Iteration    Energy (Eh)           Delta-E    RMSDP     MaxDP     DIISErr   Damp  Time(sec)
-------------------------------------------------------------------------------------------
               ***  Starting incremental Fock matrix formation  ***
    1    -908.1400822127650372     0.00e+00  2.10e-03  4.31e-01  1.46e-01  0.700   7.9
    2    -908.4078525697202622    -2.68e-01  1.65e-03  3.21e-01  6.94e-02  0.700   6.7
                               ***Turning on AO-DIIS***
    3    -908.5254698206506419    -1.18e-01  1.20e-03  2.62e-01  2.91e-02  0.700   5.9
    4    -908.5981051548376399    -7.26e-02  2.73e-03  5.48e-01  1.80e-02  0.000   5.8
    5    -908.7618610242982413    -1.64e-01  3.78e-04  1.05e-01  4.53e-03  0.000   5.9
                              *** Initializing SOSCF ***
---------------------------------------S-O-S-C-F--------------------------------------
Iteration    Energy (Eh)           Delta-E    RMSDP     MaxDP     MaxGrad    Time(sec)
--------------------------------------------------------------------------------------
    6    -908.7633827297279367    -1.52e-03  1.77e-04  4.96e-02  3.02e-03     6.5
               *** Restarting incremental Fock matrix formation ***
    7    -908.7641139832610406    -7.31e-04  1.77e-04  2.41e-02  6.15e-03     7.6
    8    -908.7646397734345101    -5.26e-04  2.88e-04  8.03e-02  3.52e-03     6.9
    9    -908.7648466827629363    -2.07e-04  9.48e-05  1.11e-02  1.07e-03     6.9
   10    -908.7649401482792655    -9.35e-05  5.75e-05  1.68e-02  6.40e-04     6.8
   11    -908.7649570414607751    -1.69e-05  8.94e-06  1.53e-03  1.73e-04     6.7
   12    -908.7649598279874681    -2.79e-06  6.94e-06  1.31e-03  1.67e-04     6.4
   13    -908.7649613604687602    -1.53e-06  6.92e-06  1.59e-03  4.22e-05     6.4
   14    -908.7649616186274670    -2.58e-07  2.29e-06  7.00e-04  2.97e-05     6.3
   15    -908.7649616563792279    -3.78e-08  2.32e-06  4.86e-04  1.61e-05     6.0
   16    -908.7649617059248612    -4.95e-08  1.84e-06  3.73e-04  7.72e-06     6.1
   17    -908.7649617108588700    -4.93e-09  2.00e-06  4.01e-04  3.60e-06     5.8
                 **** Energy Check signals convergence ****

               *****************************************************
               *                     SUCCESS                       *
               *           SCF CONVERGED AFTER  17 CYCLES          *
               *****************************************************

Recomputing exchange energy using gridx3       ... done (    7.945 sec)
Old exchange energy                            :    -35.040579953 Eh
New exchange energy                            :    -35.040573940 Eh
Exchange energy change after final integration :      0.000006013 Eh
Total energy after final integration           :   -908.764955698 Eh
             **** ENERGY FILE WAS UPDATED (orca.en.tmp) ****

----------------
TOTAL SCF ENERGY
----------------

Total Energy       :       -908.76495569777808 Eh          -24728.75163 eV

Components:
Nuclear Repulsion  :       1462.88585545467572 Eh           39807.14788 eV
Electronic Energy  :      -2371.65081716553459 Eh          -64535.89968 eV
One Electron Energy:      -4143.17444122873985 Eh         -112741.50821 eV
Two Electron Energy:       1771.52362406320526 Eh           48205.60854 eV

Virial components:
Potential Energy   :      -1814.46669114241786 Eh          -49374.14880 eV
Kinetic Energy     :        905.70173544463978 Eh           24645.39717 eV
Virial Ratio       :          2.00338215124611

DFT components:
N(Alpha)           :       67.000080590831 electrons
N(Beta)            :       65.000101537458 electrons
N(Total)           :      132.000182128290 electrons
E(XC)              :      -86.258727399302 Eh       

---------------
SCF CONVERGENCE
---------------

  Last Energy change         ...    4.9340e-09  Tolerance :   1.0000e-08
  Last MAX-Density change    ...    4.0094e-04  Tolerance :   1.0000e-07
  Last RMS-Density change    ...    1.9973e-06  Tolerance :   5.0000e-09
  Last DIIS Error            ...    3.0199e-03  Tolerance :   5.0000e-07
  Last Orbital Gradient      ...    3.6037e-06  Tolerance :   1.0000e-05
  Last Orbital Rotation      ...    2.4081e-05  Tolerance :   1.0000e-05


----------------------
UHF SPIN CONTAMINATION
----------------------

Warning: in a DFT calculation there is little theoretical justification to 
         calculate <S**2> as in Hartree-Fock theory. We will do it anyways
         but you should keep in mind that the values have only limited relevance

Expectation value of <S**2>     :     2.014790
Ideal value S*(S+1) for S=1.0   :     2.000000
Deviation                       :     0.014790

----------------
ORBITAL ENERGIES
----------------
                 SPIN UP ORBITALS
  NO   OCC          E(Eh)            E(eV) 
   0   1.0000     -19.334254      -526.1118 
   1   1.0000     -19.331135      -526.0269 
   2   1.0000     -19.318688      -525.6882 
   3   1.0000     -19.312899      -525.5307 
   4   1.0000     -14.563669      -396.2976 
   5   1.0000     -14.561351      -396.2345 
   6   1.0000     -14.559654      -396.1883 
   7   1.0000     -14.558051      -396.1447 
   8   1.0000     -10.503851      -285.8243 
   9   1.0000     -10.500310      -285.7280 
  10   1.0000     -10.480859      -285.1987 
  11   1.0000     -10.478820      -285.1432 
  12   1.0000     -10.446048      -284.2514 
  13   1.0000     -10.444840      -284.2185 
  14   1.0000     -10.419764      -283.5362 
  15   1.0000     -10.414922      -283.4044 
  16   1.0000     -10.376804      -282.3672 
  17   1.0000     -10.373585      -282.2796 
  18   1.0000      -1.219063       -33.1724 
  19   1.0000      -1.212956       -33.0062 
  20   1.0000      -1.193891       -32.4874 
  21   1.0000      -1.189935       -32.3798 
  22   1.0000      -1.116891       -30.3921 
  23   1.0000      -1.094269       -29.7766 
  24   1.0000      -1.064071       -28.9548 
  25   1.0000      -1.053137       -28.6573 
  26   1.0000      -0.983598       -26.7651 
  27   1.0000      -0.949706       -25.8428 
  28   1.0000      -0.889139       -24.1947 
  29   1.0000      -0.836974       -22.7752 
  30   1.0000      -0.830476       -22.5984 
  31   1.0000      -0.801188       -21.8014 
  32   1.0000      -0.785083       -21.3632 
  33   1.0000      -0.778232       -21.1768 
  34   1.0000      -0.698801       -19.0154 
  35   1.0000      -0.694771       -18.9057 
  36   1.0000      -0.688180       -18.7263 
  37   1.0000      -0.665273       -18.1030 
  38   1.0000      -0.654301       -17.8044 
  39   1.0000      -0.647384       -17.6162 
  40   1.0000      -0.616663       -16.7803 
  41   1.0000      -0.602527       -16.3956 
  42   1.0000      -0.587865       -15.9966 
  43   1.0000      -0.581533       -15.8243 
  44   1.0000      -0.580194       -15.7879 
  45   1.0000      -0.573790       -15.6136 
  46   1.0000      -0.566071       -15.4036 
  47   1.0000      -0.559028       -15.2119 
  48   1.0000      -0.555779       -15.1235 
  49   1.0000      -0.550065       -14.9680 
  50   1.0000      -0.546643       -14.8749 
  51   1.0000      -0.540902       -14.7187 
  52   1.0000      -0.528772       -14.3886 
  53   1.0000      -0.524419       -14.2702 
  54   1.0000      -0.512076       -13.9343 
  55   1.0000      -0.507917       -13.8211 
  56   1.0000      -0.490540       -13.3483 
  57   1.0000      -0.418793       -11.3959 
  58   1.0000      -0.415143       -11.2966 
  59   1.0000      -0.408490       -11.1156 
  60   1.0000      -0.404944       -11.0191 
  61   1.0000      -0.396378       -10.7860 
  62   1.0000      -0.391851       -10.6628 
  63   1.0000      -0.386767       -10.5245 
  64   1.0000      -0.384630       -10.4663 
  65   1.0000      -0.356142        -9.6911 
  66   1.0000      -0.314587        -8.5603 
  67   0.0000       0.004795         0.1305 
  68   0.0000       0.027721         0.7543 
  69   0.0000       0.030296         0.8244 
  70   0.0000       0.038702         1.0531 
  71   0.0000       0.055497         1.5101 
  72   0.0000       0.056610         1.5404 
  73   0.0000       0.058696         1.5972 
  74   0.0000       0.062432         1.6989 
  75   0.0000       0.067460         1.8357 
  76   0.0000       0.071816         1.9542 
  77   0.0000       0.084503         2.2994 

                 SPIN DOWN ORBITALS
  NO   OCC          E(Eh)            E(eV) 
   0   1.0000     -19.329989      -525.9957 
   1   1.0000     -19.326414      -525.8985 
   2   1.0000     -19.318431      -525.6812 
   3   1.0000     -19.312792      -525.5278 
   4   1.0000     -14.563023      -396.2800 
   5   1.0000     -14.561033      -396.2258 
   6   1.0000     -14.559225      -396.1767 
   7   1.0000     -14.557830      -396.1387 
   8   1.0000     -10.503865      -285.8247 
   9   1.0000     -10.500332      -285.7286 
  10   1.0000     -10.481830      -285.2251 
  11   1.0000     -10.479857      -285.1714 
  12   1.0000     -10.445959      -284.2490 
  13   1.0000     -10.444392      -284.2064 
  14   1.0000     -10.408120      -283.2193 
  15   1.0000     -10.402976      -283.0794 
  16   1.0000     -10.377387      -282.3831 
  17   1.0000     -10.374110      -282.2939 
  18   1.0000      -1.217317       -33.1249 
  19   1.0000      -1.211317       -32.9616 
  20   1.0000      -1.188822       -32.3495 
  21   1.0000      -1.184383       -32.2287 
  22   1.0000      -1.114123       -30.3168 
  23   1.0000      -1.092049       -29.7162 
  24   1.0000      -1.062259       -28.9055 
  25   1.0000      -1.051637       -28.6165 
  26   1.0000      -0.969050       -26.3692 
  27   1.0000      -0.932898       -25.3855 
  28   1.0000      -0.883962       -24.0538 
  29   1.0000      -0.832040       -22.6410 
  30   1.0000      -0.821640       -22.3580 
  31   1.0000      -0.795769       -21.6540 
  32   1.0000      -0.783556       -21.3216 
  33   1.0000      -0.776602       -21.1324 
  34   1.0000      -0.693397       -18.8683 
  35   1.0000      -0.687378       -18.7045 
  36   1.0000      -0.681271       -18.5383 
  37   1.0000      -0.656763       -17.8714 
  38   1.0000      -0.644950       -17.5500 
  39   1.0000      -0.643258       -17.5039 
  40   1.0000      -0.613732       -16.7005 
  41   1.0000      -0.598563       -16.2877 
  42   1.0000      -0.581651       -15.8275 
  43   1.0000      -0.574601       -15.6357 
  44   1.0000      -0.571941       -15.5633 
  45   1.0000      -0.564101       -15.3500 
  46   1.0000      -0.559661       -15.2292 
  47   1.0000      -0.553285       -15.0556 
  48   1.0000      -0.552028       -15.0215 
  49   1.0000      -0.541854       -14.7446 
  50   1.0000      -0.539244       -14.6736 
  51   1.0000      -0.532393       -14.4872 
  52   1.0000      -0.522062       -14.2060 
  53   1.0000      -0.515549       -14.0288 
  54   1.0000      -0.504603       -13.7310 
  55   1.0000      -0.498161       -13.5557 
  56   1.0000      -0.484817       -13.1925 
  57   1.0000      -0.414909       -11.2902 
  58   1.0000      -0.411636       -11.2012 
  59   1.0000      -0.402793       -10.9605 
  60   1.0000      -0.391010       -10.6399 
  61   1.0000      -0.386936       -10.5291 
  62   1.0000      -0.384050       -10.4505 
  63   1.0000      -0.382318       -10.4034 
  64   1.0000      -0.375527       -10.2186 
  65   0.0000      -0.076864        -2.0916 
  66   0.0000      -0.027357        -0.7444 
  67   0.0000       0.004510         0.1227 
  68   0.0000       0.027896         0.7591 
  69   0.0000       0.030130         0.8199 
  70   0.0000       0.038767         1.0549 
  71   0.0000       0.056631         1.5410 
  72   0.0000       0.058359         1.5880 
  73   0.0000       0.060703         1.6518 
  74   0.0000       0.064252         1.7484 
  75   0.0000       0.067722         1.8428 
*Only the first 10 virtual orbitals were printed.

                    ********************************
                    * MULLIKEN POPULATION ANALYSIS *
                    ********************************

--------------------------------------------
MULLIKEN ATOMIC CHARGES AND SPIN POPULATIONS
--------------------------------------------
   0 O :   -0.686257    0.171783
   1 O :   -0.674696    0.154988
   2 O :   -0.662388    0.004298
   3 O :   -0.649559    0.009448
   4 N :   -0.290841    0.016002
   5 N :   -0.310370    0.025748
   6 N :    0.050329    0.023105
   7 N :    0.046380    0.013838
   8 C :   -0.119645    0.427134
   9 C :    0.180961    0.506173
  10 C :    0.230922    0.119545
  11 C :    0.763756    0.072648
  12 C :   -1.457251   -0.005782
  13 C :   -1.422274    0.048325
  14 C :    0.821146    0.201683
  15 C :    0.223582    0.122275
  16 C :    0.415160   -0.010258
  17 C :    0.332026   -0.003979
  18 H :    0.607973    0.004596
  19 H :    0.472556    0.012365
  20 H :    0.305376    0.005784
  21 H :    0.309597    0.015410
  22 H :    0.358870    0.027804
  23 H :    0.338498    0.026018
  24 H :    0.227888    0.010014
  25 H :    0.357743    0.004523
  26 H :    0.053739   -0.001639
  27 H :    0.088650   -0.000539
  28 H :    0.039459   -0.001875
  29 H :    0.048669    0.000566
Sum of atomic charges         :   -0.0000000
Sum of atomic spin populations:    2.0000000

-----------------------------------------------------
MULLIKEN REDUCED ORBITAL CHARGES AND SPIN POPULATIONS
-----------------------------------------------------
CHARGE
  0 O s       :     4.098323  s :     4.098323
      pz      :     1.601461  p :     4.554884
      px      :     1.335329
      py      :     1.618094
      dz2     :     0.004755  d :     0.031179
      dxz     :     0.005343
      dyz     :     0.005558
      dx2y2   :     0.010332
      dxy     :     0.005191
      f0      :     0.000153  f :     0.001871
      f+1     :     0.000333
      f-1     :     0.000145
      f+2     :     0.000279
      f-2     :     0.000349
      f+3     :     0.000343
      f-3     :     0.000269

  1 O s       :     4.104682  s :     4.104682
      pz      :     1.401052  p :     4.538965
[...]
[1739896044.582264] [ohm:253186:0]        ib_iface.c:1059 UCX  ERROR ibv_create_cq(cqe=256) failed: Connection timed out
[1739896044.584254] [ohm:253069:0]        ib_iface.c:1059 UCX  ERROR ibv_create_cq(cqe=256) failed: Connection timed out
[1739896044.586348] [ohm:253060:0]        ib_iface.c:1059 UCX  ERROR ibv_create_cq(cqe=256) failed: Connection timed out
[1739896044.586355] [ohm:253070:0]        ib_iface.c:1059 UCX  ERROR ibv_create_cq(cqe=256) failed: Connection timed out
[1739896044.586920] [ohm:253111:0]        ib_iface.c:1059 UCX  ERROR ibv_create_cq(cqe=256) failed: Connection timed out
[1739896044.587894] [ohm:253146:0]        ib_iface.c:1059 UCX  ERROR ibv_create_cq(cqe=256) failed: Connection timed out
[1739896044.588526] [ohm:253085:0]        ib_iface.c:1059 UCX  ERROR ibv_create_cq(cqe=256) failed: Connection timed out
[1739896044.589326] [ohm:253095:0]        ib_iface.c:1059 UCX  ERROR ibv_create_cq(cqe=256) failed: Connection timed out
[1739896044.591101] [ohm:253188:0]        ib_iface.c:1059 UCX  ERROR ibv_create_cq(cqe=256) failed: Connection timed out
[1739896044.593199] [ohm:253105:0]        ib_iface.c:1059 UCX  ERROR ibv_create_cq(cqe=256) failed: Connection timed out
[1739896044.593384] [ohm:253140:0]        ib_iface.c:1059 UCX  ERROR ibv_create_cq(cqe=256) failed: Connection timed out


           ************************************************************
           *        Program running with 64 parallel MPI-processes    *
           *              working on a common directory               *
           ************************************************************

------------------------------------------------------------------------------
                              ORCA PROPERTY CALCULATIONS
------------------------------------------------------------------------------

GBWName                                 ... orca.gbw
Number of atoms                         ...     30
Number of basis functions               ...    882
Max core memory                         ...   1024 MB

Electric properties:
Dipole moment                           ... YES
Quadrupole moment                       ...  NO
Static polarizability (Dipole/Dipole)   ...  NO
Static polarizability (Dipole/Quad.)    ...  NO
Static polarizability (Quad./Quad.)     ...  NO
Static polarizability (Velocity)        ...  NO

Atomic electric properties:
Dipole moment                           ...  NO
Quadrupole moment                       ...  NO
Static polarizability                   ...  NO

Choice of electric origin               ... Center of mass
Position of electric origin             ...    -0.002036    -0.059328    -0.025117

General magnetic properties:
Magnetizability                         ...  NO

EPR properties:
g-Tensor (aka g-matrix)                 ...  NO
Zero-Field splitting spin-orbit         ...  NO
Zero-field splitting spin-spin          ...  NO
Hyperfine couplings                     ...  NO (   0 nuclei)
Quadrupole couplings                    ...  NO (   0 nuclei)
Contact density                         ...  NO (   0 nuclei)

NMR properties:
Chemical shifts                         ...  NO (   0 nuclei)
Spin-rotation constants                 ...  NO (   0 nuclei)
Spin-spin couplings                     ...  NO (   0 nuclei,    0 pairs)

Choice of magnetic origin               ... GIAO
Position of magnetic origin             ...     0.000000     0.000000     0.000000

Properties with geometric perturbations:
SCF Hessian                             ...  NO
IR spectrum                             ...  NO
VCD spectrum                            ...  NO
X-ray spectroscopy properties:
SCF XES/XAS/RIXS spectra                ...  NO


-------------
DIPOLE MOMENT
-------------

Method             : SCF
Type of density    : Electron Density
Multiplicity       :   3
Irrep              :   0
Energy             :  -908.7649556977780776 Eh
Relativity type    : 
Basis              : AO
                                X                 Y                 Z
Electronic contribution:     -2.413423534     -10.215239107      -7.288125160
Nuclear contribution   :      2.252445860      11.795355011      10.059750775
                        -----------------------------------------
Total Dipole Moment    :     -0.160977673       1.580115904       2.771625615
                        -----------------------------------------
Magnitude (a.u.)       :      3.194462182
Magnitude (Debye)      :      8.119677584



--------------------
Rotational spectrum 
--------------------
 
Rotational constants in cm-1:             0.019427             0.015620             0.012745 
Rotational constants in MHz :           582.420139           468.274265           382.081435 

Dipole components along the rotational axes: 
x,y,z [a.u.] :     0.620213    -1.685950     2.641496 
x,y,z [Debye]:     1.576455    -4.285343     6.714148 

 

-------------
DIPOLE MOMENT
-------------

Method             : TDA/CIS
Type of density    : Electron Density
Level              : Relaxed density
State              :   1
Multiplicity       :   3
Irrep              :   0
Energy             :     0.0000000000000000 Eh
Relativity type    : 
Basis              : AO
                                X                 Y                 Z
Electronic contribution:     -2.497954010     -10.193195259      -7.242933666
Nuclear contribution   :      2.252445860      11.795355011      10.059750775
                        -----------------------------------------
Total Dipole Moment    :     -0.245508150       1.602159751       2.816817109
                        -----------------------------------------
Magnitude (a.u.)       :      3.249869035
Magnitude (Debye)      :      8.260510613



--------------------
Rotational spectrum 
--------------------
 
Rotational constants in cm-1:             0.019427             0.015620             0.012745 
Rotational constants in MHz :           582.420139           468.274265           382.081435 

Dipole components along the rotational axes: 
x,y,z [a.u.] :     0.552118    -1.737347     2.690435 
x,y,z [Debye]:     1.403373    -4.415984     6.838543 

 

Dipole moment calculation done in   0.2 sec 

Maximum memory used throughout the entire PROP-calculation: 82.0 MB
[1739896046.962553] [ohm:253407:0]        ib_iface.c:1059 UCX  ERROR ibv_create_cq(cqe=256) failed: Connection timed out
[1739896046.975794] [ohm:253405:0]        ib_iface.c:1059 UCX  ERROR ibv_create_cq(cqe=256) failed: Connection timed out
[1739896046.978448] [ohm:253417:0]        ib_iface.c:1059 UCX  ERROR ibv_create_cq(cqe=256) failed: Connection timed out
[1739896046.990086] [ohm:253406:0]        ib_iface.c:1059 UCX  ERROR ibv_create_cq(cqe=256) failed: Connection timed out
[1739896046.991097] [ohm:253404:0]        ib_iface.c:1059 UCX  ERROR ibv_create_cq(cqe=256) failed: Connection timed out
[1739896046.992138] [ohm:253402:0]        ib_iface.c:1059 UCX  ERROR ibv_create_cq(cqe=256) failed: Connection timed out
[1739896047.049420] [ohm:253408:0]        ib_iface.c:1059 UCX  ERROR ibv_create_cq(cqe=256) failed: Connection timed out
[1739896047.056836] [ohm:253416:0]        ib_iface.c:1059 UCX  ERROR ibv_create_cq(cqe=256) failed: Connection timed out
[1739896047.061397] [ohm:253423:0]        ib_iface.c:1059 UCX  ERROR ibv_create_cq(cqe=256) failed: Connection timed out
[1739896047.064845] [ohm:253410:0]        ib_iface.c:1059 UCX  ERROR ibv_create_cq(cqe=256) failed: Connection timed out
[1739896047.070291] [ohm:253480:0]        ib_iface.c:1059 UCX  ERROR ibv_create_cq(cqe=256) failed: Connection timed out
[1739896047.070739] [ohm:253411:0]        ib_iface.c:1059 UCX  ERROR ibv_create_cq(cqe=256) failed: Connection timed out
[1739896047.075904] [ohm:253425:0]        ib_iface.c:1059 UCX  ERROR ibv_create_cq(cqe=256) failed: Connection timed out
[1739896047.079203] [ohm:253419:0]        ib_iface.c:1059 UCX  ERROR ibv_create_cq(cqe=256) failed: Connection timed out
[1739896047.080555] [ohm:253412:0]        ib_iface.c:1059 UCX  ERROR ibv_create_cq(cqe=256) failed: Connection timed out
[1739896047.106393] [ohm:253413:0]        ib_iface.c:1059 UCX  ERROR ibv_create_cq(cqe=256) failed: Connection timed out
[1739896047.111094] [ohm:253435:0]        ib_iface.c:1059 UCX  ERROR ibv_create_cq(cqe=256) failed: Connection timed out
[1739896047.118011] [ohm:253517:0]        ib_iface.c:1059 UCX  ERROR ibv_create_cq(cqe=256) failed: Connection timed out
[1739896047.131855] [ohm:253476:0]        ib_iface.c:1059 UCX  ERROR ibv_create_cq(cqe=256) failed: Connection timed out
[1739896047.137227] [ohm:253415:0]        ib_iface.c:1059 UCX  ERROR ibv_create_cq(cqe=256) failed: Connection timed out
[1739896047.144780] [ohm:253422:0]        ib_iface.c:1059 UCX  ERROR ibv_create_cq(cqe=256) failed: Connection timed out
[1739896047.145091] [ohm:253511:0]        ib_iface.c:1059 UCX  ERROR ibv_create_cq(cqe=256) failed: Connection timed out
[1739896047.145964] [ohm:253426:0]        ib_iface.c:1059 UCX  ERROR ibv_create_cq(cqe=256) failed: Connection timed out
[1739896047.152036] [ohm:253458:0]        ib_iface.c:1059 UCX  ERROR ibv_create_cq(cqe=256) failed: Connection timed out
[1739896047.169102] [ohm:253424:0]        ib_iface.c:1059 UCX  ERROR ibv_create_cq(cqe=256) failed: Connection timed out
[1739896047.176339] [ohm:253507:0]        ib_iface.c:1059 UCX  ERROR ibv_create_cq(cqe=256) failed: Connection timed out
[1739896047.176640] [ohm:253442:0]        ib_iface.c:1059 UCX  ERROR ibv_create_cq(cqe=256) failed: Connection timed out
[1739896047.184406] [ohm:253548:0]        ib_iface.c:1059 UCX  ERROR ibv_create_cq(cqe=256) failed: Connection timed out
[1739896047.185569] [ohm:253484:0]        ib_iface.c:1059 UCX  ERROR ibv_create_cq(cqe=256) failed: Connection timed out
[1739896047.197489] [ohm:253515:0]        ib_iface.c:1059 UCX  ERROR ibv_create_cq(cqe=256) failed: Connection timed out
[1739896047.198461] [ohm:253403:0]        ib_iface.c:1059 UCX  ERROR ibv_create_cq(cqe=256) failed: Connection timed out
[1739896047.198511] [ohm:253464:0]        ib_iface.c:1059 UCX  ERROR ibv_create_cq(cqe=256) failed: Connection timed out
[1739896047.219921] [ohm:253421:0]        ib_iface.c:1059 UCX  ERROR ibv_create_cq(cqe=256) failed: Connection timed out
[1739896047.220272] [ohm:253440:0]        ib_iface.c:1059 UCX  ERROR ibv_create_cq(cqe=256) failed: Connection timed out
[1739896047.224747] [ohm:253525:0]        ib_iface.c:1059 UCX  ERROR ibv_create_cq(cqe=256) failed: Connection timed out
[1739896047.226613] [ohm:253503:0]        ib_iface.c:1059 UCX  ERROR ibv_create_cq(cqe=256) failed: Connection timed out
[1739896047.230207] [ohm:253452:0]        ib_iface.c:1059 UCX  ERROR ibv_create_cq(cqe=256) failed: Connection timed out
[1739896047.231017] [ohm:253543:0]        ib_iface.c:1059 UCX  ERROR ibv_create_cq(cqe=256) failed: Connection timed out
[1739896047.234104] [ohm:253409:0]        ib_iface.c:1059 UCX  ERROR ibv_create_cq(cqe=256) failed: Connection timed out
[1739896047.238432] [ohm:253538:0]        ib_iface.c:1059 UCX  ERROR ibv_create_cq(cqe=256) failed: Connection timed out
[1739896047.240695] [ohm:253451:0]        ib_iface.c:1059 UCX  ERROR ibv_create_cq(cqe=256) failed: Connection timed out
[1739896047.252714] [ohm:253533:0]        ib_iface.c:1059 UCX  ERROR ibv_create_cq(cqe=256) failed: Connection timed out
[1739896047.256452] [ohm:253492:0]        ib_iface.c:1059 UCX  ERROR ibv_create_cq(cqe=256) failed: Connection timed out
[1739896047.257289] [ohm:253494:0]        ib_iface.c:1059 UCX  ERROR ibv_create_cq(cqe=256) failed: Connection timed out
[1739896047.260834] [ohm:253558:0]        ib_iface.c:1059 UCX  ERROR ibv_create_cq(cqe=256) failed: Connection timed out
[1739896047.263153] [ohm:253498:0]        ib_iface.c:1059 UCX  ERROR ibv_create_cq(cqe=256) failed: Connection timed out
[1739896047.263603] [ohm:253520:0]        ib_iface.c:1059 UCX  ERROR ibv_create_cq(cqe=256) failed: Connection timed out
[1739896047.265416] [ohm:253528:0]        ib_iface.c:1059 UCX  ERROR ibv_create_cq(cqe=256) failed: Connection timed out
[1739896047.265496] [ohm:253512:0]        ib_iface.c:1059 UCX  ERROR ibv_create_cq(cqe=256) failed: Connection timed out
[1739896047.266936] [ohm:253432:0]        ib_iface.c:1059 UCX  ERROR ibv_create_cq(cqe=256) failed: Connection timed out
[1739896047.274655] [ohm:253462:0]        ib_iface.c:1059 UCX  ERROR ibv_create_cq(cqe=256) failed: Connection timed out
[1739896047.280994] [ohm:253447:0]        ib_iface.c:1059 UCX  ERROR ibv_create_cq(cqe=256) failed: Connection timed out
[1739896047.282228] [ohm:253486:0]        ib_iface.c:1059 UCX  ERROR ibv_create_cq(cqe=256) failed: Connection timed out
[1739896047.283872] [ohm:253414:0]        ib_iface.c:1059 UCX  ERROR ibv_create_cq(cqe=256) failed: Connection timed out
[1739896047.288548] [ohm:253428:0]        ib_iface.c:1059 UCX  ERROR ibv_create_cq(cqe=256) failed: Connection timed out
[1739896047.288762] [ohm:253489:0]        ib_iface.c:1059 UCX  ERROR ibv_create_cq(cqe=256) failed: Connection timed out
[1739896047.289787] [ohm:253420:0]        ib_iface.c:1059 UCX  ERROR ibv_create_cq(cqe=256) failed: Connection timed out
[1739896047.292184] [ohm:253456:0]        ib_iface.c:1059 UCX  ERROR ibv_create_cq(cqe=256) failed: Connection timed out
[1739896047.293219] [ohm:253468:0]        ib_iface.c:1059 UCX  ERROR ibv_create_cq(cqe=256) failed: Connection timed out
[1739896047.293784] [ohm:253472:0]        ib_iface.c:1059 UCX  ERROR ibv_create_cq(cqe=256) failed: Connection timed out
[1739896047.293933] [ohm:253457:0]        ib_iface.c:1059 UCX  ERROR ibv_create_cq(cqe=256) failed: Connection timed out
[1739896047.294354] [ohm:253551:0]        ib_iface.c:1059 UCX  ERROR ibv_create_cq(cqe=256) failed: Connection timed out
[1739896047.295590] [ohm:253429:0]        ib_iface.c:1059 UCX  ERROR ibv_create_cq(cqe=256) failed: Connection timed out
[1739896047.296171] [ohm:253418:0]        ib_iface.c:1059 UCX  ERROR ibv_create_cq(cqe=256) failed: Connection timed out

--------------------------------
SUGGESTED CITATIONS FOR THIS RUN
--------------------------------

Below you find a list of papers that are relevant to this ORCA run
We neither can nor want to force you to cite these papers, but we appreciate if you do
You receive ORCA, which is the product of decades of hard work by many enthusiastic individuals, for free
The only thing we kindly ask in return is that you cite our papers,
We deeply appreciate it, if you show your appreciation for ORCA by not just citing the generic ORCA reference.

Please note that relegating all ORCA citations to the supporting information does *not* help us.
SI sections are not indexed - citations you put there will not count into any citation statistics
But we need these citations in order to attract the funding resources that allow us to do what we are doing

Therefore, if you are a happy ORCA user, please consider citing a few of the papers listed below in the main body of your paper

In addition to the list printed below, the program has created the file orca.bibtex that contains the list in bibtex format
You can import this file easily into all common literature databanks and citation aid programs


List of essential papers. We consider these as the minimum necessary citations

  1. Neese,F.
     Software update: the ORCA program system, version 5.0
     WIRES Comput. Molec. Sci., 2022 12(1)e1606
     doi.org/10.1002/wcms.1606

List of papers to cite with high priority. The work reported in these papers was absolutely
necessary for this run to complete.
Our perspective: the developers of density functionals and basis sets usually get cited in chemistry papers
Good! But without the algorithms to do something with them, the functionals or basis sets would not do anything.
Hence, in our opinion, the algorithm design and method developments papers are equally worthy of getting cited

  1. Neese,F.; Olbrich,G.
     Efficient use of the resolution of the identity approximation in time-dependent density functional calculations with hybrid density functionals
     Chem. Phys. Lett., 2002 362 170-178
     doi.org/10.1016/s0009-2614(02)01053-9
  2. Neese,F.
     An improvement of the resolution of the identity approximation for the formation of the Coulomb matrix
     J. Comp. Chem., 2003 24(14)1740-1747
     doi.org/10.1002/jcc.10318
  3. Neese,F.; Wennmohs,F.; Hansen,A.; Becker,U.
     Efficient, approximate and parallel Hartree-Fock and hybrid DFT calculations. A 'chain-of-spheres' algorithm for the Hartree-Fock exchange
     Chem. Phys., 2009 356(1-3)98-109
     doi.org/10.1016/j.chemphys.2008.10.036
  4. Petrenko,T.; Kossmann,S.; Neese,F.
     Efficient time-dependent density functional theory approximations for hybrid density functionals: Analytical gradients and parallelization
     J. Chem. Phys., 2011 134 054116
     doi.org/10.1063/1.3533441
  5. Helmich-Paris,B.; de Souza,B.; Neese,F.; Izsák,R.
     An improved chain of spheres for exchange algorithm
     J. Chem. Phys., 2021 155 104109
     doi.org/doi: 10.1063/5.0058766.
  6. Neese,F.
     The SHARK Integral Generation and Digestion System
     J. Comp. Chem., 2022  1-16
     doi.org/10.1002/jcc.26942
  7. Lehtola,S.; Steigemann,C.; Oliveira,M.; Marques,M.
     Recent developments in Libxc - A comprehensive library of functionals for density functional theory
     Software X, 2018 7 
     doi.org/10.1016/j.softx.2017.11.002
  8. Grimme,S.; Antony,J.; Ehrlich,S.; Krieg,H.
     A consistent and accurate ab initio parametrization of density functional dispersion correction (DFT-D) for the 94 elements H-Pu
     J. Chem. Phys., 2010 132 154104-XXXX
     doi.org/10.1063/1.3382344
  9. Grimme,S.; Ehrlich,S.; Goerigk,L.
     Effect of the damping function in dispersion corrected density functional theory
     J. Comput. Chem., 2011 32(7)1456-1465
     doi.org/10.1002/jcc.21759

List of suggested additional citations. These are papers that are important in the 'surrounding' of 
of this run, or papers that preceded the highly important papers. If you like your results we are grateful for a citation.

  1. Izsak,R.; Neese,F.
     An overlap fitted chain of spheres exchange method
     J. Chem. Phys., 2011 135 144105
     doi.org/10.1063/1.3646921
  2. Izsak,R.; Hansen,A.; Neese,F.
     The resolution of identity and chain of spheres approximations for the LPNO-CCSD singles Fock term
     Molec. Phys., 2012 110 2413-2417
     doi.org/10.1080/00268976.2012.687466
  3. Neese,F.
     The ORCA program system
     WIRES Comput. Molec. Sci., 2012 2(1)73-78
     doi.org/10.1002/wcms.81
  4. Izsak,R.; Neese,F.; Klopper,W.
     Robust fitting techniques in the chain of spheres approximation to the Fock exchange: The role of the complementary space
     J. Chem. Phys., 2013 139 
     doi.org/10.1063/1.4819264
  5. Neese,F.
     Software update: the ORCA program system, version 4.0
     WIRES Comput. Molec. Sci., 2018 8(1)1-6
     doi.org/10.1002/wcms.1327
  6. Neese,F.; Wennmohs,F.; Becker,U.; Riplinger,C.
     The ORCA quantum chemistry program package
     J. Chem. Phys., 2020 152 Art. No. L224108
     doi.org/10.1063/5.0004608

List of optional additional citations

  1. Neese,F.
     Approximate second-order SCF convergence for spin unrestricted wavefunctions
     Chem. Phys. Lett., 2000 325(1-3)93-98
     doi.org/10.1016/s0009-2614(00)00662-x

Timings for individual modules:

Sum of individual times          ...      281.084 sec (=   4.685 min)
Startup calculation              ...        6.418 sec (=   0.107 min)   2.3 %
SCF iterations                   ...      128.128 sec (=   2.135 min)  45.6 %
Property integrals               ...        4.295 sec (=   0.072 min)   1.5 %
Property calculations            ...        2.793 sec (=   0.047 min)   1.0 %
CIS module                       ...      139.450 sec (=   2.324 min)  49.6 %
                             ****ORCA TERMINATED NORMALLY****
TOTAL RUN TIME: 0 days 0 hours 4 minutes 43 seconds 70 msec
