7
Properties=species:S:1:pos:R:3:momenta:R:3:forces:R:3 Coordinates=T from=T ORCA-job=T orca=T E=T -153.931009416206=T energy=-4184.145176372473 free_energy=-4184.145176372473 stress="2.5521550770603065e-06 2.7538180429074694e-06 2.3812093518499915e-06 2.7538180429074694e-06 3.49767130057922e-06 -7.807046764145776e-07 2.3812093518499915e-06 -7.807046764145776e-07 3.7982296397342686e-07" pbc="F F F"
O        0.50785223       1.41372946       0.11848055       0.19773558      -1.57526978      -0.49785262      -0.23541280       1.02163641       0.40530192
C        0.58190788       0.19174500      -0.29284583      -0.51680926       1.24802414       1.03561623      -0.34948866      -2.44272579      -0.59528304
C       -0.44539241      -0.93388573       0.15995289       0.06561610       0.37279808      -0.59834688       0.71446468       0.71630485      -0.01130863
H        0.12559789      -1.74517387       0.65945107       0.36835159      -0.15781716       0.11481192      -0.45391877       0.48657214      -0.23006096
H        1.43420959      -0.10734813      -0.88319928      -0.14363826       0.17029119       0.15045069       0.08161718       0.19311706      -0.06133616
H       -1.04600486      -1.37693831      -0.66759978       0.07601634       0.19907541      -0.05722824       0.52102286       0.57001893       0.43823993
H       -1.08206774      -0.39854304       0.85951260      -0.04727209      -0.25710189      -0.14745111      -0.27828449      -0.54492360       0.05444694
