7
Properties=species:S:1:pos:R:3:momenta:R:3:forces:R:3 Coordinates=T from=T ORCA-job=T orca=T E=T -153.931009416206=T energy=-4183.94731231489 free_energy=-4183.94731231489 stress="9.948391590629653e-06 -2.7830857098935548e-06 -3.106900903440718e-06 -2.7830857098935548e-06 5.473998641149479e-06 -3.0704104772814645e-06 -3.106900903440718e-06 -3.0704104772814645e-06 5.685930941694415e-06" pbc="F F F"
O        0.28420379       1.41972834       0.03197654      -0.03307737       0.11323625      -0.44092904       0.73615986      -0.65536665      -0.04749184
C        0.75347825       0.17895921      -0.05791497      -0.69889631       0.65058607       0.49993646      -0.61420993      -0.83374113       0.44264083
C       -0.35048123      -0.94817051       0.04040195       0.91483945      -0.70935721      -0.46237750      -1.29460931       3.42708269       0.96254749
H        0.10020493      -1.81894099      -0.35472383      -0.27187727       0.03774401       0.19050546      -0.27382853      -0.90944872      -0.22809985
H        1.81843365      -0.07733557      -0.20712240      -0.05733661      -0.25624797       0.03536925      -0.78943776       0.62354456       0.13396925
H       -1.20488817      -0.44696652      -0.54656883       0.06343174       0.35311029       0.10708017       1.00326629      -1.53886244       0.39378937
H       -0.81967149      -1.05409468       1.11007428       0.08291638      -0.18907144       0.07041521       1.23265938      -0.11320831      -1.65735525
