
                                 *****************
                                 * O   R   C   A *
                                 *****************

                                            #,                                       
                                            ###                                      
                                            ####                                     
                                            #####                                    
                                            ######                                   
                                           ########,                                 
                                     ,,################,,,,,                         
                               ,,#################################,,                 
                          ,,##########################################,,             
                       ,#########################################, ''#####,          
                    ,#############################################,,   '####,        
                  ,##################################################,,,,####,       
                ,###########''''           ''''###############################       
              ,#####''   ,,,,##########,,,,          '''####'''          '####       
            ,##' ,,,,###########################,,,                        '##       
           ' ,,###''''                  '''############,,,                           
         ,,##''                                '''############,,,,        ,,,,,,###''
      ,#''                                            '''#######################'''  
     '                                                          ''''####''''         
             ,#######,   #######,   ,#######,      ##                                
            ,#'     '#,  ##    ##  ,#'     '#,    #''#        ,####,   ,####,        
            ##       ##  ##   ,#'  ##            #'  '#       #'       #'  '#        
            ##       ##  #######   ##           ,######,      #####,   #    #        
            '#,     ,#'  ##    ##  '#,     ,#' ,#      #,     #,   #   #,  ,#        
             '#######'   ##     ##  '#######'  #'      '#     '####' # '####'        



                #########################################################
                #                        -***-                          #
                #          Department of theory and spectroscopy        #
                #                                                       #
                #                      Frank Neese                      #
                #                                                       #
                #     Directorship, Architecture, Infrastructure        #
                #                    SHARK, DRIVERS                     #
                #        Core code/Algorithms in most modules           #
                #                                                       #
                #        Max Planck Institute fuer Kohlenforschung      #
                #                Kaiser Wilhelm Platz 1                 #
                #                 D-45470 Muelheim/Ruhr                 #
                #                      Germany                          #
                #                                                       #
                #                  All rights reserved                  #
                #                        -***-                          #
                #########################################################


                         Program Version 6.0.0  -   RELEASE  -


 With contributions from (in alphabetic order):
   Daniel Aravena         : Magnetic Suceptibility
   Michael Atanasov       : Ab Initio Ligand Field Theory (pilot matlab implementation)
   Alexander A. Auer      : GIAO ZORA, VPT2 properties, NMR spectrum
   Ute Becker             : All parallelization in ORCA, NUMFREQ, NUMCALC
   Giovanni Bistoni       : ED, misc. LED, open-shell LED, HFLD
   Martin Brehm           : Molecular dynamics
   Dmytro Bykov           : pre 5.0 version of the SCF Hessian
   Marcos Casanova-Páez   : Triplet and SCS-CIS(D). UHF-(DLPNO)-IP/EA/STEOM-CCSD. UHF-CVS-IP/STEOM-CCSD
   Vijay G. Chilkuri      : MRCI spin determinant printing, contributions to CSF-ICE
   Pauline Colinet        : FMM embedding
   Dipayan Datta          : RHF DLPNO-CCSD density
   Achintya Kumar Dutta   : EOM-CC, STEOM-CC
   Nicolas Foglia         : Exact transition moments, OPA infrastructure, MCD improvements
   Dmitry Ganyushin       : Spin-Orbit,Spin-Spin,Magnetic field MRCI
   Miquel Garcia          : C-PCM and meta-GGA Hessian, CCSD/C-PCM, Gaussian charge scheme
   Tiago L. C. Gouveia    : GS-ROHF, GS-ROCIS
   Yang Guo               : DLPNO-NEVPT2, F12-NEVPT2, CIM, IAO-localization
   Andreas Hansen         : Spin unrestricted coupled pair/coupled cluster methods
   Ingolf Harden          : AUTO-CI MPn and infrastructure 
   Benjamin Helmich-Paris : MC-RPA, TRAH-(SCF,CASSCF), AVAS, COSX integrals, SCF dyn. polar.
   Lee Huntington         : MR-EOM, pCC
   Robert Izsak           : Overlap fitted RIJCOSX, COSX-SCS-MP3, EOM
   Riya Kayal             : Wick's Theorem for AUTO-CI, AUTO-CI UHF-CCSDT
   Emily Kempfer          : AUTO-CI, RHF CISDT and CCSDT
   Christian Kollmar      : KDIIS, OOCD, Brueckner-CCSD(T), CCSD density, CASPT2, CASPT2-K, improved NEVPT2
   Axel Koslowski         : Symmetry handling
   Simone Kossmann        : Meta GGA functionals, TD-DFT gradient, OOMP2, (MP2 Hessian; deprecated post 5.0)
   Lucas Lang             : DCDCAS
   Marvin Lechner         : AUTO-CI (C++ implementation), FIC-MRCC
   Spencer Leger          : CASSCF response
   Dagmar Lenk            : GEPOL surface, SMD, ORCA-2-JSON
   Dimitrios Liakos       : Extrapolation schemes; Compound Job, initial MDCI parallelization
   Dimitrios Manganas     : Further ROCIS development; embedding schemes. LFT, Crystal Embedding
   Dimitrios Pantazis     : SARC Basis sets
   Anastasios Papadopoulos: AUTO-CI, single reference methods and gradients
   Taras Petrenko         : pre 6.0 DFT Hessian and TD-DFT gradient, (ASA, deprecated), ECA, 1-Electron XAS/XES, NRVS
   Peter Pinski           : DLPNO-MP2, DLPNO-MP2 Gradient
   Christoph Reimann      : Effective Core Potentials
   Marius Retegan         : Local ZFS, SOC
   Christoph Riplinger    : Optimizer, TS searches, QM/MM, DLPNO-CCSD(T), (RO)-DLPNO pert. Triples
   Michael Roemelt        : Original ROCIS implementation
   Masaaki Saitow         : Open-shell DLPNO-CCSD energy and density
   Barbara Sandhoefer     : DKH picture change effects
   Kantharuban Sivalingam : CASSCF convergence/infrastructure, NEVPT2 and variants, FIC-MRCI
   Bernardo de Souza      : ESD, SOC TD-DFT
   Georgi Stoychev        : AutoAux, RI-MP2 NMR, DLPNO-MP2 response, X2C
   Van Anh Tran           : RI-MP2 g-tensors
   Willem Van den Heuvel  : Paramagnetic NMR
   Zikuan Wang            : NOTCH, Electric field optimization 
   Frank Wennmohs         : Technical directorship and infrastructure
   Hang Xu                : AUTO-CI-Response properties 


 We gratefully acknowledge several colleagues who have allowed us to
 interface, adapt or use parts of their codes:
   Stefan Grimme, W. Hujo, H. Kruse, P. Pracht,  : VdW corrections, initial TS optimization,
                  C. Bannwarth, S. Ehlert,         DFT functionals, gCP, sTDA/sTD-DF
                  L. Wittmann, M. Mueller
   Ed Valeev, F. Pavosevic, A. Kumar             : LibInt (2-el integral package), F12 methods
   Garnet Chan, S. Sharma, J. Yang, R. Olivares  : DMRG
   Ulf Ekstrom                                   : XCFun DFT Library
   Mihaly Kallay                                 : mrcc  (arbitrary order and MRCC methods)
   Frank Weinhold                                : gennbo (NPA and NBO analysis)
   Simon Mueller                                 : openCOSMO-RS
   Christopher J. Cramer and Donald G. Truhlar   : smd solvation model
   Lars Goerigk                                  : TD-DFT with DH, B97 family of functionals
   V. Asgeirsson, H. Jonsson                     : NEB implementation
   FAccTs GmbH                                   : IRC, NEB, NEB-TS, DLPNO-Multilevel, CI-OPT
                                                   MM, QMMM, 2- and 3-layer-ONIOM, Crystal-QMMM,
                                                   LR-CPCM, SF, NACMEs, symmetry and pop. for TD-DFT,
                                                   nearIR, NL-DFT gradient (VV10), updates on ESD,
                                                   ML-optimized integration grids, MBIS, APM,
                                                   GOAT, DOCKER, SOLVATOR, interface openCOSMO-RS
   S Lehtola, MJT Oliveira, MAL Marques          : LibXC Library
   Liviu Ungur et al                             : ANISO software


 Your calculation uses the libint2 library for the computation of 2-el integrals
 For citations please refer to: http://libint.valeyev.net

 Your ORCA version has been built with support for libXC version: 6.2.2
 For citations please refer to: https://libxc.gitlab.io

 This ORCA versions uses:
   CBLAS   interface :  Fast vector & matrix operations
   LAPACKE interface :  Fast linear algebra routines
   SCALAPACK package :  Parallel linear algebra routines
   Shared memory     :  Shared parallel matrices
   BLAS/LAPACK       :  OpenBLAS 0.3.27  USE64BITINT DYNAMIC_ARCH NO_AFFINITY Zen SINGLE_THREADED
        Core in use  :  Zen
   Copyright (c) 2011-2014, The OpenBLAS Project


Your calculation utilizes the atom-pairwise dispersion correction
with the Becke-Johnson damping scheme (D3BJ)


Warning: RI is on but no J-basis has been assigned. Assigning Def2/J (nothing to worry about!)
================================================================================

----- Orbital basis set information -----
Your calculation utilizes the basis: def2-TZVPPD
   F. Weigend and R. Ahlrichs, Phys. Chem. Chem. Phys. 7, 3297 (2005).
   D. Rappoport and F. Furche, J. Chem. Phys. 133, 134105 (2010)
   D. Rappoport, J. Chem. Phys. 155, 124102 (2021).

----- AuxJ basis set information -----
Your calculation utilizes the auxiliary basis: def2/J
   F. Weigend, Phys. Chem. Chem. Phys. 8, 1057 (2006).

================================================================================
                                        WARNINGS
                       Please study these warnings very carefully!
================================================================================

Using LibXC functional ID 531 : wB97M-V exchange-correlation functional
[ 1]  N. Mardirossian and M. Head-Gordon.,  J. Chem. Phys. 144, 214110 (2016)
Using LibXC functional ID 531 : wB97M-V exchange-correlation functional
[ 1]  N. Mardirossian and M. Head-Gordon.,  J. Chem. Phys. 144, 214110 (2016)

WARNING: B97M-V or wB97M-V functional requested.
  ===> : libXC variant has now been activated.
         Any manually given DFX/HFX/RangeSep scaling parameters are IGNORED!

Your calculation utilizes LibXC
 by S Lehtola, C Steigemann, MJT Oliveira & MAL Marques
Please cite in your paper:
 S Lehtola, C Steigemann, MJT Oliveira & MAL Marques, SoftwareX, 7, (2018), 1.
   


WARNING: your system is open-shell and RHF/RKS was chosen
  ===> : WILL SWITCH to UHF/UKS

INFO   : Checking CIS options ...

WARNING: CIS/ROCIS methods need fully converged wavefunctions
  ===> : Setting SCFConvForced true
         You can overwrite this default with %scf ConvForced false 


================================================================================
                                       INPUT FILE
================================================================================
NAME = orca.inp
|  1> ! Engrad def2-TZVPPD wB97M-D3BJ 
|  2> %pal nprocs 8 end%pal nprocs 64 end 
|  3> %tddft 
|  4>  Iroot 2 Nroots 3 
|  5> sf true 
|  6> end 
|  7> *xyz 0 3 
|  8> O   3.35664385 0.91914695 -0.25932041
|  9> O   -0.98299528 0.74456214 -2.67519975
| 10> O   0.69139816 -2.51903658 -1.25705785
| 11> O   -3.29505489 -1.68655356 0.5226512
| 12> N   0.35592215 -1.41640458 0.72910451
| 13> N   -2.19784735 0.14210736 1.2287487
| 14> N   1.84870776 -0.6573967 -0.7650162
| 15> N   -2.00900299 -0.61420017 -1.03183272
| 16> C   1.66064241 0.53106043 1.30137924
| 17> C   -0.68474136 1.23899031 -0.38418903
| 18> C   0.32222221 -0.24533375 1.45431182
| 19> C   -0.92161808 0.79795771 1.0450169
| 20> C   2.00138085 1.5108117 2.29485931
| 21> C   0.19049283 2.38112692 -0.60088699
| 22> C   2.36763379 0.2770842 0.09343854
| 23> C   -1.2034032 0.4299258 -1.47156834
| 24> C   0.90163936 -1.55490117 -0.54554641
| 25> C   -2.54253543 -0.78612254 0.25868623
| 26> H   0.0838289 -0.3867388 2.56454589
| 27> H   -0.68873506 1.73598389 1.71119018
| 28> H   1.06530485 1.9556866 2.6559046
| 29> H   2.5453047 1.05751361 3.2009577
| 30> H   2.60826436 2.31544093 1.89384622
| 31> H   -0.28422343 2.99604613 -1.32374235
| 32> H   0.45076482 2.92025752 0.30623553
| 33> H   1.18165848 2.32084958 -1.04544826
| 34> H   -0.42650835 -2.01141665 0.82198804
| 35> H   -2.32850769 -0.28791966 2.12028147
| 36> H   2.57722771 -1.05192363 -1.49211873
| 37> H   -2.37881541 -1.18026203 -1.74031911
| 38> *
| 39> 
| 40>                          ****END OF INPUT****
================================================================================

                     *******************************
                     * Energy+Gradient Calculation *
                     *******************************

---------------------------------
CARTESIAN COORDINATES (ANGSTROEM)
---------------------------------
  O      3.356644    0.919147   -0.259320
  O     -0.982995    0.744562   -2.675200
  O      0.691398   -2.519037   -1.257058
  O     -3.295055   -1.686554    0.522651
  N      0.355922   -1.416405    0.729105
  N     -2.197847    0.142107    1.228749
  N      1.848708   -0.657397   -0.765016
  N     -2.009003   -0.614200   -1.031833
  C      1.660642    0.531060    1.301379
  C     -0.684741    1.238990   -0.384189
  C      0.322222   -0.245334    1.454312
  C     -0.921618    0.797958    1.045017
  C      2.001381    1.510812    2.294859
  C      0.190493    2.381127   -0.600887
  C      2.367634    0.277084    0.093439
  C     -1.203403    0.429926   -1.471568
  C      0.901639   -1.554901   -0.545546
  C     -2.542535   -0.786123    0.258686
  H      0.083829   -0.386739    2.564546
  H     -0.688735    1.735984    1.711190
  H      1.065305    1.955687    2.655905
  H      2.545305    1.057514    3.200958
  H      2.608264    2.315441    1.893846
  H     -0.284223    2.996046   -1.323742
  H      0.450765    2.920258    0.306236
  H      1.181658    2.320850   -1.045448
  H     -0.426508   -2.011417    0.821988
  H     -2.328508   -0.287920    2.120281
  H      2.577228   -1.051924   -1.492119
  H     -2.378815   -1.180262   -1.740319

----------------------------
CARTESIAN COORDINATES (A.U.)
----------------------------
  NO LB      ZA    FRAG     MASS         X           Y           Z
   0 O     8.0000    0    15.999    6.343138    1.736936   -0.490045
   1 O     8.0000    0    15.999   -1.857592    1.407019   -5.055395
   2 O     8.0000    0    15.999    1.306553   -4.760289   -2.375495
   3 O     8.0000    0    15.999   -6.226751   -3.187124    0.987668
   4 N     7.0000    0    14.007    0.672595   -2.676617    1.377808
   5 N     7.0000    0    14.007   -4.153330    0.268544    2.321999
   6 N     7.0000    0    14.007    3.493551   -1.242300   -1.445671
   7 N     7.0000    0    14.007   -3.796465   -1.160670   -1.949881
   8 C     6.0000    0    12.011    3.138159    1.003559    2.459250
   9 C     6.0000    0    12.011   -1.293974    2.341352   -0.726012
  10 C     6.0000    0    12.011    0.608912   -0.463614    2.748251
  11 C     6.0000    0    12.011   -1.741606    1.507922    1.974796
  12 C     6.0000    0    12.011    3.782062    2.855020    4.336656
  13 C     6.0000    0    12.011    0.359979    4.499678   -1.135512
  14 C     6.0000    0    12.011    4.474179    0.523613    0.176573
  15 C     6.0000    0    12.011   -2.274102    0.812442   -2.780861
  16 C     6.0000    0    12.011    1.703851   -2.938337   -1.030933
  17 C     6.0000    0    12.011   -4.804696   -1.485556    0.488846
  18 H     1.0000    0     1.008    0.158414   -0.730830    4.846289
  19 H     1.0000    0     1.008   -1.301521    3.280534    3.233681
  20 H     1.0000    0     1.008    2.013134    3.695712    5.018932
  21 H     1.0000    0     1.008    4.809929    1.998411    6.048933
  22 H     1.0000    0     1.008    4.928905    4.375549    3.578851
  23 H     1.0000    0     1.008   -0.537104    5.661707   -2.501511
  24 H     1.0000    0     1.008    0.851822    5.518487    0.578701
  25 H     1.0000    0     1.008    2.233011    4.385770   -1.975611
  26 H     1.0000    0     1.008   -0.805984   -3.801027    1.553332
  27 H     1.0000    0     1.008   -4.400242   -0.544089    4.006751
  28 H     1.0000    0     1.008    4.870255   -1.987848   -2.819696
  29 H     1.0000    0     1.008   -4.495310   -2.230372   -3.288727

--------------------------------
INTERNAL COORDINATES (ANGSTROEM)
--------------------------------
 O      0   0   0     0.000000000000     0.00000000     0.00000000
 O      1   0   0     4.969851166780     0.00000000     0.00000000
 O      2   1   0     3.932657682234    58.80735573     0.00000000
 O      3   2   1     4.444344743727    66.86221980   118.76018668
 N      3   2   1     2.296341089862    81.44366418    62.78928991
 N      4   3   2     2.246428014799    80.80726000   297.34797501
 N      1   2   3     2.239439520037    43.74137477   356.39524832
 N      4   3   2     2.284795732681    46.41626500   359.59370706
 C      1   2   3     2.337266657658    71.64787586   286.65517662
 C      2   1   3     2.362656288003    53.91771467    96.25072237
 C      5   3   2     1.377849127194   150.10268158   323.64516431
 C      6   4   3     1.446602296947   139.46747761     7.63300153
 C      9   1   2     1.436320954748   100.16389495   228.18364688
 C     10   2   1     1.455152544964    95.49613369    58.19477386
 C      1   2   3     1.230782007719    54.50261994   315.28248867
 C      2   1   3     1.263449345556    72.42125793    66.93382006
 C      3   2   1     1.216555374919    68.08687891    34.20778490
 C      4   3   2     1.202804666122    59.41370883   323.20992037
 H     11   5   3     1.144310468626   114.25052709   181.95023546
 H     12   6   4     1.173846009643   117.72579720   185.93822576
 H     13   9   1     1.097499729320   107.56021804   139.91859382
 H     13   9   1     1.149933304743   112.85110818   258.56353979
 H     13   9   1     1.084687646667   112.52074904    21.90136723
 H     14  10   2     1.061131958720   106.69067143    49.17990029
 H     14  10   2     1.086864563286   114.14729864   174.53180224
 H     14  10   2     1.087969405012   124.42450678   294.99665727
 H      5   3   2     0.987352115975    84.70813804   100.70547354
 H      6   4   3     0.998411759928    82.30737818   247.59313292
 H      7   1   2     1.102302547024    87.47203444   107.87501055
 H      8   4   3     0.979357044263    90.47919770    85.76543825

---------------------------
INTERNAL COORDINATES (A.U.)
---------------------------
 O      0   0   0     0.000000000000     0.00000000     0.00000000
 O      1   0   0     9.391657631564     0.00000000     0.00000000
 O      2   1   0     7.431645997884    58.80735573     0.00000000
 O      3   2   1     8.398594410377    66.86221980   118.76018668
 N      3   2   1     4.339455769910    81.44366418    62.78928991
 N      4   3   2     4.245133727539    80.80726000   297.34797501
 N      1   2   3     4.231927386350    43.74137477   356.39524832
 N      4   3   2     4.317638206719    46.41626500   359.59370706
 C      1   2   3     4.416793884918    71.64787586   286.65517662
 C      2   1   3     4.464773332913    53.91771467    96.25072237
 C      5   3   2     2.603757504260   150.10268158   323.64516431
 C      6   4   3     2.733682165930   139.46747761     7.63300153
 C      9   1   2     2.714253244886   100.16389495   228.18364688
 C     10   2   1     2.749839793061    95.49613369    58.19477386
 C      1   2   3     2.325840925146    54.50261994   315.28248867
 C      2   1   3     2.387573247183    72.42125793    66.93382006
 C      3   2   1     2.298956485347    68.08687891    34.20778490
 C      4   3   2     2.272971411573    59.41370883   323.20992037
 H     11   5   3     2.162433397882   114.25052709   181.95023546
 H     12   6   4     2.218247481622   117.72579720   185.93822576
 H     13   9   1     2.073973920467   107.56021804   139.91859382
 H     13   9   1     2.173059018239   112.85110818   258.56353979
 H     13   9   1     2.049762593048   112.52074904    21.90136723
 H     14  10   2     2.005248793932   106.69067143    49.17990029
 H     14  10   2     2.053876369274   114.14729864   174.53180224
 H     14  10   2     2.055964217557   124.42450678   294.99665727
 H      5   3   2     1.865825096941    84.70813804   100.70547354
 H      6   4   3     1.886724795151    82.30737818   247.59313292
 H      7   1   2     2.083049930599    87.47203444   107.87501055
 H      8   4   3     1.850716600984    90.47919770    85.76543825

---------------------
BASIS SET INFORMATION
---------------------
There are 4 groups of distinct atoms

 Group   1 Type O   : 12s7p3d1f contracted to 6s4p3d1f pattern {621111/4111/111/1}
 Group   2 Type N   : 12s6p3d1f contracted to 6s3p3d1f pattern {621111/411/111/1}
 Group   3 Type C   : 12s6p3d1f contracted to 6s3p3d1f pattern {621111/411/111/1}
 Group   4 Type H   : 5s3p1d contracted to 3s3p1d pattern {311/111/1}

Atom   0O    basis set group =>   1
Atom   1O    basis set group =>   1
Atom   2O    basis set group =>   1
Atom   3O    basis set group =>   1
Atom   4N    basis set group =>   2
Atom   5N    basis set group =>   2
Atom   6N    basis set group =>   2
Atom   7N    basis set group =>   2
Atom   8C    basis set group =>   3
Atom   9C    basis set group =>   3
Atom  10C    basis set group =>   3
Atom  11C    basis set group =>   3
Atom  12C    basis set group =>   3
Atom  13C    basis set group =>   3
Atom  14C    basis set group =>   3
Atom  15C    basis set group =>   3
Atom  16C    basis set group =>   3
Atom  17C    basis set group =>   3
Atom  18H    basis set group =>   4
Atom  19H    basis set group =>   4
Atom  20H    basis set group =>   4
Atom  21H    basis set group =>   4
Atom  22H    basis set group =>   4
Atom  23H    basis set group =>   4
Atom  24H    basis set group =>   4
Atom  25H    basis set group =>   4
Atom  26H    basis set group =>   4
Atom  27H    basis set group =>   4
Atom  28H    basis set group =>   4
Atom  29H    basis set group =>   4
---------------------------------
AUXILIARY/J BASIS SET INFORMATION
---------------------------------
There are 4 groups of distinct atoms

 Group   1 Type O   : 12s5p4d2f1g contracted to 6s4p3d1f1g pattern {711111/2111/211/2/1}
 Group   2 Type N   : 12s5p4d2f1g contracted to 6s4p3d1f1g pattern {711111/2111/211/2/1}
 Group   3 Type C   : 12s5p4d2f1g contracted to 6s4p3d1f1g pattern {711111/2111/211/2/1}
 Group   4 Type H   : 5s2p1d contracted to 3s1p1d pattern {311/2/1}

Atom   0O    basis set group =>   1
Atom   1O    basis set group =>   1
Atom   2O    basis set group =>   1
Atom   3O    basis set group =>   1
Atom   4N    basis set group =>   2
Atom   5N    basis set group =>   2
Atom   6N    basis set group =>   2
Atom   7N    basis set group =>   2
Atom   8C    basis set group =>   3
Atom   9C    basis set group =>   3
Atom  10C    basis set group =>   3
Atom  11C    basis set group =>   3
Atom  12C    basis set group =>   3
Atom  13C    basis set group =>   3
Atom  14C    basis set group =>   3
Atom  15C    basis set group =>   3
Atom  16C    basis set group =>   3
Atom  17C    basis set group =>   3
Atom  18H    basis set group =>   4
Atom  19H    basis set group =>   4
Atom  20H    basis set group =>   4
Atom  21H    basis set group =>   4
Atom  22H    basis set group =>   4
Atom  23H    basis set group =>   4
Atom  24H    basis set group =>   4
Atom  25H    basis set group =>   4
Atom  26H    basis set group =>   4
Atom  27H    basis set group =>   4
Atom  28H    basis set group =>   4
Atom  29H    basis set group =>   4
[1741256759.778725] [ohm:392728:0]        ib_iface.c:1059 UCX  ERROR ibv_create_cq(cqe=256) failed: Connection timed out
[1741256759.797993] [ohm:392731:0]        ib_iface.c:1059 UCX  ERROR ibv_create_cq(cqe=256) failed: Connection timed out
[1741256759.801170] [ohm:392729:0]        ib_iface.c:1059 UCX  ERROR ibv_create_cq(cqe=256) failed: Connection timed out
[1741256759.816066] [ohm:392742:0]        ib_iface.c:1059 UCX  ERROR ibv_create_cq(cqe=256) failed: Connection timed out
[1741256759.819501] [ohm:392736:0]        ib_iface.c:1059 UCX  ERROR ibv_create_cq(cqe=256) failed: Connection timed out
[1741256759.825639] [ohm:392730:0]        ib_iface.c:1059 UCX  ERROR ibv_create_cq(cqe=256) failed: Connection timed out
[1741256759.826298] [ohm:392733:0]        ib_iface.c:1059 UCX  ERROR ibv_create_cq(cqe=256) failed: Connection timed out
[1741256759.847179] [ohm:392740:0]        ib_iface.c:1059 UCX  ERROR ibv_create_cq(cqe=256) failed: Connection timed out
[1741256759.862889] [ohm:392737:0]        ib_iface.c:1059 UCX  ERROR ibv_create_cq(cqe=256) failed: Connection timed out
[1741256759.865526] [ohm:392772:0]        ib_iface.c:1059 UCX  ERROR ibv_create_cq(cqe=256) failed: Connection timed out
[1741256759.877303] [ohm:392748:0]        ib_iface.c:1059 UCX  ERROR ibv_create_cq(cqe=256) failed: Connection timed out
[1741256759.879027] [ohm:392750:0]        ib_iface.c:1059 UCX  ERROR ibv_create_cq(cqe=256) failed: Connection timed out
[1741256759.879856] [ohm:392793:0]        ib_iface.c:1059 UCX  ERROR ibv_create_cq(cqe=256) failed: Connection timed out
[1741256759.918260] [ohm:392876:0]        ib_iface.c:1059 UCX  ERROR ibv_create_cq(cqe=256) failed: Connection timed out
[1741256759.937957] [ohm:392777:0]        ib_iface.c:1059 UCX  ERROR ibv_create_cq(cqe=256) failed: Connection timed out
[1741256759.940383] [ohm:392739:0]        ib_iface.c:1059 UCX  ERROR ibv_create_cq(cqe=256) failed: Connection timed out
[1741256759.941750] [ohm:392762:0]        ib_iface.c:1059 UCX  ERROR ibv_create_cq(cqe=256) failed: Connection timed out
[1741256759.950345] [ohm:392811:0]        ib_iface.c:1059 UCX  ERROR ibv_create_cq(cqe=256) failed: Connection timed out
[1741256759.954264] [ohm:392738:0]        ib_iface.c:1059 UCX  ERROR ibv_create_cq(cqe=256) failed: Connection timed out
[1741256759.957014] [ohm:392841:0]        ib_iface.c:1059 UCX  ERROR ibv_create_cq(cqe=256) failed: Connection timed out
[1741256759.957507] [ohm:392805:0]        ib_iface.c:1059 UCX  ERROR ibv_create_cq(cqe=256) failed: Connection timed out
[1741256759.960539] [ohm:392743:0]        ib_iface.c:1059 UCX  ERROR ibv_create_cq(cqe=256) failed: Connection timed out
[1741256759.961322] [ohm:392765:0]        ib_iface.c:1059 UCX  ERROR ibv_create_cq(cqe=256) failed: Connection timed out
[1741256759.963987] [ohm:392829:0]        ib_iface.c:1059 UCX  ERROR ibv_create_cq(cqe=256) failed: Connection timed out
[1741256759.971242] [ohm:392727:0]        ib_iface.c:1059 UCX  ERROR ibv_create_cq(cqe=256) failed: Connection timed out
[1741256759.977401] [ohm:392780:0]        ib_iface.c:1059 UCX  ERROR ibv_create_cq(cqe=256) failed: Connection timed out
[1741256759.981818] [ohm:392782:0]        ib_iface.c:1059 UCX  ERROR ibv_create_cq(cqe=256) failed: Connection timed out
[1741256759.984388] [ohm:392768:0]        ib_iface.c:1059 UCX  ERROR ibv_create_cq(cqe=256) failed: Connection timed out
[1741256759.985421] [ohm:392834:0]        ib_iface.c:1059 UCX  ERROR ibv_create_cq(cqe=256) failed: Connection timed out
[1741256759.989759] [ohm:392756:0]        ib_iface.c:1059 UCX  ERROR ibv_create_cq(cqe=256) failed: Connection timed out
[1741256759.989833] [ohm:392778:0]        ib_iface.c:1059 UCX  ERROR ibv_create_cq(cqe=256) failed: Connection timed out
[1741256759.991558] [ohm:392868:0]        ib_iface.c:1059 UCX  ERROR ibv_create_cq(cqe=256) failed: Connection timed out
[1741256759.992864] [ohm:392732:0]        ib_iface.c:1059 UCX  ERROR ibv_create_cq(cqe=256) failed: Connection timed out
[1741256760.001426] [ohm:392865:0]        ib_iface.c:1059 UCX  ERROR ibv_create_cq(cqe=256) failed: Connection timed out
[1741256760.012404] [ohm:392726:0]        ib_iface.c:1059 UCX  ERROR ibv_create_cq(cqe=256) failed: Connection timed out
[1741256760.015073] [ohm:392818:0]        ib_iface.c:1059 UCX  ERROR ibv_create_cq(cqe=256) failed: Connection timed out
[1741256760.019256] [ohm:392744:0]        ib_iface.c:1059 UCX  ERROR ibv_create_cq(cqe=256) failed: Connection timed out
[1741256760.029804] [ohm:392741:0]        ib_iface.c:1059 UCX  ERROR ibv_create_cq(cqe=256) failed: Connection timed out
[1741256760.035902] [ohm:392760:0]        ib_iface.c:1059 UCX  ERROR ibv_create_cq(cqe=256) failed: Connection timed out
[1741256760.037507] [ohm:392745:0]        ib_iface.c:1059 UCX  ERROR ibv_create_cq(cqe=256) failed: Connection timed out
[1741256760.037545] [ohm:392857:0]        ib_iface.c:1059 UCX  ERROR ibv_create_cq(cqe=256) failed: Connection timed out
[1741256760.040369] [ohm:392774:0]        ib_iface.c:1059 UCX  ERROR ibv_create_cq(cqe=256) failed: Connection timed out
[1741256760.041771] [ohm:392860:0]        ib_iface.c:1059 UCX  ERROR ibv_create_cq(cqe=256) failed: Connection timed out
[1741256760.049404] [ohm:392848:0]        ib_iface.c:1059 UCX  ERROR ibv_create_cq(cqe=256) failed: Connection timed out
[1741256760.061268] [ohm:392820:0]        ib_iface.c:1059 UCX  ERROR ibv_create_cq(cqe=256) failed: Connection timed out
[1741256760.065371] [ohm:392839:0]        ib_iface.c:1059 UCX  ERROR ibv_create_cq(cqe=256) failed: Connection timed out
[1741256760.065375] [ohm:392880:0]        ib_iface.c:1059 UCX  ERROR ibv_create_cq(cqe=256) failed: Connection timed out
[1741256760.069823] [ohm:392852:0]        ib_iface.c:1059 UCX  ERROR ibv_create_cq(cqe=256) failed: Connection timed out
[1741256760.070598] [ohm:392789:0]        ib_iface.c:1059 UCX  ERROR ibv_create_cq(cqe=256) failed: Connection timed out
[1741256760.085407] [ohm:392725:0]        ib_iface.c:1059 UCX  ERROR ibv_create_cq(cqe=256) failed: Connection timed out
[1741256760.090314] [ohm:392785:0]        ib_iface.c:1059 UCX  ERROR ibv_create_cq(cqe=256) failed: Connection timed out
[1741256760.091845] [ohm:392809:0]        ib_iface.c:1059 UCX  ERROR ibv_create_cq(cqe=256) failed: Connection timed out
[1741256760.096929] [ohm:392827:0]        ib_iface.c:1059 UCX  ERROR ibv_create_cq(cqe=256) failed: Connection timed out
[1741256760.097856] [ohm:392815:0]        ib_iface.c:1059 UCX  ERROR ibv_create_cq(cqe=256) failed: Connection timed out
[1741256760.099804] [ohm:392784:0]        ib_iface.c:1059 UCX  ERROR ibv_create_cq(cqe=256) failed: Connection timed out
[1741256760.100912] [ohm:392824:0]        ib_iface.c:1059 UCX  ERROR ibv_create_cq(cqe=256) failed: Connection timed out
[1741256760.101740] [ohm:392735:0]        ib_iface.c:1059 UCX  ERROR ibv_create_cq(cqe=256) failed: Connection timed out
[1741256760.102497] [ohm:392746:0]        ib_iface.c:1059 UCX  ERROR ibv_create_cq(cqe=256) failed: Connection timed out
[1741256760.102937] [ohm:392873:0]        ib_iface.c:1059 UCX  ERROR ibv_create_cq(cqe=256) failed: Connection timed out
[1741256760.103390] [ohm:392734:0]        ib_iface.c:1059 UCX  ERROR ibv_create_cq(cqe=256) failed: Connection timed out
[1741256760.103834] [ohm:392767:0]        ib_iface.c:1059 UCX  ERROR ibv_create_cq(cqe=256) failed: Connection timed out
[1741256760.104062] [ohm:392832:0]        ib_iface.c:1059 UCX  ERROR ibv_create_cq(cqe=256) failed: Connection timed out
[1741256760.104218] [ohm:392753:0]        ib_iface.c:1059 UCX  ERROR ibv_create_cq(cqe=256) failed: Connection timed out
[1741256760.104746] [ohm:392797:0]        ib_iface.c:1059 UCX  ERROR ibv_create_cq(cqe=256) failed: Connection timed out


           ************************************************************
           *        Program running with 64 parallel MPI-processes    *
           *              working on a common directory               *
           ************************************************************
------------------------------------------------------------------------------
                             ORCA STARTUP CALCULATIONS
                           -- RI-GTO INTEGRALS CHOSEN --
------------------------------------------------------------------------------
------------------------------------------------------------------------------
                   ___                                                        
                  /   \      - P O W E R E D   B Y -                         
                 /     \                                                     
                 |  |  |   _    _      __       _____    __    __             
                 |  |  |  | |  | |    /  \     |  _  \  |  |  /  |          
                  \  \/   | |  | |   /    \    | | | |  |  | /  /          
                 / \  \   | |__| |  /  /\  \   | |_| |  |  |/  /          
                |  |  |   |  __  | /  /__\  \  |    /   |      \           
                |  |  |   | |  | | |   __   |  |    \   |  |\   \          
                \     /   | |  | | |  |  |  |  | |\  \  |  | \   \       
                 \___/    |_|  |_| |__|  |__|  |_| \__\ |__|  \__/        
                                                                              
                      - O R C A' S   B I G   F R I E N D -                    
                                      &                                       
                       - I N T E G R A L  F E E D E R -                       
                                                                              
 v1 FN, 2020, v2 2021, v3 2022-2024                                           
------------------------------------------------------------------------------


----------------------
SHARK INTEGRAL PACKAGE
----------------------

Number of atoms                             ...     30
Number of basis functions                   ...    882
Number of shells                            ...    322
Maximum angular momentum                    ...      3
Integral batch strategy                     ... SHARK/LIBINT Hybrid
RI-J (if used) integral strategy            ... SPLIT-RIJ (Revised 2003 algorithm where possible)
Printlevel                                  ...      1
Contraction scheme used                     ... SEGMENTED contraction
Prescreening option                         ... SCHWARTZ
   Thresh                                   ... 2.500e-11
   Tcut                                     ... 2.500e-12
   Tpresel                                  ... 2.500e-12 
Coulomb Range Separation                    ... NOT USED
Exchange Range Separation                   ... Long Range
   Mu parameter                             ... 3.000e-01
   Scaling (regular/separated)              ... 1.500e-01 8.500e-01
Multipole approximations                    ... NOT USED
Finite Nucleus Model                        ... NOT USED
CABS basis                                  ... NOT available
Auxiliary Coulomb fitting basis             ... AVAILABLE
   # of basis functions in Aux-J            ...   1014
   # of shells in Aux-J                     ...    330
   Maximum angular momentum in Aux-J        ...      4
Auxiliary J/K fitting basis                 ... NOT available
Auxiliary Correlation fitting basis         ... NOT available
Auxiliary 'external' fitting basis          ... NOT available

Checking pre-screening integrals            ... done (  0.0 sec) Dimension = 322
Check shell pair data                       ... done (  0.0 sec)
Shell pair information
Shell pair cut-off parameter TPreSel        ...   2.5e-12
Total number of shell pairs                 ...     52003
Shell pairs after pre-screening             ...     45458
Total number of primitive shell pairs       ...    129718
Primitive shell pairs kept                  ...     85297
          la=0 lb=0:   8799 shell pairs
          la=1 lb=0:  12020 shell pairs
          la=1 lb=1:   4144 shell pairs
          la=2 lb=0:   8166 shell pairs
          la=2 lb=1:   5649 shell pairs
          la=2 lb=2:   1954 shell pairs
          la=3 lb=0:   2096 shell pairs
          la=3 lb=1:   1479 shell pairs
          la=3 lb=2:   1005 shell pairs
          la=3 lb=3:    146 shell pairs

Calculating one electron integrals          ... done (  0.2 sec)
Calculating RI/J V-Matrix + Cholesky decomp.... done (  0.1 sec)
Calculating Nuclear repulsion               ... done (  0.0 sec) ENN=   1463.455167006655 Eh

Diagonalization of the overlap matrix:
Smallest eigenvalue                        ... 6.191e-07
Time for diagonalization                   ...    0.129 sec
Threshold for overlap eigenvalues          ... 1.000e-07
Number of eigenvalues below threshold      ... 0

IMPORTANT:
Smallest eigenvalue of S below the DiffSThresh (1.000e-06) while
Thresh>1e-12 and/or TCut>1e-13! In order to avoid SCF convergence issues,
Thresh will be set to at least 1e-12 and TCut to at least 1e-13.
This can be turned off by adding %SCF DiffSThresh -1 END to the input.

Time for construction of square roots      ...    0.134 sec
Total time needed                          ...    0.275 sec

-------------------
DFT GRID GENERATION
-------------------

General Integration Accuracy     IntAcc      ... 4.388
Radial Grid Type                 RadialGrid  ... OptM3 with GC (2021)
Angular Grid (max. ang.)         AngularGrid ... 4 (Lebedev-302)
Angular grid pruning method      GridPruning ... 4 (adaptive)
Weight generation scheme         WeightScheme... mBecke (2022)
Basis function cutoff            BFCut       ... 1.0000e-11
Integration weight cutoff        WCut        ... 1.0000e-14
Partially contracted basis set               ... off
Rotationally invariant grid construction     ... off
Angular grids for H and He will be reduced by one unit
Diffuse basis detected: some atoms will have their outermost
                        angular grid increased by 1.

Total number of grid points                  ...   151622
Total number of batches                      ...     2382
Average number of points per batch           ...       63
Average number of grid points per atom       ...     5054

--------------------
COSX GRID GENERATION
--------------------

GRIDX 1
-------
General Integration Accuracy     IntAcc      ... 3.816
Radial Grid Type                 RadialGrid  ... OptM3 with GC (2021)
Angular Grid (max. ang.)         AngularGrid ... 1 (Lebedev-50)
Angular grid pruning method      GridPruning ... 4 (adaptive)
Weight generation scheme         WeightScheme... mBecke (2022)
Basis function cutoff            BFCut       ... 1.0000e-11
Integration weight cutoff        WCut        ... 1.0000e-14
Partially contracted basis set               ... on
Rotationally invariant grid construction     ... off
Angular grids for H and He will be reduced by one unit
Diffuse basis detected: some atoms will have their outermost
                        angular grid increased by 1.

Total number of grid points                  ...    19013
Total number of batches                      ...      165
Average number of points per batch           ...      115
Average number of grid points per atom       ...      634
UseSFitting                                  ... on

GRIDX 2
-------
General Integration Accuracy     IntAcc      ... 4.020
Radial Grid Type                 RadialGrid  ... OptM3 with GC (2021)
Angular Grid (max. ang.)         AngularGrid ... 2 (Lebedev-110)
Angular grid pruning method      GridPruning ... 4 (adaptive)
Weight generation scheme         WeightScheme... mBecke (2022)
Basis function cutoff            BFCut       ... 1.0000e-11
Integration weight cutoff        WCut        ... 1.0000e-14
Partially contracted basis set               ... on
Rotationally invariant grid construction     ... off
Angular grids for H and He will be reduced by one unit
Diffuse basis detected: some atoms will have their outermost
                        angular grid increased by 1.

Total number of grid points                  ...    45695
Total number of batches                      ...      373
Average number of points per batch           ...      122
Average number of grid points per atom       ...     1523
UseSFitting                                  ... on

GRIDX 3
-------
General Integration Accuracy     IntAcc      ... 4.338
Radial Grid Type                 RadialGrid  ... OptM3 with GC (2021)
Angular Grid (max. ang.)         AngularGrid ... 3 (Lebedev-194)
Angular grid pruning method      GridPruning ... 4 (adaptive)
Weight generation scheme         WeightScheme... mBecke (2022)
Basis function cutoff            BFCut       ... 1.0000e-11
Integration weight cutoff        WCut        ... 1.0000e-14
Partially contracted basis set               ... on
Rotationally invariant grid construction     ... off
Angular grids for H and He will be reduced by one unit
Diffuse basis detected: some atoms will have their outermost
                        angular grid increased by 1.

Total number of grid points                  ...   100543
Total number of batches                      ...      802
Average number of points per batch           ...      125
Average number of grid points per atom       ...     3351
UseSFitting                                  ... on
Initializing property integral containers    ... done (  0.0 sec)

SHARK setup successfully completed in   4.2 seconds

Maximum memory used throughout the entire STARTUP-calculation: 80.6 MB
[1741256766.241569] [ohm:393056:0]        ib_iface.c:1059 UCX  ERROR ibv_create_cq(cqe=256) failed: Connection timed out
[1741256766.259608] [ohm:393054:0]        ib_iface.c:1059 UCX  ERROR ibv_create_cq(cqe=256) failed: Connection timed out
[1741256766.259711] [ohm:393066:0]        ib_iface.c:1059 UCX  ERROR ibv_create_cq(cqe=256) failed: Connection timed out
[1741256766.270261] [ohm:393057:0]        ib_iface.c:1059 UCX  ERROR ibv_create_cq(cqe=256) failed: Connection timed out
[1741256766.284856] [ohm:393074:0]        ib_iface.c:1059 UCX  ERROR ibv_create_cq(cqe=256) failed: Connection timed out
[1741256766.300027] [ohm:393068:0]        ib_iface.c:1059 UCX  ERROR ibv_create_cq(cqe=256) failed: Connection timed out
[1741256766.301799] [ohm:393060:0]        ib_iface.c:1059 UCX  ERROR ibv_create_cq(cqe=256) failed: Connection timed out
[1741256766.312671] [ohm:393121:0]        ib_iface.c:1059 UCX  ERROR ibv_create_cq(cqe=256) failed: Connection timed out
[1741256766.312723] [ohm:393075:0]        ib_iface.c:1059 UCX  ERROR ibv_create_cq(cqe=256) failed: Connection timed out
[1741256766.318220] [ohm:393093:0]        ib_iface.c:1059 UCX  ERROR ibv_create_cq(cqe=256) failed: Connection timed out
[1741256766.319979] [ohm:393053:0]        ib_iface.c:1059 UCX  ERROR ibv_create_cq(cqe=256) failed: Connection timed out
[1741256766.323777] [ohm:393059:0]        ib_iface.c:1059 UCX  ERROR ibv_create_cq(cqe=256) failed: Connection timed out
[1741256766.335704] [ohm:393069:0]        ib_iface.c:1059 UCX  ERROR ibv_create_cq(cqe=256) failed: Connection timed out
[1741256766.360775] [ohm:393072:0]        ib_iface.c:1059 UCX  ERROR ibv_create_cq(cqe=256) failed: Connection timed out
[1741256766.366439] [ohm:393117:0]        ib_iface.c:1059 UCX  ERROR ibv_create_cq(cqe=256) failed: Connection timed out
[1741256766.371550] [ohm:393061:0]        ib_iface.c:1059 UCX  ERROR ibv_create_cq(cqe=256) failed: Connection timed out
[1741256766.374215] [ohm:393120:0]        ib_iface.c:1059 UCX  ERROR ibv_create_cq(cqe=256) failed: Connection timed out
[1741256766.385780] [ohm:393079:0]        ib_iface.c:1059 UCX  ERROR ibv_create_cq(cqe=256) failed: Connection timed out
[1741256766.394090] [ohm:393062:0]        ib_iface.c:1059 UCX  ERROR ibv_create_cq(cqe=256) failed: Connection timed out
[1741256766.437200] [ohm:393136:0]        ib_iface.c:1059 UCX  ERROR ibv_create_cq(cqe=256) failed: Connection timed out
[1741256766.451584] [ohm:393063:0]        ib_iface.c:1059 UCX  ERROR ibv_create_cq(cqe=256) failed: Connection timed out
[1741256766.460249] [ohm:393114:0]        ib_iface.c:1059 UCX  ERROR ibv_create_cq(cqe=256) failed: Connection timed out
[1741256766.469436] [ohm:393081:0]        ib_iface.c:1059 UCX  ERROR ibv_create_cq(cqe=256) failed: Connection timed out
[1741256766.479369] [ohm:393186:0]        ib_iface.c:1059 UCX  ERROR ibv_create_cq(cqe=256) failed: Connection timed out
[1741256766.486385] [ohm:393067:0]        ib_iface.c:1059 UCX  ERROR ibv_create_cq(cqe=256) failed: Connection timed out
[1741256766.490881] [ohm:393108:0]        ib_iface.c:1059 UCX  ERROR ibv_create_cq(cqe=256) failed: Connection timed out
[1741256766.490981] [ohm:393076:0]        ib_iface.c:1059 UCX  ERROR ibv_create_cq(cqe=256) failed: Connection timed out
[1741256766.491146] [ohm:393087:0]        ib_iface.c:1059 UCX  ERROR ibv_create_cq(cqe=256) failed: Connection timed out
[1741256766.493496] [ohm:393178:0]        ib_iface.c:1059 UCX  ERROR ibv_create_cq(cqe=256) failed: Connection timed out
[1741256766.500570] [ohm:393147:0]        ib_iface.c:1059 UCX  ERROR ibv_create_cq(cqe=256) failed: Connection timed out
[1741256766.509199] [ohm:393124:0]        ib_iface.c:1059 UCX  ERROR ibv_create_cq(cqe=256) failed: Connection timed out
[1741256766.537197] [ohm:393176:0]        ib_iface.c:1059 UCX  ERROR ibv_create_cq(cqe=256) failed: Connection timed out
[1741256766.539264] [ohm:393090:0]        ib_iface.c:1059 UCX  ERROR ibv_create_cq(cqe=256) failed: Connection timed out
[1741256766.541257] [ohm:393171:0]        ib_iface.c:1059 UCX  ERROR ibv_create_cq(cqe=256) failed: Connection timed out
[1741256766.544543] [ohm:393196:0]        ib_iface.c:1059 UCX  ERROR ibv_create_cq(cqe=256) failed: Connection timed out
[1741256766.547422] [ohm:393058:0]        ib_iface.c:1059 UCX  ERROR ibv_create_cq(cqe=256) failed: Connection timed out
[1741256766.548776] [ohm:393083:0]        ib_iface.c:1059 UCX  ERROR ibv_create_cq(cqe=256) failed: Connection timed out
[1741256766.555260] [ohm:393104:0]        ib_iface.c:1059 UCX  ERROR ibv_create_cq(cqe=256) failed: Connection timed out
[1741256766.560091] [ohm:393152:0]        ib_iface.c:1059 UCX  ERROR ibv_create_cq(cqe=256) failed: Connection timed out
[1741256766.567187] [ohm:393055:0]        ib_iface.c:1059 UCX  ERROR ibv_create_cq(cqe=256) failed: Connection timed out
[1741256766.571406] [ohm:393181:0]        ib_iface.c:1059 UCX  ERROR ibv_create_cq(cqe=256) failed: Connection timed out
[1741256766.573434] [ohm:393200:0]        ib_iface.c:1059 UCX  ERROR ibv_create_cq(cqe=256) failed: Connection timed out
[1741256766.573939] [ohm:393073:0]        ib_iface.c:1059 UCX  ERROR ibv_create_cq(cqe=256) failed: Connection timed out
[1741256766.576654] [ohm:393070:0]        ib_iface.c:1059 UCX  ERROR ibv_create_cq(cqe=256) failed: Connection timed out
[1741256766.579121] [ohm:393082:0]        ib_iface.c:1059 UCX  ERROR ibv_create_cq(cqe=256) failed: Connection timed out
[1741256766.580262] [ohm:393142:0]        ib_iface.c:1059 UCX  ERROR ibv_create_cq(cqe=256) failed: Connection timed out
[1741256766.580995] [ohm:393071:0]        ib_iface.c:1059 UCX  ERROR ibv_create_cq(cqe=256) failed: Connection timed out
[1741256766.582816] [ohm:393149:0]        ib_iface.c:1059 UCX  ERROR ibv_create_cq(cqe=256) failed: Connection timed out
[1741256766.583065] [ohm:393065:0]        ib_iface.c:1059 UCX  ERROR ibv_create_cq(cqe=256) failed: Connection timed out
[1741256766.589695] [ohm:393112:0]        ib_iface.c:1059 UCX  ERROR ibv_create_cq(cqe=256) failed: Connection timed out
[1741256766.593930] [ohm:393192:0]        ib_iface.c:1059 UCX  ERROR ibv_create_cq(cqe=256) failed: Connection timed out
[1741256766.595890] [ohm:393162:0]        ib_iface.c:1059 UCX  ERROR ibv_create_cq(cqe=256) failed: Connection timed out
[1741256766.598307] [ohm:393080:0]        ib_iface.c:1059 UCX  ERROR ibv_create_cq(cqe=256) failed: Connection timed out
[1741256766.601803] [ohm:393188:0]        ib_iface.c:1059 UCX  ERROR ibv_create_cq(cqe=256) failed: Connection timed out
[1741256766.602595] [ohm:393077:0]        ib_iface.c:1059 UCX  ERROR ibv_create_cq(cqe=256) failed: Connection timed out
[1741256766.604798] [ohm:393159:0]        ib_iface.c:1059 UCX  ERROR ibv_create_cq(cqe=256) failed: Connection timed out
[1741256766.605262] [ohm:393155:0]        ib_iface.c:1059 UCX  ERROR ibv_create_cq(cqe=256) failed: Connection timed out
[1741256766.605882] [ohm:393138:0]        ib_iface.c:1059 UCX  ERROR ibv_create_cq(cqe=256) failed: Connection timed out
[1741256766.606554] [ohm:393078:0]        ib_iface.c:1059 UCX  ERROR ibv_create_cq(cqe=256) failed: Connection timed out
[1741256766.607330] [ohm:393099:0]        ib_iface.c:1059 UCX  ERROR ibv_create_cq(cqe=256) failed: Connection timed out
[1741256766.607578] [ohm:393130:0]        ib_iface.c:1059 UCX  ERROR ibv_create_cq(cqe=256) failed: Connection timed out
[1741256766.609039] [ohm:393064:0]        ib_iface.c:1059 UCX  ERROR ibv_create_cq(cqe=256) failed: Connection timed out
[1741256766.610317] [ohm:393127:0]        ib_iface.c:1059 UCX  ERROR ibv_create_cq(cqe=256) failed: Connection timed out
[1741256766.610953] [ohm:393164:0]        ib_iface.c:1059 UCX  ERROR ibv_create_cq(cqe=256) failed: Connection timed out


           ************************************************************
           *        Program running with 64 parallel MPI-processes    *
           *              working on a common directory               *
           ************************************************************
-------------------------------------------------------------------------------
                                 ORCA GUESS
                   Start orbitals & Density for SCF / CASSCF
-------------------------------------------------------------------------------

------------
SCF SETTINGS
------------
Hamiltonian:
 Density Functional     Method          .... DFT(GTOs)
  Functional kind                       .... Exchange-Correlation
  Functional name                       .... wB97M-V exchange-correlation functional
  Functional family                     .... Hybrid MGGA
  Functional refs                              
    [ 0] N. Mardirossian and M. Head-Gordon.,  J. Chem. Phys. 144, 214110 (2016), doi: 10.1063/1.4952647
  Fraction of HF Exchange (short range) .... 0.1500
  Fraction of HF Exchange (long range)  .... 1.0000
  Range separation parameter mu         .... 0.3000
  Functional external parameters        .... 17
    Parameter  0 _cx00      =  8.500000e-01 : u^00 coefficient for exchange
    Parameter  1 _cx01      =  1.007000e+00 : u^01 coefficient for exchange
    Parameter  2 _cx10      =  2.590000e-01 : u^10 coefficient for exchange
    Parameter  3 _css00     =  4.430000e-01 : u^00 coefficient for same-spin correlation
    Parameter  4 _css04     = -1.437000e+00 : u^04 coefficient for same-spin correlation
    Parameter  5 _css10     = -4.535000e+00 : u^10 coefficient for same-spin correlation
    Parameter  6 _css20     = -3.390000e+00 : u^20 coefficient for same-spin correlation
    Parameter  7 _css43     =  4.278000e+00 : u^43 coefficient for same-spin correlation
    Parameter  8 _cos00     =  1.000000e+00 : u^00 coefficient for opposite-spin correlation
    Parameter  9 _cos10     =  1.358000e+00 : u^10 coefficient for opposite-spin correlation
    Parameter 10 _cos20     =  2.924000e+00 : u^20 coefficient for opposite-spin correlation
    Parameter 11 _cos21     = -8.812000e+00 : u^21 coefficient for opposite-spin correlation
    Parameter 12 _cos60     = -1.390000e+00 : u^60 coefficient for opposite-spin correlation
    Parameter 13 _cos61     =  9.142000e+00 : u^61 coefficient for opposite-spin correlation
    Parameter 14 _alpha     =  1.000000e+00 : fraction of HF exchange
    Parameter 15 _beta      = -8.500000e-01 : fraction of short-range exchange
    Parameter 16 _omega     =  3.000000e-01 : range-separation constant
 Long-range corrected/Screened/Range-Separated Hybrid DFT is turned on
   Amount of maximum screened exact exchange              ....  0.850000
   Range separation parameter mu (erf(mu*r12)/r12)        ....  0.300000
 RI-approximation to the Coulomb term is turned on
   Number of AuxJ basis functions       .... 1014
   RIJ-COSX (HFX calculated with COS-X)).... on


General Settings:
 Integral files         IntName         .... orca
 Hartree-Fock type      HFTyp           .... UHF
 Total Charge           Charge          ....    0
 Multiplicity           Mult            ....    3
 Number of Electrons    NEL             ....  132
 Basis Dimension        Dim             ....  882
 Nuclear Repulsion      ENuc            ....   1463.4551670067 Eh

Convergence Acceleration:
 AO-DIIS                CNVDIIS         .... on
   Start iteration      DIISMaxIt       ....    12
   Startup error        DIISStart       ....  0.200000
   # of expansion vecs  DIISMaxEq       ....     5
   Bias factor          DIISBfac        ....   1.050
   Max. coefficient     DIISMaxC        ....  10.000
 MO-DIIS                CNVKDIIS        .... off
 Trust-Rad. Augm. Hess. CNVTRAH         .... auto
   Auto Start mean grad. ratio tolernc. ....  1.125000
   Auto Start start iteration           ....    50
   Auto Start num. interpolation iter.  ....    10
   Max. Number of Micro iterations      ....    24
   Max. Number of Macro iterations      .... Maxiter - #DIIS iter
   Number of Davidson start vectors     ....     2
   Converg. threshold    (grad. norm)   ....   1.000e-05
   Grad. Scal. Fac. for Micro threshold ....   0.100
   Minimum threshold for Micro iter.    ....   1.000e-02
   NR start threshold (gradient norm)   ....   1.000e-04
   Initial trust radius                 ....   0.400
   Minimum AH scaling param. (alpha)    ....   1.000
   Maximum AH scaling param. (alpha)    .... 1000.000
   Quad. conv. algorithm                .... NR
   White noise on init. David. guess    .... on
   Maximum white noise                  ....   0.010
   Pseudo random numbers                .... off
   Inactive MOs                         .... canonical
   Orbital update algorithm             .... Taylor
   Preconditioner                       .... Diag
   Full preconditioner red. dimension   ....   250
 SOSCF                  CNVSOSCF        .... on
   Start iteration      SOSCFMaxIt      ....   150
   Startup grad/error   SOSCFStart      ....  0.003300
   Hessian update       SOSCFHessUp     .... L-BFGS
 Level Shifting         CNVShift        .... on
   Level shift para.    LevelShift      ....    0.2500
   Turn off err/grad.   ShiftErr        ....    0.0010
 Zerner damping         CNVZerner       .... off
 Static damping         CNVDamp         .... on
   Fraction old density DampFac         ....    0.7000
   Max. Damping (<1)    DampMax         ....    0.9800
   Min. Damping (>=0)   DampMin         ....    0.0000
   Turn off err/grad.   DampErr         ....    0.1000

SCF Procedure:
 Maximum # iterations   MaxIter         ....   125
 SCF integral mode      SCFMode         .... Direct
   Integral package                     .... SHARK and LIBINT hybrid scheme
 Reset frequency        DirectResetFreq ....    20
 Integral Threshold     Thresh          ....  1.000e-12 Eh
 Primitive CutOff       TCut            ....  1.000e-13 Eh

Convergence Tolerance:
 Convergence Check Mode ConvCheckMode   .... Total+1el-Energy
 Convergence forced     ConvForced      .... 1
 Energy Change          TolE            ....  1.000e-08 Eh
 1-El. energy change                    ....  1.000e-05 Eh
 Orbital Gradient       TolG            ....  1.000e-05
 Orbital Rotation angle TolX            ....  1.000e-05
 DIIS Error             TolErr          ....  5.000e-07

------------------------------
INITIAL GUESS: MODEL POTENTIAL
------------------------------
Loading Hartree-Fock densities                     ... done
Calculating cut-offs                               ... done
Initializing the effective Hamiltonian             ... done
Setting up the integral package (SHARK)            ... done
Starting the Coulomb interaction                   ... done (   0.1 sec)
Making the grid                                    ... done (   0.2 sec)
Mapping shells                                     ... done
Starting the XC term evaluation                    ... done (   0.1 sec)
  promolecular density results
     # of electrons  =    132.005108359
     EX              =   -113.554844526
     EC              =     -4.505321733
     EX+EC           =   -118.060166260
Transforming the Hamiltonian                       ... done (   0.1 sec)
Diagonalizing the Hamiltonian                      ... done (   0.1 sec)
Back transforming the eigenvectors                 ... done (   0.1 sec)
Now organizing SCF variables                       ... done
                      ------------------
                      INITIAL GUESS DONE (   1.1 sec)
                      ------------------
             **** ENERGY FILE WAS UPDATED (orca.en.tmp) ****
Finished Guess after   3.6 sec
Maximum memory used throughout the entire GUESS-calculation: 73.2 MB
[1741256770.577714] [ohm:393391:0]        ib_iface.c:1059 UCX  ERROR ibv_create_cq(cqe=256) failed: Connection timed out
[1741256770.582343] [ohm:393395:0]        ib_iface.c:1059 UCX  ERROR ibv_create_cq(cqe=256) failed: Connection timed out
[1741256770.589732] [ohm:393390:0]        ib_iface.c:1059 UCX  ERROR ibv_create_cq(cqe=256) failed: Connection timed out
[1741256770.606606] [ohm:393405:0]        ib_iface.c:1059 UCX  ERROR ibv_create_cq(cqe=256) failed: Connection timed out
[1741256770.609778] [ohm:393398:0]        ib_iface.c:1059 UCX  ERROR ibv_create_cq(cqe=256) failed: Connection timed out
[1741256770.616741] [ohm:393397:0]        ib_iface.c:1059 UCX  ERROR ibv_create_cq(cqe=256) failed: Connection timed out
[1741256770.623355] [ohm:393400:0]        ib_iface.c:1059 UCX  ERROR ibv_create_cq(cqe=256) failed: Connection timed out
[1741256770.627387] [ohm:393413:0]        ib_iface.c:1059 UCX  ERROR ibv_create_cq(cqe=256) failed: Connection timed out
[1741256770.632153] [ohm:393388:0]        ib_iface.c:1059 UCX  ERROR ibv_create_cq(cqe=256) failed: Connection timed out
[1741256770.633519] [ohm:393417:0]        ib_iface.c:1059 UCX  ERROR ibv_create_cq(cqe=256) failed: Connection timed out
[1741256770.687985] [ohm:393420:0]        ib_iface.c:1059 UCX  ERROR ibv_create_cq(cqe=256) failed: Connection timed out
[1741256770.695288] [ohm:393399:0]        ib_iface.c:1059 UCX  ERROR ibv_create_cq(cqe=256) failed: Connection timed out
[1741256770.706865] [ohm:393394:0]        ib_iface.c:1059 UCX  ERROR ibv_create_cq(cqe=256) failed: Connection timed out
[1741256770.714725] [ohm:393419:0]        ib_iface.c:1059 UCX  ERROR ibv_create_cq(cqe=256) failed: Connection timed out
[1741256770.719393] [ohm:393469:0]        ib_iface.c:1059 UCX  ERROR ibv_create_cq(cqe=256) failed: Connection timed out
[1741256770.733256] [ohm:393403:0]        ib_iface.c:1059 UCX  ERROR ibv_create_cq(cqe=256) failed: Connection timed out
[1741256770.759000] [ohm:393465:0]        ib_iface.c:1059 UCX  ERROR ibv_create_cq(cqe=256) failed: Connection timed out
[1741256770.778048] [ohm:393418:0]        ib_iface.c:1059 UCX  ERROR ibv_create_cq(cqe=256) failed: Connection timed out
[1741256770.784404] [ohm:393494:0]        ib_iface.c:1059 UCX  ERROR ibv_create_cq(cqe=256) failed: Connection timed out
[1741256770.786490] [ohm:393393:0]        ib_iface.c:1059 UCX  ERROR ibv_create_cq(cqe=256) failed: Connection timed out
[1741256770.787027] [ohm:393414:0]        ib_iface.c:1059 UCX  ERROR ibv_create_cq(cqe=256) failed: Connection timed out
[1741256770.793213] [ohm:393461:0]        ib_iface.c:1059 UCX  ERROR ibv_create_cq(cqe=256) failed: Connection timed out
[1741256770.794060] [ohm:393459:0]        ib_iface.c:1059 UCX  ERROR ibv_create_cq(cqe=256) failed: Connection timed out
[1741256770.794839] [ohm:393444:0]        ib_iface.c:1059 UCX  ERROR ibv_create_cq(cqe=256) failed: Connection timed out
[1741256770.809461] [ohm:393409:0]        ib_iface.c:1059 UCX  ERROR ibv_create_cq(cqe=256) failed: Connection timed out
[1741256770.819986] [ohm:393484:0]        ib_iface.c:1059 UCX  ERROR ibv_create_cq(cqe=256) failed: Connection timed out
[1741256770.823042] [ohm:393421:0]        ib_iface.c:1059 UCX  ERROR ibv_create_cq(cqe=256) failed: Connection timed out
[1741256770.829888] [ohm:393497:0]        ib_iface.c:1059 UCX  ERROR ibv_create_cq(cqe=256) failed: Connection timed out
[1741256770.831647] [ohm:393515:0]        ib_iface.c:1059 UCX  ERROR ibv_create_cq(cqe=256) failed: Connection timed out
[1741256770.834430] [ohm:393472:0]        ib_iface.c:1059 UCX  ERROR ibv_create_cq(cqe=256) failed: Connection timed out
[1741256770.836052] [ohm:393433:0]        ib_iface.c:1059 UCX  ERROR ibv_create_cq(cqe=256) failed: Connection timed out
[1741256770.838502] [ohm:393486:0]        ib_iface.c:1059 UCX  ERROR ibv_create_cq(cqe=256) failed: Connection timed out
[1741256770.840518] [ohm:393389:0]        ib_iface.c:1059 UCX  ERROR ibv_create_cq(cqe=256) failed: Connection timed out
[1741256770.842624] [ohm:393416:0]        ib_iface.c:1059 UCX  ERROR ibv_create_cq(cqe=256) failed: Connection timed out
[1741256770.847016] [ohm:393521:0]        ib_iface.c:1059 UCX  ERROR ibv_create_cq(cqe=256) failed: Connection timed out
[1741256770.850494] [ohm:393477:0]        ib_iface.c:1059 UCX  ERROR ibv_create_cq(cqe=256) failed: Connection timed out
[1741256770.866018] [ohm:393474:0]        ib_iface.c:1059 UCX  ERROR ibv_create_cq(cqe=256) failed: Connection timed out
[1741256770.876328] [ohm:393401:0]        ib_iface.c:1059 UCX  ERROR ibv_create_cq(cqe=256) failed: Connection timed out
[1741256770.882054] [ohm:393440:0]        ib_iface.c:1059 UCX  ERROR ibv_create_cq(cqe=256) failed: Connection timed out
[1741256770.883601] [ohm:393509:0]        ib_iface.c:1059 UCX  ERROR ibv_create_cq(cqe=256) failed: Connection timed out
[1741256770.883819] [ohm:393527:0]        ib_iface.c:1059 UCX  ERROR ibv_create_cq(cqe=256) failed: Connection timed out
[1741256770.886031] [ohm:393429:0]        ib_iface.c:1059 UCX  ERROR ibv_create_cq(cqe=256) failed: Connection timed out
[1741256770.888552] [ohm:393407:0]        ib_iface.c:1059 UCX  ERROR ibv_create_cq(cqe=256) failed: Connection timed out
[1741256770.888985] [ohm:393415:0]        ib_iface.c:1059 UCX  ERROR ibv_create_cq(cqe=256) failed: Connection timed out
[1741256770.896160] [ohm:393505:0]        ib_iface.c:1059 UCX  ERROR ibv_create_cq(cqe=256) failed: Connection timed out
[1741256770.897392] [ohm:393406:0]        ib_iface.c:1059 UCX  ERROR ibv_create_cq(cqe=256) failed: Connection timed out
[1741256770.897496] [ohm:393481:0]        ib_iface.c:1059 UCX  ERROR ibv_create_cq(cqe=256) failed: Connection timed out
[1741256770.898397] [ohm:393491:0]        ib_iface.c:1059 UCX  ERROR ibv_create_cq(cqe=256) failed: Connection timed out
[1741256770.900097] [ohm:393511:0]        ib_iface.c:1059 UCX  ERROR ibv_create_cq(cqe=256) failed: Connection timed out
[1741256770.910918] [ohm:393501:0]        ib_iface.c:1059 UCX  ERROR ibv_create_cq(cqe=256) failed: Connection timed out
[1741256770.912747] [ohm:393518:0]        ib_iface.c:1059 UCX  ERROR ibv_create_cq(cqe=256) failed: Connection timed out
[1741256770.913371] [ohm:393408:0]        ib_iface.c:1059 UCX  ERROR ibv_create_cq(cqe=256) failed: Connection timed out
[1741256770.916567] [ohm:393410:0]        ib_iface.c:1059 UCX  ERROR ibv_create_cq(cqe=256) failed: Connection timed out
[1741256770.917352] [ohm:393392:0]        ib_iface.c:1059 UCX  ERROR ibv_create_cq(cqe=256) failed: Connection timed out
[1741256770.917411] [ohm:393402:0]        ib_iface.c:1059 UCX  ERROR ibv_create_cq(cqe=256) failed: Connection timed out
[1741256770.919424] [ohm:393449:0]        ib_iface.c:1059 UCX  ERROR ibv_create_cq(cqe=256) failed: Connection timed out
[1741256770.919952] [ohm:393404:0]        ib_iface.c:1059 UCX  ERROR ibv_create_cq(cqe=256) failed: Connection timed out
[1741256770.920127] [ohm:393524:0]        ib_iface.c:1059 UCX  ERROR ibv_create_cq(cqe=256) failed: Connection timed out
[1741256770.920073] [ohm:393412:0]        ib_iface.c:1059 UCX  ERROR ibv_create_cq(cqe=256) failed: Connection timed out
[1741256770.920430] [ohm:393411:0]        ib_iface.c:1059 UCX  ERROR ibv_create_cq(cqe=256) failed: Connection timed out
[1741256770.920976] [ohm:393425:0]        ib_iface.c:1059 UCX  ERROR ibv_create_cq(cqe=256) failed: Connection timed out
[1741256770.921656] [ohm:393396:0]        ib_iface.c:1059 UCX  ERROR ibv_create_cq(cqe=256) failed: Connection timed out
[1741256770.923260] [ohm:393531:0]        ib_iface.c:1059 UCX  ERROR ibv_create_cq(cqe=256) failed: Connection timed out
[1741256770.923668] [ohm:393454:0]        ib_iface.c:1059 UCX  ERROR ibv_create_cq(cqe=256) failed: Connection timed out


           ************************************************************
           *        Program running with 64 parallel MPI-processes    *
           *              working on a common directory               *
           ************************************************************

-------------------------------------------------------------------------------------------
                                      ORCA LEAN-SCF
                              memory conserving SCF solver
-------------------------------------------------------------------------------------------

----------------------------------------D-I-I-S--------------------------------------------
Iteration    Energy (Eh)           Delta-E    RMSDP     MaxDP     DIISErr   Damp  Time(sec)
-------------------------------------------------------------------------------------------
               ***  Starting incremental Fock matrix formation  ***
    1    -908.0907546582745908     0.00e+00  1.51e-03  2.76e-01  1.48e-01  0.700   7.9
    2    -908.3616902732362632    -2.71e-01  1.20e-03  1.81e-01  6.88e-02  0.700   6.7
                               ***Turning on AO-DIIS***
    3    -908.4803961891673225    -1.19e-01  8.57e-04  1.26e-01  2.72e-02  0.700   5.9
    4    -908.5535180237891382    -7.31e-02  2.03e-03  2.92e-01  1.70e-02  0.000   5.8
    5    -908.7180907894050961    -1.65e-01  2.20e-04  4.22e-02  4.56e-03  0.000   5.9
                              *** Initializing SOSCF ***
---------------------------------------S-O-S-C-F--------------------------------------
Iteration    Energy (Eh)           Delta-E    RMSDP     MaxDP     MaxGrad    Time(sec)
--------------------------------------------------------------------------------------
    6    -908.7195726118227412    -1.48e-03  1.15e-04  2.70e-02  2.36e-03     6.6
               *** Restarting incremental Fock matrix formation ***
    7    -908.7203151632763820    -7.43e-04  2.21e-04  2.27e-02  6.52e-03     7.4
    8    -908.7208383987779143    -5.23e-04  2.19e-04  3.91e-02  3.60e-03     6.6
    9    -908.7210491032067239    -2.11e-04  1.31e-04  1.37e-02  1.18e-03     6.7
   10    -908.7211450742595389    -9.60e-05  3.21e-05  7.43e-03  6.54e-04     6.5
   11    -908.7211624329245296    -1.74e-05  9.64e-06  9.07e-04  1.55e-04     6.4
   12    -908.7211654122049822    -2.98e-06  6.22e-06  9.55e-04  1.91e-04     6.1
   13    -908.7211671016746095    -1.69e-06  5.37e-06  4.68e-04  5.95e-05     6.1
   14    -908.7211674483326078    -3.47e-07  1.78e-06  3.20e-04  3.60e-05     6.0
   15    -908.7211675346150059    -8.63e-08  1.36e-06  1.72e-04  1.49e-05     5.8
   16    -908.7211675696200928    -3.50e-08  1.27e-06  3.48e-04  4.57e-06     5.9
   17    -908.7211676443723718    -7.48e-08  9.36e-07  1.48e-04  2.93e-06     5.7
   18    -908.7211676534413982    -9.07e-09  1.36e-06  2.57e-04  1.06e-06     5.5
                 **** Energy Check signals convergence ****

               *****************************************************
               *                     SUCCESS                       *
               *           SCF CONVERGED AFTER  18 CYCLES          *
               *****************************************************

Recomputing exchange energy using gridx3       ... done (    8.099 sec)
Old exchange energy                            :    -35.026294228 Eh
New exchange energy                            :    -35.026286202 Eh
Exchange energy change after final integration :      0.000008026 Eh
Total energy after final integration           :   -908.721159628 Eh
             **** ENERGY FILE WAS UPDATED (orca.en.tmp) ****

----------------
TOTAL SCF ENERGY
----------------

Total Energy       :       -908.72115962754503 Eh          -24727.55988 eV

Components:
Nuclear Repulsion  :       1463.45516700665462 Eh           39822.63964 eV
Electronic Energy  :      -2372.17633466009602 Eh          -64550.19973 eV
One Electron Energy:      -4143.51570261622874 Eh         -112750.79441 eV
Two Electron Energy:       1771.33936795613272 Eh           48200.59467 eV

Virial components:
Potential Energy   :      -1814.44308650679955 Eh          -49373.50648 eV
Kinetic Energy     :        905.72192687925451 Eh           24645.94661 eV
Virial Ratio       :          2.00331142777853

DFT components:
N(Alpha)           :       67.000028792598 electrons
N(Beta)            :       65.000041160706 electrons
N(Total)           :      132.000069953304 electrons
E(XC)              :      -86.245270330823 Eh       

---------------
SCF CONVERGENCE
---------------

  Last Energy change         ...    9.0690e-09  Tolerance :   1.0000e-08
  Last MAX-Density change    ...    2.5675e-04  Tolerance :   1.0000e-07
  Last RMS-Density change    ...    1.3607e-06  Tolerance :   5.0000e-09
  Last DIIS Error            ...    2.3557e-03  Tolerance :   5.0000e-07
  Last Orbital Gradient      ...    1.0641e-06  Tolerance :   1.0000e-05
  Last Orbital Rotation      ...    8.1608e-06  Tolerance :   1.0000e-05


----------------------
UHF SPIN CONTAMINATION
----------------------

Warning: in a DFT calculation there is little theoretical justification to 
         calculate <S**2> as in Hartree-Fock theory. We will do it anyways
         but you should keep in mind that the values have only limited relevance

Expectation value of <S**2>     :     2.016918
Ideal value S*(S+1) for S=1.0   :     2.000000
Deviation                       :     0.016918

----------------
ORBITAL ENERGIES
----------------
                 SPIN UP ORBITALS
  NO   OCC          E(Eh)            E(eV) 
   0   1.0000     -19.338592      -526.2298 
   1   1.0000     -19.334592      -526.1210 
   2   1.0000     -19.333079      -526.0798 
   3   1.0000     -19.323164      -525.8100 
   4   1.0000     -14.571322      -396.5058 
   5   1.0000     -14.570848      -396.4929 
   6   1.0000     -14.570677      -396.4883 
   7   1.0000     -14.558732      -396.1632 
   8   1.0000     -10.517340      -286.1914 
   9   1.0000     -10.504662      -285.8464 
  10   1.0000     -10.485252      -285.3182 
  11   1.0000     -10.483665      -285.2750 
  12   1.0000     -10.453946      -284.4663 
  13   1.0000     -10.452440      -284.4254 
  14   1.0000     -10.424599      -283.6677 
  15   1.0000     -10.416867      -283.4574 
  16   1.0000     -10.387709      -282.6639 
  17   1.0000     -10.363431      -282.0033 
  18   1.0000      -1.231905       -33.5218 
  19   1.0000      -1.227255       -33.3953 
  20   1.0000      -1.197496       -32.5855 
  21   1.0000      -1.177804       -32.0497 
  22   1.0000      -1.128002       -30.6945 
  23   1.0000      -1.108055       -30.1517 
  24   1.0000      -1.076017       -29.2799 
  25   1.0000      -1.069988       -29.1159 
  26   1.0000      -0.986190       -26.8356 
  27   1.0000      -0.959225       -26.1018 
  28   1.0000      -0.880285       -23.9538 
  29   1.0000      -0.852074       -23.1861 
  30   1.0000      -0.833896       -22.6915 
  31   1.0000      -0.803339       -21.8600 
  32   1.0000      -0.794033       -21.6067 
  33   1.0000      -0.792068       -21.5533 
  34   1.0000      -0.707181       -19.2434 
  35   1.0000      -0.698615       -19.0103 
  36   1.0000      -0.688688       -18.7402 
  37   1.0000      -0.681185       -18.5360 
  38   1.0000      -0.668030       -18.1780 
  39   1.0000      -0.629474       -17.1289 
  40   1.0000      -0.622104       -16.9283 
  41   1.0000      -0.610438       -16.6109 
  42   1.0000      -0.601110       -16.3570 
  43   1.0000      -0.588861       -16.0237 
  44   1.0000      -0.578883       -15.7522 
  45   1.0000      -0.570330       -15.5195 
  46   1.0000      -0.567645       -15.4464 
  47   1.0000      -0.566290       -15.4095 
  48   1.0000      -0.559679       -15.2296 
  49   1.0000      -0.556733       -15.1495 
  50   1.0000      -0.548360       -14.9216 
  51   1.0000      -0.538997       -14.6668 
  52   1.0000      -0.532706       -14.4957 
  53   1.0000      -0.529855       -14.4181 
  54   1.0000      -0.509667       -13.8688 
  55   1.0000      -0.497231       -13.5303 
  56   1.0000      -0.491583       -13.3767 
  57   1.0000      -0.437315       -11.8999 
  58   1.0000      -0.422264       -11.4904 
  59   1.0000      -0.420337       -11.4380 
  60   1.0000      -0.412027       -11.2118 
  61   1.0000      -0.406858       -11.0712 
  62   1.0000      -0.398318       -10.8388 
  63   1.0000      -0.393113       -10.6972 
  64   1.0000      -0.382342       -10.4041 
  65   1.0000      -0.348667        -9.4877 
  66   1.0000      -0.319193        -8.6857 
  67   0.0000       0.008725         0.2374 
  68   0.0000       0.029106         0.7920 
  69   0.0000       0.031344         0.8529 
  70   0.0000       0.036502         0.9933 
  71   0.0000       0.049378         1.3437 
  72   0.0000       0.054190         1.4746 
  73   0.0000       0.058842         1.6012 
  74   0.0000       0.060697         1.6516 
  75   0.0000       0.065159         1.7731 
  76   0.0000       0.067629         1.8403 
  77   0.0000       0.070278         1.9124 

                 SPIN DOWN ORBITALS
  NO   OCC          E(Eh)            E(eV) 
   0   1.0000     -19.333153      -526.0819 
   1   1.0000     -19.332985      -526.0773 
   2   1.0000     -19.329863      -525.9923 
   3   1.0000     -19.323082      -525.8078 
   4   1.0000     -14.570718      -396.4894 
   5   1.0000     -14.570490      -396.4832 
   6   1.0000     -14.569965      -396.4689 
   7   1.0000     -14.558697      -396.1623 
   8   1.0000     -10.517397      -286.1929 
   9   1.0000     -10.504719      -285.8479 
  10   1.0000     -10.486270      -285.3459 
  11   1.0000     -10.484725      -285.3039 
  12   1.0000     -10.453281      -284.4482 
  13   1.0000     -10.452088      -284.4158 
  14   1.0000     -10.413802      -283.3740 
  15   1.0000     -10.406120      -283.1649 
  16   1.0000     -10.388348      -282.6813 
  17   1.0000     -10.363917      -282.0165 
  18   1.0000      -1.231022       -33.4978 
  19   1.0000      -1.225727       -33.3537 
  20   1.0000      -1.191434       -32.4206 
  21   1.0000      -1.171568       -31.8800 
  22   1.0000      -1.125684       -30.6314 
  23   1.0000      -1.105819       -30.0909 
  24   1.0000      -1.073625       -29.2148 
  25   1.0000      -1.068188       -29.0669 
  26   1.0000      -0.972167       -26.4540 
  27   1.0000      -0.942988       -25.6600 
  28   1.0000      -0.876107       -23.8401 
  29   1.0000      -0.846076       -23.0229 
  30   1.0000      -0.825321       -22.4581 
  31   1.0000      -0.798945       -21.7404 
  32   1.0000      -0.791701       -21.5433 
  33   1.0000      -0.790846       -21.5200 
  34   1.0000      -0.702078       -19.1045 
  35   1.0000      -0.691872       -18.8268 
  36   1.0000      -0.683865       -18.6089 
  37   1.0000      -0.676533       -18.4094 
  38   1.0000      -0.657558       -17.8931 
  39   1.0000      -0.625350       -17.0166 
  40   1.0000      -0.618127       -16.8201 
  41   1.0000      -0.603084       -16.4108 
  42   1.0000      -0.594202       -16.1691 
  43   1.0000      -0.584927       -15.9167 
  44   1.0000      -0.570450       -15.5227 
  45   1.0000      -0.564664       -15.3653 
  46   1.0000      -0.562691       -15.3116 
  47   1.0000      -0.557897       -15.1811 
  48   1.0000      -0.552440       -15.0327 
  49   1.0000      -0.545675       -14.8486 
  50   1.0000      -0.541216       -14.7272 
  51   1.0000      -0.530552       -14.4371 
  52   1.0000      -0.524136       -14.2625 
  53   1.0000      -0.520205       -14.1555 
  54   1.0000      -0.503707       -13.7066 
  55   1.0000      -0.487938       -13.2775 
  56   1.0000      -0.483869       -13.1667 
  57   1.0000      -0.432330       -11.7643 
  58   1.0000      -0.418186       -11.3794 
  59   1.0000      -0.414548       -11.2804 
  60   1.0000      -0.400919       -10.9096 
  61   1.0000      -0.393573       -10.7097 
  62   1.0000      -0.389009       -10.5855 
  63   1.0000      -0.386432       -10.5154 
  64   1.0000      -0.367932       -10.0119 
  65   0.0000      -0.070674        -1.9231 
  66   0.0000      -0.054661        -1.4874 
  67   0.0000       0.008366         0.2276 
  68   0.0000       0.029226         0.7953 
  69   0.0000       0.031986         0.8704 
  70   0.0000       0.036213         0.9854 
  71   0.0000       0.053732         1.4621 
  72   0.0000       0.055795         1.5183 
  73   0.0000       0.060198         1.6381 
  74   0.0000       0.065556         1.7839 
  75   0.0000       0.065820         1.7911 
*Only the first 10 virtual orbitals were printed.

                    ********************************
                    * MULLIKEN POPULATION ANALYSIS *
                    ********************************

--------------------------------------------
MULLIKEN ATOMIC CHARGES AND SPIN POPULATIONS
--------------------------------------------
   0 O :   -0.680844    0.200700
   1 O :   -0.687338    0.176515
   2 O :   -0.681555    0.003705
   3 O :   -0.611562    0.003320
   4 N :   -0.184447    0.018985
   5 N :   -0.302445    0.037598
   6 N :    0.004066    0.029527
   7 N :    0.135594    0.027219
   8 C :    0.053786    0.415440
   9 C :    0.143261    0.454335
  10 C :    0.383671    0.132592
  11 C :    0.672586    0.101058
  12 C :   -1.352570    0.042540
  13 C :   -1.566825    0.037278
  14 C :    0.413699    0.119739
  15 C :    0.395672    0.093184
  16 C :    0.373636   -0.007441
  17 C :    0.299051   -0.002952
  18 H :    0.512146   -0.003584
  19 H :    0.459588    0.020714
  20 H :    0.318718    0.010599
  21 H :    0.343237    0.031004
  22 H :    0.275939    0.008834
  23 H :    0.406916    0.026370
  24 H :    0.340299    0.004605
  25 H :    0.175475    0.023133
  26 H :    0.052237   -0.001006
  27 H :    0.133682   -0.003202
  28 H :    0.195749    0.000751
  29 H :   -0.021420   -0.001562
Sum of atomic charges         :   -0.0000000
Sum of atomic spin populations:    2.0000000

-----------------------------------------------------
MULLIKEN REDUCED ORBITAL CHARGES AND SPIN POPULATIONS
-----------------------------------------------------
CHARGE
  0 O s       :     4.105896  s :     4.105896
      pz      :     1.724565  p :     4.547575
      px      :     1.330042
      py      :     1.492968
      dz2     :     0.002759  d :     0.025519
      dxz     :     0.002685
      dyz     :     0.003428
      dx2y2   :     0.010102
      dxy     :     0.006545
      f0      :     0.000194  f :     0.001854
      f+1     :     0.000268
      f-1     :     0.000133
      f+2     :     0.000147
      f-2     :     0.000318
      f+3     :     0.000449
      f-3     :     0.000345

[...]
[1741257059.320057] [ohm:394625:0]        ib_iface.c:1059 UCX  ERROR ibv_create_cq(cqe=256) failed: Connection timed out
[1741257059.320350] [ohm:394557:0]        ib_iface.c:1059 UCX  ERROR ibv_create_cq(cqe=256) failed: Connection timed out
[1741257059.321223] [ohm:394677:0]        ib_iface.c:1059 UCX  ERROR ibv_create_cq(cqe=256) failed: Connection timed out
[1741257059.324049] [ohm:394569:0]        ib_iface.c:1059 UCX  ERROR ibv_create_cq(cqe=256) failed: Connection timed out
[1741257059.325040] [ohm:394582:0]        ib_iface.c:1059 UCX  ERROR ibv_create_cq(cqe=256) failed: Connection timed out
[1741257059.325736] [ohm:394647:0]        ib_iface.c:1059 UCX  ERROR ibv_create_cq(cqe=256) failed: Connection timed out
[1741257059.326198] [ohm:394579:0]        ib_iface.c:1059 UCX  ERROR ibv_create_cq(cqe=256) failed: Connection timed out
[1741257059.326991] [ohm:394564:0]        ib_iface.c:1059 UCX  ERROR ibv_create_cq(cqe=256) failed: Connection timed out
[1741257059.329173] [ohm:394558:0]        ib_iface.c:1059 UCX  ERROR ibv_create_cq(cqe=256) failed: Connection timed out
[1741257059.332326] [ohm:394559:0]        ib_iface.c:1059 UCX  ERROR ibv_create_cq(cqe=256) failed: Connection timed out
[1741257059.333336] [ohm:394660:0]        ib_iface.c:1059 UCX  ERROR ibv_create_cq(cqe=256) failed: Connection timed out


           ************************************************************
           *        Program running with 64 parallel MPI-processes    *
           *              working on a common directory               *
           ************************************************************

------------------------------------------------------------------------------
                              ORCA PROPERTY CALCULATIONS
------------------------------------------------------------------------------

GBWName                                 ... orca.gbw
Number of atoms                         ...     30
Number of basis functions               ...    882
Max core memory                         ...   1024 MB

Electric properties:
Dipole moment                           ... YES
Quadrupole moment                       ...  NO
Static polarizability (Dipole/Dipole)   ...  NO
Static polarizability (Dipole/Quad.)    ...  NO
Static polarizability (Quad./Quad.)     ...  NO
Static polarizability (Velocity)        ...  NO

Atomic electric properties:
Dipole moment                           ...  NO
Quadrupole moment                       ...  NO
Static polarizability                   ...  NO

Choice of electric origin               ... Center of mass
Position of electric origin             ...    -0.016188    -0.081242    -0.039778

General magnetic properties:
Magnetizability                         ...  NO

EPR properties:
g-Tensor (aka g-matrix)                 ...  NO
Zero-Field splitting spin-orbit         ...  NO
Zero-field splitting spin-spin          ...  NO
Hyperfine couplings                     ...  NO (   0 nuclei)
Quadrupole couplings                    ...  NO (   0 nuclei)
Contact density                         ...  NO (   0 nuclei)

NMR properties:
Chemical shifts                         ...  NO (   0 nuclei)
Spin-rotation constants                 ...  NO (   0 nuclei)
Spin-spin couplings                     ...  NO (   0 nuclei,    0 pairs)

Choice of magnetic origin               ... GIAO
Position of magnetic origin             ...     0.000000     0.000000     0.000000

Properties with geometric perturbations:
SCF Hessian                             ...  NO
IR spectrum                             ...  NO
VCD spectrum                            ...  NO
X-ray spectroscopy properties:
SCF XES/XAS/RIXS spectra                ...  NO


-------------
DIPOLE MOMENT
-------------

Method             : SCF
Type of density    : Electron Density
Multiplicity       :   3
Irrep              :   0
Energy             :  -908.7211596275450347 Eh
Relativity type    : 
Basis              : AO
                                X                 Y                 Z
Electronic contribution:     -3.967405389      -9.014168911      -6.810306728
Nuclear contribution   :      4.215902385      10.177451880       9.260595685
                        -----------------------------------------
Total Dipole Moment    :      0.248496996       1.163282969       2.450288958
                        -----------------------------------------
Magnitude (a.u.)       :      2.723764674
Magnitude (Debye)      :      6.923259600



--------------------
Rotational spectrum 
--------------------
 
Rotational constants in cm-1:             0.022040             0.013376             0.012753 
Rotational constants in MHz :           660.730362           401.014293           382.319022 

Dipole components along the rotational axes: 
x,y,z [a.u.] :    -0.905055    -2.493327     0.618944 
x,y,z [Debye]:    -2.300467    -6.337533     1.573230 

 

-------------
DIPOLE MOMENT
-------------

Method             : TDA/CIS
Type of density    : Electron Density
Level              : Relaxed density
State              :   2
Multiplicity       :   3
Irrep              :   0
Energy             :     0.0000000000000000 Eh
Relativity type    : 
Basis              : AO
                                X                 Y                 Z
Electronic contribution:     -4.081773808      -8.991981703      -6.698337354
Nuclear contribution   :      4.215902385      10.177451880       9.260595685
                        -----------------------------------------
Total Dipole Moment    :      0.134128578       1.185470177       2.562258331
                        -----------------------------------------
Magnitude (a.u.)       :      2.826393067
Magnitude (Debye)      :      7.184120245



--------------------
Rotational spectrum 
--------------------
 
Rotational constants in cm-1:             0.022040             0.013376             0.012753 
Rotational constants in MHz :           660.730362           401.014293           382.319022 

Dipole components along the rotational axes: 
x,y,z [a.u.] :    -0.818325    -2.625503     0.652361 
x,y,z [Debye]:    -2.080016    -6.673499     1.658170 

 

Dipole moment calculation done in   0.2 sec 

Maximum memory used throughout the entire PROP-calculation: 82.1 MB
[1741257061.709599] [ohm:394886:0]        ib_iface.c:1059 UCX  ERROR ibv_create_cq(cqe=256) failed: Connection timed out
[1741257061.744057] [ohm:394884:0]        ib_iface.c:1059 UCX  ERROR ibv_create_cq(cqe=256) failed: Connection timed out
[1741257061.770090] [ohm:394888:0]        ib_iface.c:1059 UCX  ERROR ibv_create_cq(cqe=256) failed: Connection timed out
[1741257061.778783] [ohm:394885:0]        ib_iface.c:1059 UCX  ERROR ibv_create_cq(cqe=256) failed: Connection timed out
[1741257061.778780] [ohm:394890:0]        ib_iface.c:1059 UCX  ERROR ibv_create_cq(cqe=256) failed: Connection timed out
[1741257061.780028] [ohm:394895:0]        ib_iface.c:1059 UCX  ERROR ibv_create_cq(cqe=256) failed: Connection timed out
[1741257061.784474] [ohm:394887:0]        ib_iface.c:1059 UCX  ERROR ibv_create_cq(cqe=256) failed: Connection timed out
[1741257061.793157] [ohm:394906:0]        ib_iface.c:1059 UCX  ERROR ibv_create_cq(cqe=256) failed: Connection timed out
[1741257061.804777] [ohm:394893:0]        ib_iface.c:1059 UCX  ERROR ibv_create_cq(cqe=256) failed: Connection timed out
[1741257061.852943] [ohm:394896:0]        ib_iface.c:1059 UCX  ERROR ibv_create_cq(cqe=256) failed: Connection timed out
[1741257061.863612] [ohm:394889:0]        ib_iface.c:1059 UCX  ERROR ibv_create_cq(cqe=256) failed: Connection timed out
[1741257061.878469] [ohm:394900:0]        ib_iface.c:1059 UCX  ERROR ibv_create_cq(cqe=256) failed: Connection timed out
[1741257061.887614] [ohm:394891:0]        ib_iface.c:1059 UCX  ERROR ibv_create_cq(cqe=256) failed: Connection timed out
[1741257061.893324] [ohm:394942:0]        ib_iface.c:1059 UCX  ERROR ibv_create_cq(cqe=256) failed: Connection timed out
[1741257061.893926] [ohm:394926:0]        ib_iface.c:1059 UCX  ERROR ibv_create_cq(cqe=256) failed: Connection timed out
[1741257061.909024] [ohm:394910:0]        ib_iface.c:1059 UCX  ERROR ibv_create_cq(cqe=256) failed: Connection timed out
[1741257061.909844] [ohm:394932:0]        ib_iface.c:1059 UCX  ERROR ibv_create_cq(cqe=256) failed: Connection timed out
[1741257061.913794] [ohm:394979:0]        ib_iface.c:1059 UCX  ERROR ibv_create_cq(cqe=256) failed: Connection timed out
[1741257061.916702] [ohm:394899:0]        ib_iface.c:1059 UCX  ERROR ibv_create_cq(cqe=256) failed: Connection timed out
[1741257061.922253] [ohm:394954:0]        ib_iface.c:1059 UCX  ERROR ibv_create_cq(cqe=256) failed: Connection timed out
[1741257061.922618] [ohm:395011:0]        ib_iface.c:1059 UCX  ERROR ibv_create_cq(cqe=256) failed: Connection timed out
[1741257061.923492] [ohm:394898:0]        ib_iface.c:1059 UCX  ERROR ibv_create_cq(cqe=256) failed: Connection timed out
[1741257061.923814] [ohm:394902:0]        ib_iface.c:1059 UCX  ERROR ibv_create_cq(cqe=256) failed: Connection timed out
[1741257061.926635] [ohm:394911:0]        ib_iface.c:1059 UCX  ERROR ibv_create_cq(cqe=256) failed: Connection timed out
[1741257061.929775] [ohm:394935:0]        ib_iface.c:1059 UCX  ERROR ibv_create_cq(cqe=256) failed: Connection timed out
[1741257061.936794] [ohm:395018:0]        ib_iface.c:1059 UCX  ERROR ibv_create_cq(cqe=256) failed: Connection timed out
[1741257061.939655] [ohm:395000:0]        ib_iface.c:1059 UCX  ERROR ibv_create_cq(cqe=256) failed: Connection timed out
[1741257061.940630] [ohm:395013:0]        ib_iface.c:1059 UCX  ERROR ibv_create_cq(cqe=256) failed: Connection timed out
[1741257061.942145] [ohm:395021:0]        ib_iface.c:1059 UCX  ERROR ibv_create_cq(cqe=256) failed: Connection timed out
[1741257061.950134] [ohm:395004:0]        ib_iface.c:1059 UCX  ERROR ibv_create_cq(cqe=256) failed: Connection timed out
[1741257061.952652] [ohm:394998:0]        ib_iface.c:1059 UCX  ERROR ibv_create_cq(cqe=256) failed: Connection timed out
[1741257061.955097] [ohm:394984:0]        ib_iface.c:1059 UCX  ERROR ibv_create_cq(cqe=256) failed: Connection timed out
[1741257061.957189] [ohm:394992:0]        ib_iface.c:1059 UCX  ERROR ibv_create_cq(cqe=256) failed: Connection timed out
[1741257061.979441] [ohm:394967:0]        ib_iface.c:1059 UCX  ERROR ibv_create_cq(cqe=256) failed: Connection timed out
[1741257061.979757] [ohm:394894:0]        ib_iface.c:1059 UCX  ERROR ibv_create_cq(cqe=256) failed: Connection timed out
[1741257061.986577] [ohm:395026:0]        ib_iface.c:1059 UCX  ERROR ibv_create_cq(cqe=256) failed: Connection timed out
[1741257061.987355] [ohm:394989:0]        ib_iface.c:1059 UCX  ERROR ibv_create_cq(cqe=256) failed: Connection timed out
[1741257061.994163] [ohm:394883:0]        ib_iface.c:1059 UCX  ERROR ibv_create_cq(cqe=256) failed: Connection timed out
[1741257062.008047] [ohm:394908:0]        ib_iface.c:1059 UCX  ERROR ibv_create_cq(cqe=256) failed: Connection timed out
[1741257062.012375] [ohm:394907:0]        ib_iface.c:1059 UCX  ERROR ibv_create_cq(cqe=256) failed: Connection timed out
[1741257062.016027] [ohm:394909:0]        ib_iface.c:1059 UCX  ERROR ibv_create_cq(cqe=256) failed: Connection timed out
[1741257062.017218] [ohm:394934:0]        ib_iface.c:1059 UCX  ERROR ibv_create_cq(cqe=256) failed: Connection timed out
[1741257062.017291] [ohm:394939:0]        ib_iface.c:1059 UCX  ERROR ibv_create_cq(cqe=256) failed: Connection timed out
[1741257062.021659] [ohm:394903:0]        ib_iface.c:1059 UCX  ERROR ibv_create_cq(cqe=256) failed: Connection timed out
[1741257062.025322] [ohm:394928:0]        ib_iface.c:1059 UCX  ERROR ibv_create_cq(cqe=256) failed: Connection timed out
[1741257062.032333] [ohm:394913:0]        ib_iface.c:1059 UCX  ERROR ibv_create_cq(cqe=256) failed: Connection timed out
[1741257062.036056] [ohm:395007:0]        ib_iface.c:1059 UCX  ERROR ibv_create_cq(cqe=256) failed: Connection timed out
[1741257062.040125] [ohm:394892:0]        ib_iface.c:1059 UCX  ERROR ibv_create_cq(cqe=256) failed: Connection timed out
[1741257062.045129] [ohm:394960:0]        ib_iface.c:1059 UCX  ERROR ibv_create_cq(cqe=256) failed: Connection timed out
[1741257062.045089] [ohm:394901:0]        ib_iface.c:1059 UCX  ERROR ibv_create_cq(cqe=256) failed: Connection timed out
[1741257062.049259] [ohm:394972:0]        ib_iface.c:1059 UCX  ERROR ibv_create_cq(cqe=256) failed: Connection timed out
[1741257062.050344] [ohm:394977:0]        ib_iface.c:1059 UCX  ERROR ibv_create_cq(cqe=256) failed: Connection timed out
[1741257062.055800] [ohm:394986:0]        ib_iface.c:1059 UCX  ERROR ibv_create_cq(cqe=256) failed: Connection timed out
[1741257062.056621] [ohm:394974:0]        ib_iface.c:1059 UCX  ERROR ibv_create_cq(cqe=256) failed: Connection timed out
[1741257062.057093] [ohm:395008:0]        ib_iface.c:1059 UCX  ERROR ibv_create_cq(cqe=256) failed: Connection timed out
[1741257062.057411] [ohm:394980:0]        ib_iface.c:1059 UCX  ERROR ibv_create_cq(cqe=256) failed: Connection timed out
[1741257062.060738] [ohm:394918:0]        ib_iface.c:1059 UCX  ERROR ibv_create_cq(cqe=256) failed: Connection timed out
[1741257062.060986] [ohm:394905:0]        ib_iface.c:1059 UCX  ERROR ibv_create_cq(cqe=256) failed: Connection timed out
[1741257062.061863] [ohm:394916:0]        ib_iface.c:1059 UCX  ERROR ibv_create_cq(cqe=256) failed: Connection timed out
[1741257062.062419] [ohm:394897:0]        ib_iface.c:1059 UCX  ERROR ibv_create_cq(cqe=256) failed: Connection timed out
[1741257062.062477] [ohm:394952:0]        ib_iface.c:1059 UCX  ERROR ibv_create_cq(cqe=256) failed: Connection timed out
[1741257062.062481] [ohm:394964:0]        ib_iface.c:1059 UCX  ERROR ibv_create_cq(cqe=256) failed: Connection timed out
[1741257062.063427] [ohm:394947:0]        ib_iface.c:1059 UCX  ERROR ibv_create_cq(cqe=256) failed: Connection timed out
[1741257062.069275] [ohm:394904:0]        ib_iface.c:1059 UCX  ERROR ibv_create_cq(cqe=256) failed: Connection timed out

--------------------------------
SUGGESTED CITATIONS FOR THIS RUN
--------------------------------

Below you find a list of papers that are relevant to this ORCA run
We neither can nor want to force you to cite these papers, but we appreciate if you do
You receive ORCA, which is the product of decades of hard work by many enthusiastic individuals, for free
The only thing we kindly ask in return is that you cite our papers,
We deeply appreciate it, if you show your appreciation for ORCA by not just citing the generic ORCA reference.

Please note that relegating all ORCA citations to the supporting information does *not* help us.
SI sections are not indexed - citations you put there will not count into any citation statistics
But we need these citations in order to attract the funding resources that allow us to do what we are doing

Therefore, if you are a happy ORCA user, please consider citing a few of the papers listed below in the main body of your paper

In addition to the list printed below, the program has created the file orca.bibtex that contains the list in bibtex format
You can import this file easily into all common literature databanks and citation aid programs


List of essential papers. We consider these as the minimum necessary citations

  1. Neese,F.
     Software update: the ORCA program system, version 5.0
     WIRES Comput. Molec. Sci., 2022 12(1)e1606
     doi.org/10.1002/wcms.1606

List of papers to cite with high priority. The work reported in these papers was absolutely
necessary for this run to complete.
Our perspective: the developers of density functionals and basis sets usually get cited in chemistry papers
Good! But without the algorithms to do something with them, the functionals or basis sets would not do anything.
Hence, in our opinion, the algorithm design and method developments papers are equally worthy of getting cited

  1. Neese,F.; Olbrich,G.
     Efficient use of the resolution of the identity approximation in time-dependent density functional calculations with hybrid density functionals
     Chem. Phys. Lett., 2002 362 170-178
     doi.org/10.1016/s0009-2614(02)01053-9
  2. Neese,F.
     An improvement of the resolution of the identity approximation for the formation of the Coulomb matrix
     J. Comp. Chem., 2003 24(14)1740-1747
     doi.org/10.1002/jcc.10318
  3. Neese,F.; Wennmohs,F.; Hansen,A.; Becker,U.
     Efficient, approximate and parallel Hartree-Fock and hybrid DFT calculations. A 'chain-of-spheres' algorithm for the Hartree-Fock exchange
     Chem. Phys., 2009 356(1-3)98-109
     doi.org/10.1016/j.chemphys.2008.10.036
  4. Petrenko,T.; Kossmann,S.; Neese,F.
     Efficient time-dependent density functional theory approximations for hybrid density functionals: Analytical gradients and parallelization
     J. Chem. Phys., 2011 134 054116
     doi.org/10.1063/1.3533441
  5. Helmich-Paris,B.; de Souza,B.; Neese,F.; Izsák,R.
     An improved chain of spheres for exchange algorithm
     J. Chem. Phys., 2021 155 104109
     doi.org/doi: 10.1063/5.0058766.
  6. Neese,F.
     The SHARK Integral Generation and Digestion System
     J. Comp. Chem., 2022  1-16
     doi.org/10.1002/jcc.26942
  7. Lehtola,S.; Steigemann,C.; Oliveira,M.; Marques,M.
     Recent developments in Libxc - A comprehensive library of functionals for density functional theory
     Software X, 2018 7 
     doi.org/10.1016/j.softx.2017.11.002
  8. Grimme,S.; Antony,J.; Ehrlich,S.; Krieg,H.
     A consistent and accurate ab initio parametrization of density functional dispersion correction (DFT-D) for the 94 elements H-Pu
     J. Chem. Phys., 2010 132 154104-XXXX
     doi.org/10.1063/1.3382344
  9. Grimme,S.; Ehrlich,S.; Goerigk,L.
     Effect of the damping function in dispersion corrected density functional theory
     J. Comput. Chem., 2011 32(7)1456-1465
     doi.org/10.1002/jcc.21759

List of suggested additional citations. These are papers that are important in the 'surrounding' of 
of this run, or papers that preceded the highly important papers. If you like your results we are grateful for a citation.

  1. Izsak,R.; Neese,F.
     An overlap fitted chain of spheres exchange method
     J. Chem. Phys., 2011 135 144105
     doi.org/10.1063/1.3646921
  2. Izsak,R.; Hansen,A.; Neese,F.
     The resolution of identity and chain of spheres approximations for the LPNO-CCSD singles Fock term
     Molec. Phys., 2012 110 2413-2417
     doi.org/10.1080/00268976.2012.687466
  3. Neese,F.
     The ORCA program system
     WIRES Comput. Molec. Sci., 2012 2(1)73-78
     doi.org/10.1002/wcms.81
  4. Izsak,R.; Neese,F.; Klopper,W.
     Robust fitting techniques in the chain of spheres approximation to the Fock exchange: The role of the complementary space
     J. Chem. Phys., 2013 139 
     doi.org/10.1063/1.4819264
  5. Neese,F.
     Software update: the ORCA program system, version 4.0
     WIRES Comput. Molec. Sci., 2018 8(1)1-6
     doi.org/10.1002/wcms.1327
  6. Neese,F.; Wennmohs,F.; Becker,U.; Riplinger,C.
     The ORCA quantum chemistry program package
     J. Chem. Phys., 2020 152 Art. No. L224108
     doi.org/10.1063/5.0004608

List of optional additional citations

  1. Neese,F.
     Approximate second-order SCF convergence for spin unrestricted wavefunctions
     Chem. Phys. Lett., 2000 325(1-3)93-98
     doi.org/10.1016/s0009-2614(00)00662-x

Timings for individual modules:

Sum of individual times          ...      301.922 sec (=   5.032 min)
Startup calculation              ...        6.314 sec (=   0.105 min)   2.1 %
SCF iterations                   ...      131.630 sec (=   2.194 min)  43.6 %
Property integrals               ...        4.154 sec (=   0.069 min)   1.4 %
Property calculations            ...        2.854 sec (=   0.048 min)   0.9 %
CIS module                       ...      156.971 sec (=   2.616 min)  52.0 %
                             ****ORCA TERMINATED NORMALLY****
TOTAL RUN TIME: 0 days 0 hours 5 minutes 3 seconds 989 msec
