30
Properties=species:S:1:pos:R:3:momenta:R:3:forces:R:3 Coordinates=T from=T ORCA-job=T orca=T E=T -908.929076301761=T energy=-24729.08368307222 free_energy=-24729.08368307222 stress="1.0183704517520049e-06 6.64315484754447e-07 -9.924215160275063e-07 6.64315484754447e-07 1.0270241145754078e-06 -9.2815511354575e-07 -9.924215160275063e-07 -9.2815511354575e-07 8.786358822586536e-07" pbc="F F F"
O        2.96709334       1.25471353      -0.44316069      -0.00915956      -0.62598123       0.62330083       0.16889904       0.27121564       0.11406014
O       -0.55425814       0.44387254      -1.89845957      -0.33039641       0.34290214      -0.14800927       0.13091355       0.07987638       0.21669219
O        1.41999079      -2.83520627      -1.75527041       0.25566072      -0.35497674      -0.16773376       0.15433334      -0.37879841      -0.88141768
O       -3.11744324      -1.38602664       1.39265109       0.34939233       0.19065176       0.21846286       0.21272931      -0.08030659      -0.22643122
N        0.66245597      -2.03443325       0.22225994      -0.57669446      -0.07578246      -0.23769436       0.69559907       1.11604509      -0.10509542
N       -2.30918321       0.72295881       1.64135969       0.05393652       0.00534200      -0.08719933      -0.29165050       0.12921630       0.57541411
N        2.22112171      -0.79312705      -1.08093701       0.24662275      -0.21712011      -0.11091437      -0.54243042      -0.60374565       0.29602844
N       -1.94977166      -0.35959896      -0.32048239      -0.03130039       0.09188038       0.20962182       0.11440987      -0.42235077       0.12166762
C        1.46777772       0.14135551       1.00157736      -0.55466250      -0.60931050       0.65838415      -0.66060877      -1.41503619      -0.08213808
C       -0.92525762       1.81704748       0.04573882       0.10499576       0.65247479      -0.01408366      -0.09182741      -0.82139905      -0.71953065
C        0.68218103      -1.03695794       1.18788291       0.19823436       0.58199483       0.29737029       0.76875654       0.54419437       0.11924107
C       -1.60108286       1.81318795       1.19392584      -0.18135153       0.11718072      -0.70019556      -0.16437344       0.07075913      -0.27939277
C        1.60773657       1.21260335       2.00098897       0.44021024      -0.32369511      -0.08280767      -0.38730441      -0.07011760      -0.25471863
C       -0.10573459       2.91600340      -0.51605686      -0.12048265       0.12901217       0.05720036       0.65672932       0.12408982      -0.34890523
C        2.26647030       0.28600570      -0.18259641       0.32136134      -0.22006150      -0.22752269      -0.13991465      -0.34512771      -0.76548562
C       -1.04741298       0.60651517      -0.80216045      -0.11844986       0.56875306       0.13858835      -0.57796597       0.11651781      -0.02470465
C        1.43896546      -1.94270045      -0.96719520       0.30711242       0.49047182       0.20460864      -0.69469858       0.18600903       1.65514195
C       -2.49788901      -0.45107090       0.93914932      -0.09536936      -0.38020560       0.30912103       0.07677439       0.65558500       0.16166546
H        0.37909534      -1.29327561       2.21867983       0.09690248       0.11851058      -0.40515744      -0.05524260       0.03332149      -0.60847875
H       -1.74570851       2.70720971       1.77696531      -0.05134243      -0.01624193      -0.15674765       0.19245734       0.04012891       0.19673033
H        1.47336014       2.15861709       1.45997985       0.07057552      -0.04448800      -0.15185085       0.11320800      -0.10935657       0.58023031
H        0.88292175       1.06907431       2.79916702      -0.00994671       0.06228015      -0.07071870       0.06737085       0.27553874       0.03678812
H        2.61243188       1.18260936       2.38946242      -0.08189635      -0.09580909      -0.04681441       0.28709178       0.22779553       0.24986829
H       -0.40468176       3.20735313      -1.53983099       0.03772816      -0.19355601      -0.17317800       0.01842499      -0.25012548       0.46464371
H       -0.14437521       3.78800581       0.12123422      -0.01174939      -0.04314387      -0.03372028       0.00469716       0.19997155       0.10714779
H        0.95186010       2.58077985      -0.58291040       0.07417514       0.01909845      -0.02716646      -0.48986600       0.31417017      -0.07470937
H        0.03461824      -2.81799529       0.31105561      -0.19008841      -0.01744955      -0.02272822       0.19054814       0.00596128      -0.16156529
H       -2.79344696       0.79581840       2.52779166      -0.08393628      -0.08524683       0.07253462       0.11966834      -0.18021155      -0.28236019
H        2.63260549      -0.70302850      -1.99484047      -0.02799577      -0.11944305      -0.00761305       0.14784680       0.21552328       0.08804905
H       -1.96594663      -1.23145863      -0.82597542      -0.08208568       0.05195875       0.08266277      -0.02457509       0.07065605      -0.16843502
