7
Properties=species:S:1:pos:R:3:forces:R:3 energy=-4183.536548229095 free_energy=-4183.536548229095 dipole="-0.027867441890118836 -0.47247071509083144 -1.8204225220606698e-05" pbc="F F F"
O        0.78313930       1.00838831      -0.00002023       1.21871214       0.54219210      -0.00020276
C        0.77207897      -0.33037504      -0.00007832      -1.36385823       0.01485446      -0.00273825
C       -0.64287093      -0.59806762       0.00002149      -1.30762475      -0.54047505       0.00293653
H        1.26309306      -0.77159934       0.88096863       0.65473585       0.13790620       0.07020101
H        1.26293324      -0.77153213      -0.88129176       0.65451729       0.13831455      -0.06913739
H       -1.20409560      -0.53525869      -0.92299413       0.07149607      -0.14561042       0.08678208
H       -1.20341693      -0.53414018       0.92339432       0.06965041      -0.14658255      -0.08783136
7
Properties=species:S:1:pos:R:3:forces:R:3 energy=-4183.57007415363 free_energy=-4183.57007415363 dipole="-0.05390725703963239 -0.48867784562750416 -8.376346066015042e-05" pbc="F F F"
O        0.81900173       1.01052482       0.00022626       1.04869658       0.34204358       0.00007125
C        0.77535164      -0.32785209      -0.00001717      -1.32833696       0.05658416      -0.00474759
C       -0.64132356      -0.59922173      -0.00005265      -1.19737331      -0.32254155       0.00496031
H        1.26129255      -0.77768545       0.88009377       0.66381487       0.11842867       0.07088596
H        1.26105526      -0.77715245      -0.88057534       0.66390946       0.11808612      -0.06948720
H       -1.20402576      -0.53555146      -0.92258619       0.07541968      -0.15500157       0.08489004
H       -1.20314944      -0.53352025       0.92291132       0.07227904      -0.15710284      -0.08662994
7
Properties=species:S:1:pos:R:3:forces:R:3 energy=-4183.596992777033 free_energy=-4183.596992777033 dipole="-0.0809100223093355 -0.5045149320660194 -2.9697425056842765e-05" pbc="F F F"
O        0.85520434       1.01197196       0.00013675       0.87953499       0.15061733       0.00009281
C        0.77862477      -0.32551116      -0.00012302      -1.28034230       0.10274690      -0.00359659
C       -0.63965445      -0.60017735      -0.00002466      -1.10159300      -0.11466406       0.00362000
H        1.25903540      -0.78348979       0.87939711       0.67296039       0.09773412       0.07158273
H        1.25908001      -0.78307701      -0.87982576       0.67236798       0.09700666      -0.07041771
H       -1.20396523      -0.53538638      -0.92196088       0.07947988      -0.16557361       0.08208667
H       -1.20300393      -0.53365407       0.92240046       0.07660180      -0.16754223      -0.08338941
7
Properties=species:S:1:pos:R:3:forces:R:3 energy=-4183.617823741863 free_energy=-4183.617823741863 dipole="-0.10877038063331372 -0.5199971226332067 4.9197605266120305e-06" pbc="F F F"
O        0.89168756       1.01262792       0.00011968       0.71203294      -0.02565703       0.00026282
C        0.78191453      -0.32321474      -0.00013152      -1.22956569       0.14551674      -0.00284691
C       -0.63811012      -0.60091122       0.00003315      -1.00768287       0.08428853       0.00261532
H        1.25667012      -0.78944147       0.87867961       0.68102015       0.07643049       0.07253416
H        1.25667773      -0.78892348      -0.87916508       0.68036838       0.07473039      -0.07178171
H       -1.20374566      -0.53556540      -0.92153506       0.08271689      -0.17618117       0.08097031
H       -1.20290393      -0.53374555       0.92199922       0.08020044      -0.17848145      -0.08175748
7
Properties=species:S:1:pos:R:3:forces:R:3 energy=-4183.632428272364 free_energy=-4183.632428272364 dipole="-0.13854047971319206 -0.535270045839059 -0.0018129838780117742" pbc="F F F"
O        0.92873379       1.01247996       0.01318576       0.54114309      -0.17555610      -0.00498579
C        0.78511620      -0.32065191       0.00070195      -1.15880539       0.16236498      -0.04107712
C       -0.63696583      -0.60068718       0.00050488      -0.91031077       0.27498688       0.00426956
H        1.25614862      -0.80574375       0.87225921       0.69004619       0.08106142       0.08767541
H        1.25176294      -0.78471728      -0.88389544       0.67571682       0.03108235      -0.05599273
H       -1.20267786      -0.55866431      -0.92279530       0.09368726      -0.14609060       0.08540675
H       -1.20333358      -0.51201761       0.92003894       0.06725225      -0.22659913      -0.07500210
7
Properties=species:S:1:pos:R:3:forces:R:3 energy=-4183.432203247589 free_energy=-4183.432203247589 dipole="-0.24100988115317082 -0.5169127471142841 -0.04555284748570406" pbc="F F F"
O        0.96210627       1.00112642       0.19300622      -0.02088938       0.80207695       0.40610100
C        0.78320076      -0.30464029       0.01305738       0.94100300      -1.89908758      -1.08337385
C       -0.63304606      -0.58407970       0.00753684      -1.56081590       0.67400637       0.18536336
H        1.27263918      -0.96328225       0.77020993       0.32755297       0.67037867       0.14680600
H        1.21848750      -0.65167243      -0.94498597       0.24094736       0.02318758       0.24670956
H       -1.18012301      -0.87427542      -0.88219566       0.15059073       0.05811007       0.04460572
H       -1.20818753      -0.20497689       0.84337126      -0.07793857      -0.32779423       0.05227410
7
Properties=species:S:1:pos:R:3:forces:R:3 energy=-4184.40154273504 free_energy=-4184.40154273504 dipole="-0.15254997962857003 -0.3087354119854858 -0.1164122356103699" pbc="F F F"
O        1.20489537       0.79487104       0.67379040       1.71570026       4.95749432       1.21076140
C        0.93562707      -0.36234600       0.44875564      -1.26363792      -5.15187318      -0.80765033
C       -0.37642517      -0.46106285      -0.31751191      -0.07693307      -0.23351875      -0.36922474
H        1.56066145      -1.21710541       0.74138247      -0.23588071       0.27882656      -0.08320754
H       -0.19768592      -0.06533326      -1.31551704      -0.19828805       0.11366039      -0.19324855
H       -0.78414153      -1.46742577      -0.41257312       0.35665400       0.00982481       0.26976423
H       -1.09188828       0.18384129       0.18167356      -0.29596413       0.03797042      -0.02013941
7
Properties=species:S:1:pos:R:3:forces:R:3 energy=-4184.360251960685 free_energy=-4184.360251960685 dipole="-0.11029152222134513 -0.3395581710105289 -0.09978034616867616" pbc="F F F"
O        0.99433311       1.12154756       0.24028484       1.07218129       5.02933401       2.32790532
C        0.88314560       0.05116573      -0.31162431      -0.48145642      -4.55038835      -2.72491588
C       -0.32982422      -0.71542421       0.18131463      -0.05978503      -0.93741384       0.03127509
H       -0.00283402      -1.50865883       0.85687794      -0.10082713       0.08594626       0.21145298
H        1.58638309      -0.33597842      -1.06228703      -0.27159492       0.17212411       0.22024208
H       -0.88362065      -1.20137661      -0.62345121       0.09591856       0.29050877      -0.08747402
H       -0.96092647      -0.01954951       0.71888513      -0.24947614      -0.08092161       0.02587806
7
Properties=species:S:1:pos:R:3:forces:R:3 energy=-4184.3578457574395 free_energy=-4184.3578457574395 dipole="-0.10094119321947749 -0.35411834225640937 -0.06216129226026097" pbc="F F F"
O        0.94073519       1.18463405       0.07246512       0.67887979       5.50547809       1.53441430
C        0.89133206       0.03844573      -0.30728223       0.03717852      -5.07657928      -1.81868478
C       -0.31721953      -0.71371617       0.20775901      -0.26324450      -0.85081508      -0.16010968
H       -0.01733736      -1.59785555       0.77363912       0.02068299       0.15113985       0.15789883
H        1.64347916      -0.42342046      -0.96332994      -0.23084196       0.18557995       0.21280045
H       -0.93400980      -1.07216156      -0.61875706      -0.07137545       0.21136635       0.01036732
H       -0.88508752      -0.03885685       0.83550598      -0.17719453      -0.11665574       0.06765073
7
Properties=species:S:1:pos:R:3:forces:R:3 energy=-4184.364751966667 free_energy=-4184.364751966667 dipole="-0.11465519211364124 -0.35173698712855617 -0.06852113024719533" pbc="F F F"
O        0.99561363       1.17158908       0.09278465       0.88800065       5.49040081       1.71855319
C        0.88721284       0.03957795      -0.31268700      -0.15689318      -5.10060087      -2.03382563
C       -0.31212664      -0.71314042       0.21424687      -0.30179557      -0.79418657      -0.11724094
H       -0.00082019      -1.61485350       0.74494215       0.00229814       0.12813663       0.16434181
H        1.59893175      -0.42391059      -1.01275287      -0.20816597       0.20457625       0.19761164
H       -0.95356492      -1.04268030      -0.60525531      -0.07588695       0.19506587       0.02366940
H       -0.85852113      -0.05510233       0.87872151      -0.15405123      -0.10938141       0.05246495
7
Properties=species:S:1:pos:R:3:forces:R:3 energy=-4184.368820592507 free_energy=-4184.368820592507 dipole="-0.11977206056764408 -0.35444696500841 0.06259983728997154" pbc="F F F"
O        1.01938759       1.17589306      -0.07019460       0.93292252       5.55079981      -1.65314828
C        0.88932630       0.03801817       0.30850201      -0.19979860      -5.19991545       1.99915610
C       -0.30965188      -0.71175632      -0.21663193      -0.32259661      -0.73825511       0.06932740
H        1.59649180      -0.44665548       1.00025459      -0.17645711       0.21675909      -0.18934186
H        0.00386149      -1.60854485      -0.75401704      -0.01746695       0.11420101      -0.16275542
H       -0.86552200      -0.05404969      -0.87432707      -0.12885688      -0.10188746      -0.03972585
H       -0.94276218      -1.04793606       0.60641403      -0.09240724       0.17485371      -0.02915715
7
Properties=species:S:1:pos:R:3:forces:R:3 energy=-4184.3695215644775 free_energy=-4184.3695215644775 dipole="-0.1450927699264187 -0.34683336597768916 -0.07001594209393791" pbc="F F F"
O        1.12393374       1.13064429       0.09719327       1.32174279       5.46322767       1.82003742
C        0.90254996       0.01642031      -0.30555038      -0.56315324      -5.16729329      -2.19657679
C       -0.31679895      -0.69488608       0.21907427      -0.39216674      -0.67851668      -0.04993135
H       -0.03108143      -1.62725419       0.70904980      -0.02119632       0.10006114       0.16385000
H        1.55707680      -0.48814739      -1.03536242      -0.13324636       0.22745629       0.19101538
H       -0.98176071      -0.96523738      -0.60291907      -0.09918389       0.15962349       0.04805994
H       -0.82883423      -0.04399183       0.91851453      -0.10827376      -0.08863482       0.02677739
7
Properties=species:S:1:pos:R:3:forces:R:3 energy=-4184.36814285955 free_energy=-4184.36814285955 dipole="-0.13736447967296625 -0.3557985195882404 0.059310967588153" pbc="F F F"
O        1.09370341       1.16601131      -0.05929421       1.15294264       5.58652333      -1.65488260
C        0.89609788       0.03278340       0.29743536      -0.41240534      -5.30374451       2.05544725
C       -0.30745705      -0.70682732      -0.21894309      -0.37177186      -0.64122936       0.00355792
H        1.57550886      -0.48411569       0.99674409      -0.10854442       0.23290849      -0.17739852
H        0.00376609      -1.61364521      -0.73985064      -0.05048516       0.08309073      -0.16652808
H       -0.86436123      -0.06088013      -0.88869643      -0.08074479      -0.08029418      -0.01450386
H       -0.93869450      -1.02409746       0.61260493      -0.12496932       0.13903310      -0.04761536
7
Properties=species:S:1:pos:R:3:forces:R:3 energy=-4184.364287340442 free_energy=-4184.364287340442 dipole="-0.16552226257731908 -0.3446888012470697 0.07436697523444577" pbc="F F F"
O        1.21275013       1.10382136      -0.12595508       1.55018041       5.41285499      -1.89659156
C        0.92124084       0.00639586       0.27309707      -0.78465831      -5.19448916       2.29176096
C       -0.32279623      -0.68650096      -0.20614487      -0.44789399      -0.57782267       0.01663453
H        1.55645695      -0.52616327       1.00313439      -0.06531196       0.23483913      -0.17971260
H       -0.06260412      -1.63846739      -0.67127938      -0.05476394       0.07258128      -0.16526806
H       -0.84431857      -0.05207235      -0.91484931      -0.06136958      -0.06510319      -0.00177797
H       -0.96918682      -0.91698787       0.64199719      -0.12938611       0.12826542      -0.06447326
7
Properties=species:S:1:pos:R:3:forces:R:3 energy=-4184.35659792521 free_energy=-4184.35659792521 dipole="-0.17636333564071172 -0.34475025935912734 0.06837470320879184" pbc="F F F"
O        1.25384958       1.09380336      -0.09841657       1.69038994       5.40222018      -1.83831769
C        0.92176426       0.00123016       0.27936528      -0.94635841      -5.22450085       2.25950488
C       -0.31919889      -0.68195634      -0.21671483      -0.45565882      -0.53218516      -0.01320279
H        1.53000999      -0.54998293       1.02012721      -0.03088283       0.24004398      -0.17187684
H       -0.05483411      -1.63608646      -0.67476694      -0.07422916       0.05925842      -0.16988400
H       -0.83186893      -0.04986541      -0.93446129      -0.03567126      -0.05149312       0.00691288
H       -0.97572386      -0.90719163       0.62486713      -0.14429734       0.11373287      -0.07236003
7
Properties=species:S:1:pos:R:3:forces:R:3 energy=-4184.346664300522 free_energy=-4184.346664300522 dipole="-0.1883462276007682 -0.34299609194053815 0.06816714667737844" pbc="F F F"
O        1.29947039       1.07735796      -0.09698666       1.83663465       5.34773654      -1.86028315
C        0.92515318      -0.00225371       0.27643177      -1.10551442      -5.21079303       2.27981917
C       -0.31745736      -0.67890319      -0.22089545      -0.46829560      -0.48138948      -0.01927558
H        1.50669228      -0.56244393       1.03335211      -0.00194447       0.24631074      -0.15702721
H       -0.05519202      -1.64373724      -0.65677260      -0.09167066       0.04293821      -0.17564505
H       -0.82162570      -0.05923788      -0.95574605      -0.01057234      -0.03621173       0.01487662
H       -0.98113278      -0.88176277       0.62061688      -0.15997776       0.09801692      -0.08393204
7
Properties=species:S:1:pos:R:3:forces:R:3 energy=-4184.334574038415 free_energy=-4184.334574038415 dipole="-0.19938021644968953 -0.34208425663464853 0.06567889404875082" pbc="F F F"
O        1.34054420       1.06321883      -0.08648489       1.96668223       5.30562975      -1.84641610
C        0.92808822      -0.00585333       0.27497041      -1.25051833      -5.20964153       2.25777572
C       -0.31540488      -0.67604618      -0.22624010      -0.46955353      -0.42460392      -0.02597716
H        1.48524257      -0.57764389       1.04307849       0.02553286       0.25202321      -0.13745820
H       -0.05374470      -1.64774297      -0.64635567      -0.10987380       0.02523624      -0.18178181
H       -0.81305788      -0.06542562      -0.97343682       0.01174019      -0.02209573       0.02277117
H       -0.98441811      -0.86326116       0.61446859      -0.17801657       0.08256041      -0.09424391
7
Properties=species:S:1:pos:R:3:forces:R:3 energy=-4184.319869505553 free_energy=-4184.319869505553 dipole="-0.206901883640328 -0.3434432715547935 0.0619400120470688" pbc="F F F"
O        1.36622190       1.06012830      -0.07110629       2.04621802       5.28990410      -1.81123210
C        0.92747069      -0.00320995       0.27408686      -1.34596676      -5.22550487       2.21314613
C       -0.31069340      -0.67782300      -0.23224804      -0.45877244      -0.38552214      -0.03364516
H        1.46653134      -0.58353476       1.05029573       0.04788055       0.25976143      -0.11291335
H       -0.04013066      -1.65230444      -0.64003915      -0.13124146       0.01317366      -0.18743625
H       -0.80938994      -0.07914776      -0.98871231       0.03523181      -0.00613423       0.02896285
H       -0.98200980      -0.85946288       0.60772320      -0.19669038       0.06630747      -0.10447935
7
Properties=species:S:1:pos:R:3:forces:R:3 energy=-4184.303584228854 free_energy=-4184.303584228854 dipole="-0.2190879187938618 -0.3407841036831663 0.06436896296077178" pbc="F F F"
O        1.41341493       1.03735600      -0.08494232       2.18100772       5.21077295      -1.84550688
C        0.93702648      -0.00929147       0.25966412      -1.48227318      -5.18560164       2.22806088
C       -0.31354732      -0.67334190      -0.22805748      -0.47014149      -0.33698263      -0.03136113
H        1.45915341      -0.59853384       1.04247326       0.07557220       0.26190634      -0.09586589
H       -0.05554388      -1.65850747      -0.61770062      -0.15008752       0.00178959      -0.18905506
H       -0.81366775      -0.08611426      -0.99296091       0.05794417       0.00793108       0.03574294
H       -0.97869758      -0.83033229       0.62152395      -0.21244524       0.05478699      -0.11023009
7
Properties=species:S:1:pos:R:3:forces:R:3 energy=-4184.285201979127 free_energy=-4184.285201979127 dipole="-0.22485710717038995 -0.3441091257136562 0.05696806141806491" pbc="F F F"
O        1.43230255       1.03879524      -0.05707504       2.21937815       5.21599948      -1.73046774
C        0.93827620      -0.00869269       0.25748974      -1.53776904      -5.21819747       2.10424225
C       -0.31064078      -0.67334496      -0.23258309      -0.45745851      -0.30037676      -0.03885051
H        1.45315251      -0.61756727       1.03170717       0.10281868       0.26295835      -0.07383442
H       -0.04493914      -1.65275530      -0.63099602      -0.16866412      -0.01021534      -0.19348768
H       -0.82344379      -0.08662090      -0.98976405       0.08043086       0.02539713       0.04123111
H       -0.96706496      -0.84278411       0.62122129      -0.23388406       0.04079084      -0.11493018
7
Properties=species:S:1:pos:R:3:forces:R:3 energy=-4184.264110218633 free_energy=-4184.264110218633 dipole="-0.23519983182915175 -0.3431900173961846 0.056374525675152304" pbc="F F F"
O        1.46891798       1.02315377      -0.05665228       2.32813236       5.14877274      -1.72177358
C        0.94326161      -0.01089367       0.24946597      -1.65748921      -5.19030673       2.07985817
C       -0.31018493      -0.67202574      -0.23341644      -0.44894776      -0.25474791      -0.03871820
H        1.43978072      -0.62764725       1.03120329       0.12646601       0.26592462      -0.04893409
H       -0.04708017      -1.65863253      -0.61521034      -0.18826714      -0.02234375      -0.19733532
H       -0.82324635      -0.09744041      -1.00003792       0.10067701       0.03981550       0.04600089
H       -0.96495679      -0.82446575       0.62464772      -0.25154816       0.02849629      -0.12164790
7
Properties=species:S:1:pos:R:3:forces:R:3 energy=-4184.241044792254 free_energy=-4184.241044792254 dipole="-0.2438694992354507 -0.3436588863967694 0.05397006561193143" pbc="F F F"
O        1.49772385       1.01347149      -0.04839563       2.40619334       5.09112685      -1.68576641
C        0.94587428      -0.01056279       0.24389057      -1.75240161      -5.16574452       2.03040962
C       -0.30806693      -0.67269100      -0.23627216      -0.43500494      -0.21344393      -0.03797580
H        1.42618162      -0.63514146       1.03134586       0.14730353       0.26804781      -0.02239445
H       -0.04181977      -1.66258702      -0.60645874      -0.20616758      -0.03993864      -0.20469798
H       -0.82489845      -0.10948890      -1.00909922       0.12126293       0.05676324       0.05034414
H       -0.96032828      -0.81669264       0.62498933      -0.26991578       0.01602835      -0.12877434
7
Properties=species:S:1:pos:R:3:forces:R:3 energy=-4184.215733445178 free_energy=-4184.215733445178 dipole="-0.2521017736308265 -0.3442593876993046 0.052704424010590514" pbc="F F F"
O        1.52508393       1.00398060      -0.04607336       2.46590295       5.03094129      -1.65843424
C        0.94979012      -0.01012710       0.23440689      -1.83128688      -5.13338997       1.98799168
C       -0.30714875      -0.67352274      -0.23620211      -0.42587030      -0.18051989      -0.03387335
H        1.41868061      -0.64289398       1.02408301       0.17195566       0.26652901      -0.00091541
H       -0.03953863      -1.66651528      -0.59684178      -0.22591084      -0.04982253      -0.20798045
H       -0.83299590      -0.12161479      -1.01138735       0.14376034       0.07385040       0.05140866
H       -0.95172601      -0.80948063       0.63201469      -0.28761480       0.00193491      -0.13469532
7
Properties=species:S:1:pos:R:3:forces:R:3 energy=-4184.189270784058 free_energy=-4184.189270784058 dipole="-0.2598715714863211 -0.3438381509977972 0.061160450405909" pbc="F F F"
O        1.55386569       0.99019043      -0.08950711       2.48627408       4.93887353      -1.73955813
C        0.96037902      -0.00969780       0.20310575      -1.87567253      -5.05268089       2.04969285
C       -0.31302190      -0.67501126      -0.21906828      -0.42631838      -0.14789233      -0.01788981
H        1.43679405      -0.64484121       0.98822552       0.21069736       0.25000892      -0.00119249
H       -0.05563337      -1.67443311      -0.56893424      -0.24591876      -0.05903916      -0.20271663
H       -0.86621068      -0.13935285      -0.98690735       0.16553491       0.08977577       0.04776398
H       -0.92726312      -0.79423186       0.67308571      -0.30504175      -0.00943117      -0.13160234
7
Properties=species:S:1:pos:R:3:forces:R:3 energy=-4184.159760783439 free_energy=-4184.159760783439 dipole="-0.26914603340986465 -0.3453594291135489 0.05004687965464538" pbc="F F F"
O        1.58091242       0.98113111      -0.04220413       2.56441991       4.90031285      -1.59243392
C        0.95978638      -0.01204022       0.21296972      -1.98464267      -5.05465953       1.88918056
C       -0.30799406      -0.67325245      -0.23336576      -0.39531394      -0.10574906      -0.02775309
H        1.40979477      -0.66563685       1.00050778       0.22969665       0.25147810       0.03494217
H       -0.04156554      -1.67009522      -0.58340090      -0.26264600      -0.07045953      -0.21261839
H       -0.85477551      -0.13767203      -1.00612376       0.18059282       0.10430366       0.05426083
H       -0.93121809      -0.79771858       0.65161706      -0.32702077      -0.02030083      -0.14099808
7
Properties=species:S:1:pos:R:3:forces:R:3 energy=-4184.12856674595 free_energy=-4184.12856674595 dipole="-0.2762026443217205 -0.34831225488216583 0.03802524451429468" pbc="F F F"
O        1.59917800       0.97826921       0.00742806       2.60149754       4.87953323      -1.43343095
C        0.95795030      -0.01165531       0.22210113      -2.06145187      -5.05960514       1.71360955
C       -0.30215611      -0.67333130      -0.24668702      -0.36519830      -0.07010977      -0.03648167
H        1.38827843      -0.68479605       1.00612657       0.25006764       0.24644985       0.06680684
H       -0.02296244      -1.66497634      -0.60125293      -0.27941974      -0.07957727      -0.22168533
H       -0.84887995      -0.13808027      -1.02004779       0.20133130       0.12115580       0.05806599
H       -0.93118930      -0.80930383       0.63233196      -0.34596264      -0.03426069      -0.14702912
7
Properties=species:S:1:pos:R:3:forces:R:3 energy=-4184.096391143288 free_energy=-4184.096391143288 dipole="-0.28771573381259286 -0.34616056742629225 0.03969660257873441" pbc="F F F"
O        1.63724074       0.95451622      -0.00258523       2.67912487       4.77628890      -1.44469055
C        0.96627013      -0.01641844       0.20778282      -2.17145582      -4.97889062       1.70538536
C       -0.30491291      -0.67123148      -0.24312365      -0.34620451      -0.02043063      -0.02816547
H        1.38187171      -0.69566395       0.99654242       0.28022077       0.23175108       0.08175334
H       -0.03436890      -1.66989258      -0.58359186      -0.29565087      -0.09289978      -0.22421360
H       -0.85683883      -0.14614021      -1.02003705       0.21667715       0.13261252       0.05732946
H       -0.92453451      -0.78829589       0.64501256      -0.36508975      -0.04184497      -0.14897692
7
Properties=species:S:1:pos:R:3:forces:R:3 energy=-4184.061531319032 free_energy=-4184.061531319032 dipole="-0.2952422689043913 -0.34779507782320596 0.03563652694391087" pbc="F F F"
O        1.65840654       0.94637072       0.01128961       2.70741503       4.71899542      -1.38340351
C        0.96848417      -0.01530710       0.20220733      -2.23372557      -4.93542558       1.63247824
C       -0.30333548      -0.67285578      -0.24545170      -0.32247078       0.01515967      -0.03118147
H        1.37312719      -0.70541596       0.98941335       0.30765109       0.22103259       0.10055849
H       -0.02773404      -1.67088651      -0.58325433      -0.31213864      -0.10437678      -0.22801970
H       -0.86415808      -0.15523611      -1.02133970       0.23429206       0.14811545       0.05779398
H       -0.91634172      -0.78969008       0.64713544      -0.38326386      -0.05429987      -0.15210094
7
Properties=species:S:1:pos:R:3:forces:R:3 energy=-4184.02518089731 free_energy=-4184.02518089731 dipole="-0.3058053725875557 -0.34700307363829413 0.029564413719081493" pbc="F F F"
O        1.68980019       0.92651620       0.03453871       2.78102979       4.63885359      -1.30327292
C        0.97269106      -0.01975908       0.20126746      -2.34657876      -4.87198746       1.54720890
C       -0.30213800      -0.67011955      -0.25155575      -0.28671844       0.05715662      -0.03855258
H        1.35569977      -0.72332366       0.98961404       0.33358851       0.20649481       0.12262911
H       -0.02717913      -1.66968704      -0.58468278      -0.32839939      -0.11631373      -0.23547622
H       -0.86198448      -0.15544330      -1.03043246       0.25069484       0.16045860       0.06020195
H       -0.91552391      -0.78171978       0.64125079      -0.40324741      -0.06291651      -0.15724584
7
Properties=species:S:1:pos:R:3:forces:R:3 energy=-4183.987014604231 free_energy=-4183.987014604231 dipole="-0.3147390152827495 -0.34702647173783646 0.029044419849829774" pbc="F F F"
O        1.71607271       0.91124644       0.03314831       2.81085385       4.55317371      -1.27696444
C        0.97819890      -0.02101330       0.18895627      -2.40803400      -4.79998527       1.51047420
C       -0.30353181      -0.67044428      -0.24876155      -0.26702704       0.09320069      -0.04036765
H        1.35279333      -0.73356923       0.97552502       0.36408637       0.19044430       0.13763478
H       -0.03008706      -1.67181910      -0.57737271      -0.34651034      -0.12421786      -0.23527357
H       -0.87532675      -0.16355460      -1.02443586       0.26889489       0.17283160       0.05720467
H       -0.90465735      -0.77549676       0.65294052      -0.41904869      -0.07298011      -0.15560328
7
Properties=species:S:1:pos:R:3:forces:R:3 energy=-4183.947517497068 free_energy=-4183.947517497068 dipole="-0.3242509782885206 -0.3467193526309643 0.02544900414005813" pbc="F F F"
O        1.74273372       0.89401049       0.04555394       2.85055788       4.46500074      -1.22134205
C        0.98245231      -0.02327729       0.18300422      -2.48638403      -4.72706399       1.45083184
C       -0.30324555      -0.67005472      -0.25101717      -0.23344681       0.13175247      -0.05044503
H        1.34175716      -0.74586932       0.96984088       0.38959333       0.17415178       0.15966406
H       -0.03000541      -1.67293152      -0.57448991      -0.36100330      -0.13545035      -0.23994138
H       -0.87962407      -0.16881069      -1.02731951       0.28341148       0.18371340       0.05705304
H       -0.89934586      -0.76940958       0.65442755      -0.43691869      -0.08067585      -0.15664012
7
Properties=species:S:1:pos:R:3:forces:R:3 energy=-4183.9066647832515 free_energy=-4183.9066647832515 dipole="-0.333600746362545 -0.3467320296002206 0.019014944815924507" pbc="F F F"
O        1.76779652       0.87672718       0.06877774       2.87741798       4.37897006      -1.13288547
C        0.98616712      -0.02638098       0.18075879      -2.55781959      -4.65525774       1.36507739
C       -0.30275335      -0.66846360      -0.25523821      -0.19045992       0.17375800      -0.06616980
H        1.32993676      -0.76404476       0.96294923       0.41506130       0.15577799       0.18147534
H       -0.02841597      -1.66985693      -0.58138067      -0.37631444      -0.14804795      -0.24622168
H       -0.88333065      -0.16699378      -1.02863690       0.29623504       0.19250149       0.05905006
H       -0.89426899      -0.76957631       0.65277002      -0.45657494      -0.08860696      -0.15870767
7
Properties=species:S:1:pos:R:3:forces:R:3 energy=-4183.864273610515 free_energy=-4183.864273610515 dipole="-0.3437237550559491 -0.3453437649389389 0.018256891053310853" pbc="F F F"
O        1.79648419       0.85537017       0.06911639       2.90492556       4.27308804      -1.11305584
C        0.99217520      -0.02933185       0.17010141      -2.62625934      -4.56599833       1.33706112
C       -0.30399180      -0.66817345      -0.25374724      -0.16606035       0.21082112      -0.08233380
H        1.32260143      -0.77393503       0.95385132       0.43902695       0.13839057       0.20482710