7
Properties=species:S:1:pos:R:3:forces:R:3 energy=-4184.976356837841 free_energy=-4184.976356837841 dipole="-0.412920540353124 -0.6633334671418788 -5.174823942103803e-06" pbc="F F F"
O        0.78313930       1.00838831      -0.00002023      -3.16594930       0.02938497      -0.00027565
C        0.77207897      -0.33037504      -0.00007832       3.70936624      -2.92269163      -0.00228505
C       -0.64287093      -0.59806762       0.00002149      -0.53852874       2.88883171       0.00297351
H        1.26309306      -0.77159934       0.88096863      -0.00095095       0.00036031       0.00098321
H        1.26293324      -0.77153213      -0.88129176      -0.00111592       0.00118008      -0.00019190
H       -1.20409560      -0.53525869      -0.92299413      -0.00068134       0.00193624      -0.00065766
H       -1.20341693      -0.53414018       0.92339432      -0.00214000       0.00099831      -0.00054646
7
Properties=species:S:1:pos:R:3:forces:R:3 energy=-4184.863533410747 free_energy=-4184.863533410747 dipole="-0.4350789195105561 -0.6720435335239638 -0.00015961942626284537" pbc="F F F"
O        0.81900173       1.01052482       0.00022626      -3.16195455       0.10828262      -0.00000886
C        0.77535164      -0.32785209      -0.00001717       3.71068068      -2.99443817      -0.00482410
C       -0.64132356      -0.59922173      -0.00005265      -0.54471903       2.88041155       0.00561622
H        1.26129255      -0.77768545       0.88009377      -0.00163093       0.00087468       0.00100380
H        1.26105526      -0.77715245      -0.88057534      -0.00123685       0.00122632       0.00024361
H       -1.20402576      -0.53555146      -0.92258619       0.00065314       0.00252490      -0.00085431
H       -1.20314944      -0.53352025       0.92291132      -0.00179246       0.00111810      -0.00117637
7
Properties=species:S:1:pos:R:3:forces:R:3 energy=-4184.75074988496 free_energy=-4184.75074988496 dipole="-0.45772469098765156 -0.6805892898529915 -0.0001286207544452261" pbc="F F F"
O        0.85520434       1.01197196       0.00013675      -3.15635230       0.18171344      -0.00010691
C        0.77862477      -0.32551116      -0.00012302       3.71406836      -3.06020853      -0.00191023
C       -0.63965445      -0.60017735      -0.00002466      -0.55789063       2.87553523       0.00370717
H        1.25903540      -0.78348979       0.87939711      -0.00051760       0.00046899       0.00002629
H        1.25908001      -0.78307701      -0.87982576      -0.00116280       0.00067102      -0.00012426
H       -1.20396523      -0.53538638      -0.92196088       0.00193394       0.00141717      -0.00195152
H       -1.20300393      -0.53365407       0.92240046      -0.00007898       0.00040268       0.00035947
7
Properties=species:S:1:pos:R:3:forces:R:3 energy=-4184.637990197137 free_energy=-4184.637990197137 dipole="-0.48091071006255587 -0.6888561909591405 -0.0001309359047414429" pbc="F F F"
O        0.89168756       1.01262792       0.00011968      -3.14905518       0.25693228       0.00053430
C        0.78191453      -0.32321474      -0.00013152       3.71293786      -3.12869315      -0.00133658
C       -0.63811012      -0.60091122       0.00003315      -0.56733225       2.87331245       0.00249456
H        1.25667012      -0.78944147       0.87867961       0.00050909       0.00021415      -0.00038508
H        1.25667773      -0.78892348      -0.87916508      -0.00020532      -0.00040299      -0.00024075
H       -1.20374566      -0.53556540      -0.92153506       0.00233778      -0.00038995      -0.00119915
H       -1.20290393      -0.53374555       0.92199922       0.00080801      -0.00097280       0.00013271
7
Properties=species:S:1:pos:R:3:forces:R:3 energy=-4184.525240987955 free_energy=-4184.525240987955 dipole="-0.5049414245555822 -0.6971844988471578 -0.008560976523957977" pbc="F F F"
O        0.92873379       1.01247996       0.01318576      -3.13404911       0.34117858       0.00845875
C        0.78511620      -0.32065191       0.00070195       3.69547186      -3.20294251      -0.03603000
C       -0.63696583      -0.60068718       0.00050488      -0.55755057       2.85918304       0.02620324
H        1.25614862      -0.80574375       0.87225921      -0.00073018       0.00020200       0.00013712
H        1.25176294      -0.78471728      -0.88389544      -0.00031696       0.00055817       0.00022870
H       -1.20267786      -0.55866431      -0.92279530      -0.00213835       0.00092978       0.00164216
H       -1.20333358      -0.51201761       0.92003894      -0.00068669       0.00089093      -0.00063997
7
Properties=species:S:1:pos:R:3:forces:R:3 energy=-4184.431960708453 free_energy=-4184.431960708453 dipole="-0.5045598264022092 -0.740155297572839 -0.13158178087307518" pbc="F F F"
O        0.96210627       1.00112642       0.19300622      -2.04375060       0.26982436       0.08655253
C        0.78320076      -0.30464029       0.01305738       2.41161677      -2.11719294      -0.35341193
C       -0.63304606      -0.58407970       0.00753684      -0.36314908       1.84350528       0.26844520
H        1.27263918      -0.96328225       0.77020993      -0.00070798       0.00120935      -0.00090158
H        1.21848750      -0.65167243      -0.94498597      -0.00168290       0.00067931      -0.00034162
H       -1.18012301      -0.87427542      -0.88219566      -0.00121615       0.00087110       0.00029550
H       -1.20818753      -0.20497689       0.84337126      -0.00111007       0.00110355      -0.00063810
7
Properties=species:S:1:pos:R:3:forces:R:3 energy=-4188.428656969128 free_energy=-4188.428656969128 dipole="-0.1875911922649636 -0.48341196722113305 -0.14617295767007704" pbc="F F F"
O        1.20489537       0.79487104       0.67379040       1.45257210      -0.49530862       0.81311174
C        0.93562707      -0.36234600       0.44875564      -1.56890680       1.86629864      -0.79586274
C       -0.37642517      -0.46106285      -0.31751191       0.11524178      -1.36905143      -0.01175488
H        1.56066145      -1.21710541       0.74138247       0.00305790       0.00072015      -0.00036991
H       -0.19768592      -0.06533326      -1.31551704      -0.00011448      -0.00145459      -0.00308468
H       -0.78414153      -1.46742577      -0.41257312      -0.00124290      -0.00032701      -0.00064617
H       -1.09188828       0.18384129       0.18167356      -0.00060760      -0.00087716      -0.00139336
7
Properties=species:S:1:pos:R:3:forces:R:3 energy=-4188.484789695694 free_energy=-4188.484789695694 dipole="-0.11729272669172333 -0.5089985087516344 -0.19736983835941602" pbc="F F F"
O        0.99433311       1.12154756       0.24028484       1.38345519       0.31775769      -0.89442714
C        0.88314560       0.05116573      -0.31162431      -1.67934536       0.68455915       1.72397677
C       -0.32982422      -0.71542421       0.18131463       0.29636014      -1.00339736      -0.83292786
H       -0.00283402      -1.50865883       0.85687794       0.00125171      -0.00178458       0.00279780
H        1.58638309      -0.33597842      -1.06228703       0.00006038       0.00160137       0.00121410
H       -0.88362065      -1.20137661      -0.62345121      -0.00170526       0.00107910       0.00040930
H       -0.96092647      -0.01954951       0.71888513      -0.00007681       0.00018463      -0.00104298
7
Properties=species:S:1:pos:R:3:forces:R:3 energy=-4188.535919023922 free_energy=-4188.535919023922 dipole="-0.09935468872075166 -0.5416328964318531 -0.1307094978594348" pbc="F F F"
O        0.94073519       1.18463405       0.07246512       1.26084300       0.19397358      -0.74987165
C        0.89133206       0.03844573      -0.30728223      -1.61615740       0.77289211       1.32766882
C       -0.31721953      -0.71371617       0.20775901       0.35606532      -0.96659742      -0.57770753
H       -0.01733736      -1.59785555       0.77363912      -0.00018380      -0.00013236       0.00035210
H        1.64347916      -0.42342046      -0.96332994      -0.00002434      -0.00029277      -0.00033629
H       -0.93400980      -1.07216156      -0.61875706      -0.00011384       0.00020629      -0.00001343
H       -0.88508752      -0.03885685       0.83550598      -0.00042894      -0.00004942      -0.00009201
7
Properties=species:S:1:pos:R:3:forces:R:3 energy=-4188.579877844092 free_energy=-4188.579877844092 dipole="-0.12708303902695983 -0.5385622128440765 -0.1394501041166959" pbc="F F F"
O        0.99561363       1.17158908       0.09278465       1.04598618       0.14401221      -0.67761229
C        0.88721284       0.03957795      -0.31268700      -1.31485153       0.66125547       1.21039499
C       -0.31212664      -0.71314042       0.21424687       0.26879791      -0.80611332      -0.53329694
H       -0.00082019      -1.61485350       0.74494215      -0.00017982       0.00077119      -0.00001647
H        1.59893175      -0.42391059      -1.01275287      -0.00035609      -0.00019646       0.00007856
H       -0.95356492      -1.04268030      -0.60525531       0.00016909       0.00020852       0.00023229
H       -0.85852113      -0.05510233       0.87872151       0.00043427       0.00006240       0.00021986
7
Properties=species:S:1:pos:R:3:forces:R:3 energy=-4188.61666632034 free_energy=-4188.61666632034 dipole="-0.1395339617708995 -0.5433959720196049 0.12693991405435026" pbc="F F F"
O        1.01938759       1.17589306      -0.07019460       0.86495711       0.08835607       0.56543673
C        0.88932630       0.03801817       0.30850201      -1.09503966       0.57743221      -0.99995796
C       -0.30965188      -0.71175632      -0.21663193       0.22923173      -0.66710901       0.43405895
H        1.59649180      -0.44665548       1.00025459      -0.00001476       0.00074893      -0.00005285
H        0.00386149      -1.60854485      -0.75401704      -0.00045453       0.00099613       0.00077964
H       -0.86552200      -0.05404969      -0.87432707       0.00053057      -0.00000188      -0.00048691
H       -0.94276218      -1.04793606       0.60641403       0.00078953      -0.00042245       0.00022240
7
Properties=species:S:1:pos:R:3:forces:R:3 energy=-4188.646564376875 free_energy=-4188.646564376875 dipole="-0.18359761568430555 -0.5328171560067045 -0.13619105937164194" pbc="F F F"
O        1.12393374       1.13064429       0.09719327       0.67760291       0.03709070      -0.47250143
C        0.90254996       0.01642031      -0.30555038      -0.82222077       0.49182181       0.84429357
C       -0.31679895      -0.69488608       0.21907427       0.14435363      -0.53018649      -0.37169507
H       -0.03108143      -1.62725419       0.70904980      -0.00073511       0.00142342      -0.00074369
H        1.55707680      -0.48814739      -1.03536242       0.00034266       0.00004598       0.00004385
H       -0.98176071      -0.96523738      -0.60291907       0.00014497      -0.00043987       0.00034937
H       -0.82883423      -0.04399183       0.91851453       0.00051170       0.00024443       0.00025339
7
Properties=species:S:1:pos:R:3:forces:R:3 energy=-4188.669832231176 free_energy=-4188.669832231176 dipole="-0.17519655175078508 -0.5452359624565578 0.11573710444582881" pbc="F F F"
O        1.09370341       1.16601131      -0.05929421       0.51679272       0.02231424       0.35059210
C        0.89609788       0.03278340       0.29743536      -0.64722250       0.38102911      -0.61735855
C       -0.30745705      -0.70682732      -0.21894309       0.12973162      -0.40286812       0.26713121
H        1.57550886      -0.48411569       0.99674409       0.00025230      -0.00012076       0.00012716
H        0.00376609      -1.61364521      -0.73985064       0.00050062      -0.00056126      -0.00042016
H       -0.86436123      -0.06088013      -0.88869643       0.00018332       0.00014867       0.00006869
H       -0.93869450      -1.02409746       0.61260493      -0.00023808       0.00005812      -0.00014045
7
Properties=species:S:1:pos:R:3:forces:R:3 energy=-4188.686633993152 free_energy=-4188.686633993152 dipole="-0.22188177231994444 -0.528024499083475 0.13578986684451622" pbc="F F F"
O        1.21275013       1.10382136      -0.12595508       0.35146523      -0.00471987       0.24440458
C        0.92124084       0.00639586       0.27309707      -0.42476392       0.27553945      -0.44388393
C       -0.32279623      -0.68650096      -0.20614487       0.07365481      -0.27106929       0.19853287
H        1.55645695      -0.52616327       1.00313439       0.00031287      -0.00067136       0.00010027
H       -0.06260412      -1.63846739      -0.67127938       0.00091118       0.00053539       0.00089166
H       -0.84431857      -0.05207235      -0.91484931      -0.00068937       0.00043897       0.00049503
H       -0.96918682      -0.91698787       0.64199719      -0.00089080      -0.00005328      -0.00054047
7
Properties=species:S:1:pos:R:3:forces:R:3 energy=-4188.697305304366 free_energy=-4188.697305304366 dipole="-0.24214403915135735 -0.5268805957577788 0.12407514443192555" pbc="F F F"
O        1.25384958       1.09380336      -0.09841657       0.19311732      -0.00871943       0.14093433
C        0.92176426       0.00123016       0.27936528      -0.22907726       0.16270402      -0.25120298
C       -0.31919889      -0.68195634      -0.21671483       0.03491183      -0.15547150       0.11063346
H        1.53000999      -0.54998293       1.02012721      -0.00092725      -0.00083974      -0.00099957
H       -0.05483411      -1.63608646      -0.67476694       0.00006914       0.00109035       0.00017731
H       -0.83186893      -0.04986541      -0.93446129       0.00103766       0.00051834       0.00018096
H       -0.97572386      -0.90719163       0.62486713       0.00086856       0.00071796       0.00027649
7
Properties=species:S:1:pos:R:3:forces:R:3 energy=-4188.702039589198 free_energy=-4188.702039589198 dipole="-0.2633632340663036 -0.5222433428351528 0.1209358678357613" pbc="F F F"
O        1.29947039       1.07735796      -0.09698666       0.04527000      -0.00420982       0.03451054
C        0.92515318      -0.00225371       0.27643177      -0.05157824       0.04239377      -0.06135927
C       -0.31745736      -0.67890319      -0.22089545       0.00361130      -0.03919374       0.02904869
H        1.50669228      -0.56244393       1.03335211      -0.00048525      -0.00052874      -0.00081829
H       -0.05519202      -1.64373724      -0.65677260       0.00026341      -0.00016249      -0.00065987
H       -0.82162570      -0.05923788      -0.95574605       0.00221702       0.00148384      -0.00060683
H       -0.98113278      -0.88176277       0.62061688       0.00070176       0.00021718      -0.00011497
7
Properties=species:S:1:pos:R:3:forces:R:3 energy=-4188.701015067208 free_energy=-4188.701015067208 dipole="-0.2825567264481356 -0.5184299902538053 0.11426693426507335" pbc="F F F"
O        1.34054420       1.06321883      -0.08648489      -0.09409536       0.00896062      -0.07563732
C        0.92808822      -0.00585333       0.27497041       0.11188119      -0.08293935       0.13422650
C       -0.31540488      -0.67604618      -0.22624010      -0.01855065       0.07794537      -0.05645445
H        1.48524257      -0.57764389       1.04307849      -0.00050515      -0.00101994      -0.00005809
H       -0.05374470      -1.64774297      -0.64635567       0.00070899      -0.00346369      -0.00142822
H       -0.81305788      -0.06542562      -0.97343682       0.00079668       0.00081891      -0.00044464
H       -0.98441811      -0.86326116       0.61446859      -0.00023570      -0.00030193      -0.00020378
7
Properties=species:S:1:pos:R:3:forces:R:3 energy=-4188.694366646705 free_energy=-4188.694366646705 dipole="-0.29599201405562187 -0.5174741147037437 0.10562793320730378" pbc="F F F"
O        1.36622190       1.06012830      -0.07110629      -0.22367067       0.03089082      -0.18797800
C        0.92747069      -0.00320995       0.27408686       0.26371693      -0.21162591       0.33023739
C       -0.31069340      -0.67782300      -0.23224804      -0.03978549       0.18115528      -0.13966161
H        1.46653134      -0.58353476       1.05029573      -0.00046978      -0.00087701       0.00099690
H       -0.04013066      -1.65230444      -0.64003915      -0.00077795      -0.00008669      -0.00086724
H       -0.80938994      -0.07914776      -0.98871231       0.00097434       0.00099994      -0.00163703
H       -0.98200980      -0.85946288       0.60772320       0.00001261      -0.00045644      -0.00109041
7
Properties=species:S:1:pos:R:3:forces:R:3 energy=-4188.682286903485 free_energy=-4188.682286903485 dipole="-0.31579074387602374 -0.5103109290892119 0.10582404681071594" pbc="F F F"
O        1.41341493       1.03735600      -0.08494232      -0.34766402       0.06025106      -0.29994934
C        0.93702648      -0.00929147       0.25966412       0.40766955      -0.34288158       0.53429230
C       -0.31354732      -0.67334190      -0.22805748      -0.05939720       0.28190236      -0.23416821
H        1.45915341      -0.59853384       1.04247326      -0.00056695      -0.00037896      -0.00067719
H       -0.05554388      -1.65850747      -0.61770062      -0.00077463       0.00096578       0.00027724
H       -0.81366775      -0.08611426      -0.99296091       0.00020835      -0.00017792      -0.00002180
H       -0.97869758      -0.83033229       0.62152395       0.00052491       0.00031927       0.00024701
7
Properties=species:S:1:pos:R:3:forces:R:3 energy=-4188.664852968657 free_energy=-4188.664852968657 dipole="-0.32555250657157314 -0.5116410117745465 0.09150338540375433" pbc="F F F"
O        1.43230255       1.03879524      -0.05707504      -0.46756844       0.09597191      -0.40710904
C        0.93827620      -0.00869269       0.25748974       0.55069622      -0.48206080       0.71797312
C       -0.31064078      -0.67334496      -0.23258309      -0.08422613       0.38576505      -0.31084147
H        1.45315251      -0.61756727       1.03170717       0.00014455      -0.00036395      -0.00007077
H       -0.04493914      -1.65275530      -0.63099602       0.00036038      -0.00029447       0.00021520
H       -0.82344379      -0.08662090      -0.98976405       0.00058240       0.00083701      -0.00018639
H       -0.96706496      -0.84278411       0.62122129       0.00001101       0.00014525       0.00001934
7
Properties=species:S:1:pos:R:3:forces:R:3 energy=-4188.642239278036 free_energy=-4188.642239278036 dipole="-0.34171644407678803 -0.5061799892174129 0.08740668276830162" pbc="F F F"
O        1.46891798       1.02315377      -0.05665228      -0.57546360       0.13994334      -0.52017434
C        0.94326161      -0.01089367       0.24946597       0.67412389      -0.62337590       0.91828826
C       -0.31018493      -0.67202574      -0.23341644      -0.09737375       0.48215823      -0.40078651
H        1.43978072      -0.62764725       1.03120329       0.00068572       0.00041642       0.00034919
H       -0.04708017      -1.65863253      -0.61521034      -0.00042207       0.00086255       0.00088691
H       -0.82324635      -0.09744041      -1.00003792      -0.00159082      -0.00061251       0.00063159
H       -0.96495679      -0.82446575       0.62464772       0.00004063       0.00060786       0.00080490
7
Properties=species:S:1:pos:R:3:forces:R:3 energy=-4188.614554122351 free_energy=-4188.614554122351 dipole="-0.35506881808221435 -0.5026400640882954 0.08060252695746663" pbc="F F F"
O        1.49772385       1.01347149      -0.04839563      -0.67808395       0.18483296      -0.63322384
C        0.94587428      -0.01056279       0.24389057       0.79503775      -0.75846063       1.11497283
C       -0.30806693      -0.67269100      -0.23627216      -0.11497564       0.57657156      -0.48245473
H        1.42618162      -0.63514146       1.03134586      -0.00048246      -0.00059254       0.00006724
H       -0.04181977      -1.66258702      -0.60645874       0.00081035      -0.00324180      -0.00085042
H       -0.82489845      -0.10948890      -1.00909922      -0.00174057      -0.00032529       0.00098474
H       -0.96032828      -0.81669264       0.62498933      -0.00056548       0.00121573       0.00050418
7
Properties=species:S:1:pos:R:3:forces:R:3 energy=-4188.581917039211 free_energy=-4188.581917039211 dipole="-0.3673931404702987 -0.4990350226450637 0.07539781931992787" pbc="F F F"
O        1.52508393       1.00398060      -0.04607336      -0.77663647       0.23594335      -0.74145913
C        0.94979012      -0.01012710       0.23440689       0.91642287      -0.89669111       1.30475458
C       -0.30714875      -0.67352274      -0.23620211      -0.13900978       0.66144433      -0.56241165
H        1.41868061      -0.64289398       1.02408301      -0.00085044      -0.00032650      -0.00013755
H       -0.03953863      -1.66651528      -0.59684178      -0.00010139      -0.00058462      -0.00010491
H       -0.83299590      -0.12161479      -1.01138735       0.00030466       0.00027257      -0.00028683
H       -0.95172601      -0.80948063       0.63201469      -0.00012944      -0.00005803      -0.00035451
7
Properties=species:S:1:pos:R:3:forces:R:3 energy=-4188.544440996926 free_energy=-4188.544440996926 dipole="-0.37857443585014755 -0.49356626351711175 0.08431987144667871" pbc="F F F"
O        1.55386569       0.99019043      -0.08950711      -0.89084241       0.28600457      -0.82924419
C        0.96037902      -0.00969780       0.20310575       1.06366890      -1.02807459       1.47714032
C       -0.31302190      -0.67501126      -0.21906828      -0.17306786       0.74155502      -0.64809219
H        1.43679405      -0.64484121       0.98822552       0.00006900      -0.00055524       0.00005325
H       -0.05563337      -1.67443311      -0.56893424       0.00005796       0.00058758       0.00007309
H       -0.86621068      -0.13935285      -0.98690735       0.00028849       0.00012807      -0.00012947
H       -0.92726312      -0.79423186       0.67308571      -0.00017407       0.00035459       0.00019919
7
Properties=species:S:1:pos:R:3:forces:R:3 energy=-4188.502153851413 free_energy=-4188.502153851413 dipole="-0.3914622949250776 -0.4906362182982323 0.06494662867913958" pbc="F F F"
O        1.58091242       0.98113111      -0.04220413      -0.96214644       0.35858747      -0.94897725
C        0.95978638      -0.01204022       0.21296972       1.14424665      -1.19423590       1.67238039
C       -0.30799406      -0.67325245      -0.23336576      -0.17832268       0.83498392      -0.72333673
H        1.40979477      -0.66563685       1.00050778       0.00078446      -0.00007241      -0.00009000
H       -0.04156554      -1.67009522      -0.58340090      -0.00024636       0.00043065       0.00012521
H       -0.85477551      -0.13767203      -1.00612376      -0.00237934      -0.00071525       0.00069610
H       -0.93121809      -0.79771858       0.65161706      -0.00193629       0.00102153      -0.00079771
7
Properties=species:S:1:pos:R:3:forces:R:3 energy=-4188.455179251237 free_energy=-4188.455179251237 dipole="-0.4008544733774655 -0.48955469596964896 0.044548552750053164" pbc="F F F"
O        1.59917800       0.97826921       0.00742806      -1.03132287       0.43618557      -1.06293161
C        0.95795030      -0.01165531       0.22210113       1.22618492      -1.36427039       1.85081396
C       -0.30215611      -0.67333130      -0.24668702      -0.19651790       0.92641439      -0.78876153
H        1.38827843      -0.68479605       1.00612657       0.00009640      -0.00104146       0.00041258
H       -0.02296244      -1.66497634      -0.60125293      -0.00124790       0.00254564       0.00074194
H       -0.84887995      -0.13808027      -1.02004779       0.00198959       0.00045961      -0.00082484
H       -0.93118930      -0.80930383       0.63233196       0.00081775      -0.00029336       0.00054950
7
Properties=species:S:1:pos:R:3:forces:R:3 energy=-4188.403610824791 free_energy=-4188.403610824791 dipole="-0.4159646878204996 -0.48089391979884183 0.043673052868149764" pbc="F F F"
O        1.63724074       0.95451622      -0.00258523      -1.10613981       0.51105784      -1.17018604
C        0.96627013      -0.01641844       0.20778282       1.31262811      -1.51686128       2.04467818
C       -0.30491291      -0.67123148      -0.24312365      -0.20239761       1.00933845      -0.87439408
H        1.38187171      -0.69566395       0.99654242      -0.00069308      -0.00250284      -0.00009083
H       -0.03436890      -1.66989258      -0.58359186      -0.00029474      -0.00100615      -0.00074442
H       -0.85683883      -0.14614021      -1.02003705      -0.00204202      -0.00100167       0.00030461
H       -0.92453451      -0.78829589       0.64501256      -0.00106086       0.00097565       0.00043258
7
Properties=species:S:1:pos:R:3:forces:R:3 energy=-4188.347464195627 free_energy=-4188.347464195627 dipole="-0.425348207346191 -0.4773949339354424 0.034882565837843715" pbc="F F F"
O        1.65840654       0.94637072       0.01128961      -1.17508314       0.59037388      -1.27295082
C        0.96848417      -0.01530710       0.20220733       1.40503067      -1.68039987       2.22045119
C       -0.30333548      -0.67285578      -0.24545170      -0.22848681       1.09086328      -0.94728237
H        1.37312719      -0.70541596       0.98941335      -0.00027731      -0.00033343      -0.00002268
H       -0.02773404      -1.67088651      -0.58325433       0.00011333      -0.00052806      -0.00001142
H       -0.86415808      -0.15523611      -1.02133970      -0.00070977      -0.00028014      -0.00000487
H       -0.91634172      -0.78969008       0.64713544      -0.00058698       0.00030435      -0.00017904
7
Properties=species:S:1:pos:R:3:forces:R:3 energy=-4188.286808947289 free_energy=-4188.286808947289 dipole="-0.43829908137253226 -0.4701933697437145 0.02328509321979768" pbc="F F F"
O        1.68980019       0.92651620       0.03453871      -1.22375165       0.68463917      -1.38429624
C        0.97269106      -0.01975908       0.20126746       1.46004556      -1.85832659       2.40602112
C       -0.30213800      -0.67011955      -0.25155575      -0.23438703       1.17396700      -1.02080293
H        1.35569977      -0.72332366       0.98961404      -0.00090236       0.00038514      -0.00034354
H       -0.02717913      -1.66968704      -0.58468278       0.00088800      -0.00153288      -0.00021249
H       -0.86198448      -0.15544330      -1.03043246      -0.00101541       0.00006976       0.00045407
H       -0.91552391      -0.78171978       0.64125079      -0.00087711       0.00079841      -0.00081998
7
Properties=species:S:1:pos:R:3:forces:R:3 energy=-4188.221708983021 free_energy=-4188.221708983021 dipole="-0.44885247835812325 -0.46418498691788496 0.019588215188381365" pbc="F F F"
O        1.71607271       0.91124644       0.03314831      -1.28722554       0.77185720      -1.47919265
C        0.97819890      -0.02101330       0.18895627       1.54776912      -2.02175993       2.57705260
C       -0.30353181      -0.67044428      -0.24876155      -0.26186490       1.24768356      -1.09714387
H        1.35279333      -0.73356923       0.97552502       0.00063620       0.00178686      -0.00063134
H       -0.03008706      -1.67181910      -0.57737271      -0.00084522       0.00054362       0.00048952
H       -0.87532675      -0.16355460      -1.02443586       0.00111303       0.00007870      -0.00017365
H       -0.90465735      -0.77549676       0.65294052       0.00041730      -0.00019001      -0.00040060
7
Properties=species:S:1:pos:R:3:forces:R:3 energy=-4188.152209962359 free_energy=-4188.152209962359 dipole="-0.45963578696638796 -0.45759145210368973 0.011620820445753325" pbc="F F F"
O        1.74273372       0.89401049       0.04555394      -1.33276550       0.86783072      -1.58362695
C        0.98245231      -0.02327729       0.18300422       1.60826130      -2.19464602       2.75625833
C       -0.30324555      -0.67005472      -0.25101717      -0.27625402       1.32491355      -1.17116596
H        1.34175716      -0.74586932       0.96984088       0.00055262       0.00150926      -0.00088976
H       -0.03000541      -1.67293152      -0.57448991       0.00024542       0.00000723      -0.00028272
H       -0.87962407      -0.16881069      -1.02731951       0.00049642      -0.00014596      -0.00001967
H       -0.89934586      -0.76940958       0.65442755      -0.00053623       0.00053122      -0.00027328
7
Properties=species:S:1:pos:R:3:forces:R:3 energy=-4188.078347700113 free_energy=-4188.078347700113 dipole="-0.46972460446186304 -0.4511053333839353 8.439741495840589e-05" pbc="F F F"
O        1.76779652       0.87672718       0.06877774      -1.37367862       0.97475514      -1.68057633
C        0.98616712      -0.02638098       0.18075879       1.66330299      -2.38671158       2.91927276
C       -0.30275335      -0.66846360      -0.25523821      -0.28797862       1.41417650      -1.23416813
H        1.32993676      -0.76404476       0.96294923       0.00070093       0.00229039      -0.00225002
H       -0.02841597      -1.66985693      -0.58138067       0.00049553      -0.00350709      -0.00161485
H       -0.88333065      -0.16699378      -1.02863690      -0.00095910      -0.00169276       0.00033279
H       -0.89426899      -0.76957631       0.65277002      -0.00188310       0.00068940      -0.00099622
7
Properties=species:S:1:pos:R:3:forces:R:3 energy=-4188.000195235426 free_energy=-4188.000195235426 dipole="-0.4807170200907681 -0.4429240732591895 -0.0036800946470060703" pbc="F F F"
O        1.79648419       0.85537017       0.06911639      -1.41052713       1.07557062      -1.78002453
C        0.99217520      -0.02933185       0.17010141       1.71744755      -2.55704011       3.09566165
C       -0.30399180      -0.66817345      -0.25374724      -0.30998505       1.48069807      -1.31716240
H        1.32260143      -0.77393503       0.95385132      -0.00012528       0.00267114      -0.00112431