30
Properties=species:S:1:pos:R:3:momenta:R:3:forces:R:3 Coordinates=T from=T ORCA-job=T orca=T E=T -908.914928737927=T energy=-24728.8980963568 free_energy=-24728.8980963568 stress="-1.7682506317215135e-06 3.2251202755792217e-07 -3.335228726256748e-07 3.2251202755792217e-07 -6.200639740208059e-07 -6.74909021625878e-07 -3.335228726256748e-07 -6.74909021625878e-07 -2.328768861834971e-06" pbc="F F F"
O        2.81256611       1.29114899      -0.56370865       0.04279781       0.08000544      -0.47209218      -0.39518804      -0.42664058       0.27662557
O       -0.51974709       0.48881336      -1.98494433       0.01273343      -0.25955524      -0.00678977       0.13466228       0.15625947       0.09405082
O        1.32153862      -2.82436259      -1.68217023      -0.66899784      -0.27941087      -0.29748204       0.28657006      -0.30685448      -0.36584320
O       -3.00534811      -1.48184222       1.20079119       0.27824232      -0.06543835       0.22625541      -0.12355285      -0.04684106       0.10729896
N        0.64398322      -1.98791178       0.32539978      -0.12759809      -0.42105434       0.15597046       0.86147129       1.02110943       0.01343111
N       -2.24610893       0.60848807       1.62947306       0.22560748       0.08824470       0.12667513       0.04806663       0.75024780       0.15774823
N        2.08180115      -0.81138187      -1.04026921      -0.06945752       0.25237686       0.16830694       0.60626299       1.26785603       0.42933713
N       -1.91550921      -0.34066410      -0.41545387      -0.79108971       0.19504221      -0.49675141       0.54061098       0.01227721      -0.98556017
C        1.41910695       0.21119977       0.99290645       1.34091832      -0.50288001       0.38437282      -2.06885050      -2.05468670       2.43409082
C       -0.83078683       1.72083459       0.04679272      -0.72864144       0.68538472      -0.23683100       0.08753951       0.39343976      -0.57628109
C        0.67256087      -0.94539988       1.24550188       0.05193580      -0.40030855      -0.06829722       3.30159856       1.66944983      -3.79623350
C       -1.45180857       1.66484480       1.23069105      -0.44341779       0.04396168       0.23383913      -0.57930672      -0.45814326      -0.13906104
C        1.52132968       1.31965645       2.01824034       0.54339778      -0.50782783      -0.25167824       0.78333485      -0.29753736      -0.30386163
C        0.00874580       2.85786743      -0.39426853       0.16054864      -0.06994818       0.26759848       1.02649427       0.37140007       0.52700194
C        2.11975724       0.32613439      -0.23444590       0.14263585      -0.09775634       0.10007380       1.39293024       0.10393651      -1.63845586
C       -0.99710006       0.61652764      -0.87965305      -0.29759757       0.43861652      -0.58130919      -0.80082048      -0.22523383      -0.02012406
C        1.36964683      -1.94981780      -0.85054894      -0.12392550       0.29566985      -0.09832879      -1.44738634      -1.01920007       0.70057692
C       -2.42923793      -0.47941492       0.82935684      -0.21558516       0.13792968       0.40380939      -0.35875820      -0.80025984       0.29727579
H        0.06321717      -1.05979299       2.01692801       0.11144792       0.11906559      -0.01775862      -1.64623501      -0.11078086       2.41724284
H       -1.41774066       2.47674876       1.90373167       0.10900732      -0.04682693       0.12362525       0.01844926       0.58319871       0.51356519
H        1.41770039       2.28203375       1.49399249       0.06896574      -0.06188681       0.00552290       0.01493510      -0.38736888       0.64830090
H        0.79138222       1.14387396       2.81906393      -0.14518939       0.06032767       0.03876015       0.21148206       0.37008551      -0.25529153
H        2.53679477       1.27875075       2.44328954       0.01888751       0.17526413      -0.05833092      -0.37484973       0.18598383      -0.01556059
H       -0.22532552       3.26311950      -1.35584102       0.17780940      -0.01426852       0.02667934      -0.51486575      -0.04447650      -0.50555705
H       -0.03588460       3.68666519       0.32722772       0.09103255      -0.06831052      -0.02316838       0.08397843      -0.27119322      -0.14611099
H        1.06569675       2.52976774      -0.51014397       0.03078983       0.09057959      -0.02416548      -0.54302570       0.22757818       0.15338781
H        0.09044655      -2.78727749       0.48000902      -0.00350062       0.11439861      -0.02228199      -0.39764267      -0.49937159       0.03943729
H       -2.73879813       0.61367790       2.50874217       0.03257248      -0.00838812       0.23334501       0.13740725      -0.04656904      -0.10602777
H        2.58671814      -0.76485247      -1.90960177       0.06258354       0.04014234       0.01601600      -0.01387517       0.08932037      -0.07256742
H       -1.89675941      -1.16163249      -0.99812274       0.11308692      -0.01314899       0.14441500      -0.27143661      -0.20698545       0.11716456
