7
Properties=species:S:1:pos:R:3:momenta:R:3:forces:R:3 Coordinates=T from=T ORCA-job=T orca=T E=T -153.876068333117=T energy=-4181.819041804064 free_energy=-4181.819041804064 stress="-1.1372710481160013e-05 -2.435700726915687e-05 1.972774210887259e-08 -2.435700726915687e-05 -4.1784123485502245e-05 2.4639699663623392e-08 1.972774210887259e-08 2.4639699663623392e-08 -6.084630378225083e-07" pbc="F F F"
O        0.11567004       0.89428153      -0.00156514       1.54214245       2.92839152      -0.09501619       3.06127940       5.18419934      -0.01169319
C        0.68378396      -0.40420510      -0.00031214      -0.31171146      -0.56321797      -0.00233007      -0.81206449      -0.44205768      -0.03351952
C       -0.75413190      -0.59145866       0.00146585      -1.22877870      -2.74554061      -0.00699348      -1.77896557      -4.99475264       0.18039352
H        1.25419177      -0.59933776       0.91040502       0.10169439       0.18952778       0.04281220       0.04574940       0.15810067      -0.15171538
H        1.24010403      -0.59594212      -0.91953595       0.01816916       0.19665179       0.03019124       0.08847730       0.11914134       0.14681989
H       -1.26710915      -0.68727505      -0.92398800      -0.06556296      -0.06703955      -0.01203443      -0.32720615       0.00030200      -0.27202337
H       -1.26824902      -0.64398252       0.93439171      -0.05595288       0.06122705       0.04337072      -0.27726988      -0.02493303       0.14173805
