
                                 *****************
                                 * O   R   C   A *
                                 *****************

                                            #,                                       
                                            ###                                      
                                            ####                                     
                                            #####                                    
                                            ######                                   
                                           ########,                                 
                                     ,,################,,,,,                         
                               ,,#################################,,                 
                          ,,##########################################,,             
                       ,#########################################, ''#####,          
                    ,#############################################,,   '####,        
                  ,##################################################,,,,####,       
                ,###########''''           ''''###############################       
              ,#####''   ,,,,##########,,,,          '''####'''          '####       
            ,##' ,,,,###########################,,,                        '##       
           ' ,,###''''                  '''############,,,                           
         ,,##''                                '''############,,,,        ,,,,,,###''
      ,#''                                            '''#######################'''  
     '                                                          ''''####''''         
             ,#######,   #######,   ,#######,      ##                                
            ,#'     '#,  ##    ##  ,#'     '#,    #''#        ,####,   ,####,        
            ##       ##  ##   ,#'  ##            #'  '#       #'       #'  '#        
            ##       ##  #######   ##           ,######,      #####,   #    #        
            '#,     ,#'  ##    ##  '#,     ,#' ,#      #,     #,   #   #,  ,#        
             '#######'   ##     ##  '#######'  #'      '#     '####' # '####'        



                #########################################################
                #                        -***-                          #
                #          Department of theory and spectroscopy        #
                #                                                       #
                #                      Frank Neese                      #
                #                                                       #
                #     Directorship, Architecture, Infrastructure        #
                #                    SHARK, DRIVERS                     #
                #        Core code/Algorithms in most modules           #
                #                                                       #
                #        Max Planck Institute fuer Kohlenforschung      #
                #                Kaiser Wilhelm Platz 1                 #
                #                 D-45470 Muelheim/Ruhr                 #
                #                      Germany                          #
                #                                                       #
                #                  All rights reserved                  #
                #                        -***-                          #
                #########################################################


                         Program Version 6.0.0  -   RELEASE  -


 With contributions from (in alphabetic order):
   Daniel Aravena         : Magnetic Suceptibility
   Michael Atanasov       : Ab Initio Ligand Field Theory (pilot matlab implementation)
   Alexander A. Auer      : GIAO ZORA, VPT2 properties, NMR spectrum
   Ute Becker             : All parallelization in ORCA, NUMFREQ, NUMCALC
   Giovanni Bistoni       : ED, misc. LED, open-shell LED, HFLD
   Martin Brehm           : Molecular dynamics
   Dmytro Bykov           : pre 5.0 version of the SCF Hessian
   Marcos Casanova-Páez   : Triplet and SCS-CIS(D). UHF-(DLPNO)-IP/EA/STEOM-CCSD. UHF-CVS-IP/STEOM-CCSD
   Vijay G. Chilkuri      : MRCI spin determinant printing, contributions to CSF-ICE
   Pauline Colinet        : FMM embedding
   Dipayan Datta          : RHF DLPNO-CCSD density
   Achintya Kumar Dutta   : EOM-CC, STEOM-CC
   Nicolas Foglia         : Exact transition moments, OPA infrastructure, MCD improvements
   Dmitry Ganyushin       : Spin-Orbit,Spin-Spin,Magnetic field MRCI
   Miquel Garcia          : C-PCM and meta-GGA Hessian, CCSD/C-PCM, Gaussian charge scheme
   Tiago L. C. Gouveia    : GS-ROHF, GS-ROCIS
   Yang Guo               : DLPNO-NEVPT2, F12-NEVPT2, CIM, IAO-localization
   Andreas Hansen         : Spin unrestricted coupled pair/coupled cluster methods
   Ingolf Harden          : AUTO-CI MPn and infrastructure 
   Benjamin Helmich-Paris : MC-RPA, TRAH-(SCF,CASSCF), AVAS, COSX integrals, SCF dyn. polar.
   Lee Huntington         : MR-EOM, pCC
   Robert Izsak           : Overlap fitted RIJCOSX, COSX-SCS-MP3, EOM
   Riya Kayal             : Wick's Theorem for AUTO-CI, AUTO-CI UHF-CCSDT
   Emily Kempfer          : AUTO-CI, RHF CISDT and CCSDT
   Christian Kollmar      : KDIIS, OOCD, Brueckner-CCSD(T), CCSD density, CASPT2, CASPT2-K, improved NEVPT2
   Axel Koslowski         : Symmetry handling
   Simone Kossmann        : Meta GGA functionals, TD-DFT gradient, OOMP2, (MP2 Hessian; deprecated post 5.0)
   Lucas Lang             : DCDCAS
   Marvin Lechner         : AUTO-CI (C++ implementation), FIC-MRCC
   Spencer Leger          : CASSCF response
   Dagmar Lenk            : GEPOL surface, SMD, ORCA-2-JSON
   Dimitrios Liakos       : Extrapolation schemes; Compound Job, initial MDCI parallelization
   Dimitrios Manganas     : Further ROCIS development; embedding schemes. LFT, Crystal Embedding
   Dimitrios Pantazis     : SARC Basis sets
   Anastasios Papadopoulos: AUTO-CI, single reference methods and gradients
   Taras Petrenko         : pre 6.0 DFT Hessian and TD-DFT gradient, (ASA, deprecated), ECA, 1-Electron XAS/XES, NRVS
   Peter Pinski           : DLPNO-MP2, DLPNO-MP2 Gradient
   Christoph Reimann      : Effective Core Potentials
   Marius Retegan         : Local ZFS, SOC
   Christoph Riplinger    : Optimizer, TS searches, QM/MM, DLPNO-CCSD(T), (RO)-DLPNO pert. Triples
   Michael Roemelt        : Original ROCIS implementation
   Masaaki Saitow         : Open-shell DLPNO-CCSD energy and density
   Barbara Sandhoefer     : DKH picture change effects
   Kantharuban Sivalingam : CASSCF convergence/infrastructure, NEVPT2 and variants, FIC-MRCI
   Bernardo de Souza      : ESD, SOC TD-DFT
   Georgi Stoychev        : AutoAux, RI-MP2 NMR, DLPNO-MP2 response, X2C
   Van Anh Tran           : RI-MP2 g-tensors
   Willem Van den Heuvel  : Paramagnetic NMR
   Zikuan Wang            : NOTCH, Electric field optimization 
   Frank Wennmohs         : Technical directorship and infrastructure
   Hang Xu                : AUTO-CI-Response properties 


 We gratefully acknowledge several colleagues who have allowed us to
 interface, adapt or use parts of their codes:
   Stefan Grimme, W. Hujo, H. Kruse, P. Pracht,  : VdW corrections, initial TS optimization,
                  C. Bannwarth, S. Ehlert,         DFT functionals, gCP, sTDA/sTD-DF
                  L. Wittmann, M. Mueller
   Ed Valeev, F. Pavosevic, A. Kumar             : LibInt (2-el integral package), F12 methods
   Garnet Chan, S. Sharma, J. Yang, R. Olivares  : DMRG
   Ulf Ekstrom                                   : XCFun DFT Library
   Mihaly Kallay                                 : mrcc  (arbitrary order and MRCC methods)
   Frank Weinhold                                : gennbo (NPA and NBO analysis)
   Simon Mueller                                 : openCOSMO-RS
   Christopher J. Cramer and Donald G. Truhlar   : smd solvation model
   Lars Goerigk                                  : TD-DFT with DH, B97 family of functionals
   V. Asgeirsson, H. Jonsson                     : NEB implementation
   FAccTs GmbH                                   : IRC, NEB, NEB-TS, DLPNO-Multilevel, CI-OPT
                                                   MM, QMMM, 2- and 3-layer-ONIOM, Crystal-QMMM,
                                                   LR-CPCM, SF, NACMEs, symmetry and pop. for TD-DFT,
                                                   nearIR, NL-DFT gradient (VV10), updates on ESD,
                                                   ML-optimized integration grids, MBIS, APM,
                                                   GOAT, DOCKER, SOLVATOR, interface openCOSMO-RS
   S Lehtola, MJT Oliveira, MAL Marques          : LibXC Library
   Liviu Ungur et al                             : ANISO software


 Your calculation uses the libint2 library for the computation of 2-el integrals
 For citations please refer to: http://libint.valeyev.net

 Your ORCA version has been built with support for libXC version: 6.2.2
 For citations please refer to: https://libxc.gitlab.io

 This ORCA versions uses:
   CBLAS   interface :  Fast vector & matrix operations
   LAPACKE interface :  Fast linear algebra routines
   SCALAPACK package :  Parallel linear algebra routines
   Shared memory     :  Shared parallel matrices
   BLAS/LAPACK       :  OpenBLAS 0.3.27  USE64BITINT DYNAMIC_ARCH NO_AFFINITY Zen SINGLE_THREADED
        Core in use  :  Zen
   Copyright (c) 2011-2014, The OpenBLAS Project


Your calculation utilizes the atom-pairwise dispersion correction
with the Becke-Johnson damping scheme (D3BJ)


Warning: RI is on but no J-basis has been assigned. Assigning Def2/J (nothing to worry about!)
================================================================================

----- Orbital basis set information -----
Your calculation utilizes the basis: def2-TZVPPD
   F. Weigend and R. Ahlrichs, Phys. Chem. Chem. Phys. 7, 3297 (2005).
   D. Rappoport and F. Furche, J. Chem. Phys. 133, 134105 (2010)
   D. Rappoport, J. Chem. Phys. 155, 124102 (2021).

----- AuxJ basis set information -----
Your calculation utilizes the auxiliary basis: def2/J
   F. Weigend, Phys. Chem. Chem. Phys. 8, 1057 (2006).

================================================================================
                                        WARNINGS
                       Please study these warnings very carefully!
================================================================================

Using LibXC functional ID 531 : wB97M-V exchange-correlation functional
[ 1]  N. Mardirossian and M. Head-Gordon.,  J. Chem. Phys. 144, 214110 (2016)
Using LibXC functional ID 531 : wB97M-V exchange-correlation functional
[ 1]  N. Mardirossian and M. Head-Gordon.,  J. Chem. Phys. 144, 214110 (2016)

WARNING: B97M-V or wB97M-V functional requested.
  ===> : libXC variant has now been activated.
         Any manually given DFX/HFX/RangeSep scaling parameters are IGNORED!

Your calculation utilizes LibXC
 by S Lehtola, C Steigemann, MJT Oliveira & MAL Marques
Please cite in your paper:
 S Lehtola, C Steigemann, MJT Oliveira & MAL Marques, SoftwareX, 7, (2018), 1.
   


WARNING: your system is open-shell and RHF/RKS was chosen
  ===> : WILL SWITCH to UHF/UKS

INFO   : Checking CIS options ...

WARNING: CIS/ROCIS methods need fully converged wavefunctions
  ===> : Setting SCFConvForced true
         You can overwrite this default with %scf ConvForced false 


================================================================================
                                       INPUT FILE
================================================================================
NAME = orca.inp
|  1> ! Engrad def2-TZVPPD wB97M-D3BJ 
|  2> %pal nprocs 8 end%pal nprocs 64 end 
|  3> %tddft Nroots 2 Iroot 1 
|  4> sf true 
|  5> end 
|  6> *xyz 0 3 
|  7> O   2.51292217 1.24345452 -0.3629759
|  8> O   -0.78375297 0.83737716 -2.40193936
|  9> O   0.57212356 -2.68780841 -1.56335924
| 10> O   -2.47791866 -1.56822603 1.067875
| 11> N   0.59679391 -2.11072033 0.63955497
| 12> N   -1.8528595 0.58963453 1.42816001
| 13> N   1.61980403 -0.76435085 -0.9243066
| 14> N   -1.6870084 -0.32068056 -0.67017509
| 15> C   1.43717414 0.00411554 1.35420213
| 16> C   -0.8479379 1.9132358 -0.29778195
| 17> C   0.8146196 -1.15362316 1.60199001
| 18> C   -1.24814896 1.73981425 1.00362376
| 19> C   1.7131664 1.04912935 2.38412181
| 20> C   -0.18659979 3.14837204 -0.78633088
| 21> C   1.91604844 0.24436401 -0.01139556
| 22> C   -1.08572268 0.8225085 -1.22249811
| 23> C   0.90911816 -1.91919626 -0.68824416
| 24> C   -2.04553278 -0.52174719 0.63572987
| 25> H   0.44376456 -1.40383284 2.58295358
| 26> H   -1.11020408 2.50114328 1.74064823
| 27> H   1.35851691 2.01188539 2.04961609
| 28> H   1.22970948 0.79628837 3.33646479
| 29> H   2.77800136 1.15132932 2.55781691
| 30> H   -0.73806434 3.57115813 -1.63140267
| 31> H   -0.12039863 3.89808899 -0.00096804
| 32> H   0.81965355 2.91262904 -1.13598635
| 33> H   -0.02084619 -2.88011623 0.83220667
| 34> H   -2.10971437 0.48026724 2.39636344
| 35> H   1.82494467 -0.56613512 -1.89406535
| 36> H   -1.79748096 -1.11836218 -1.28405647
| 37> *
| 38> 
| 39>                          ****END OF INPUT****
================================================================================

                     *******************************
                     * Energy+Gradient Calculation *
                     *******************************

---------------------------------
CARTESIAN COORDINATES (ANGSTROEM)
---------------------------------
  O      2.512922    1.243455   -0.362976
  O     -0.783753    0.837377   -2.401939
  O      0.572124   -2.687808   -1.563359
  O     -2.477919   -1.568226    1.067875
  N      0.596794   -2.110720    0.639555
  N     -1.852859    0.589635    1.428160
  N      1.619804   -0.764351   -0.924307
  N     -1.687008   -0.320681   -0.670175
  C      1.437174    0.004116    1.354202
  C     -0.847938    1.913236   -0.297782
  C      0.814620   -1.153623    1.601990
  C     -1.248149    1.739814    1.003624
  C      1.713166    1.049129    2.384122
  C     -0.186600    3.148372   -0.786331
  C      1.916048    0.244364   -0.011396
  C     -1.085723    0.822508   -1.222498
  C      0.909118   -1.919196   -0.688244
  C     -2.045533   -0.521747    0.635730
  H      0.443765   -1.403833    2.582954
  H     -1.110204    2.501143    1.740648
  H      1.358517    2.011885    2.049616
  H      1.229709    0.796288    3.336465
  H      2.778001    1.151329    2.557817
  H     -0.738064    3.571158   -1.631403
  H     -0.120399    3.898089   -0.000968
  H      0.819654    2.912629   -1.135986
  H     -0.020846   -2.880116    0.832207
  H     -2.109714    0.480267    2.396363
  H      1.824945   -0.566135   -1.894065
  H     -1.797481   -1.118362   -1.284056

----------------------------
CARTESIAN COORDINATES (A.U.)
----------------------------
  NO LB      ZA    FRAG     MASS         X           Y           Z
   0 O     8.0000    0    15.999    4.748735    2.349789   -0.685925
   1 O     8.0000    0    15.999   -1.481078    1.582414   -4.539008
   2 O     8.0000    0    15.999    1.081157   -5.079222   -2.954321
   3 O     8.0000    0    15.999   -4.682588   -2.963518    2.017991
   4 N     7.0000    0    14.007    1.127777   -3.988683    1.208584
   5 N     7.0000    0    14.007   -3.501397    1.114248    2.698831
   6 N     7.0000    0    14.007    3.060986   -1.444414   -1.746686
   7 N     7.0000    0    14.007   -3.187984   -0.605998   -1.266447
   8 C     6.0000    0    12.011    2.715866    0.007777    2.559071
   9 C     6.0000    0    12.011   -1.602370    3.615492   -0.562726
  10 C     6.0000    0    12.011    1.539408   -2.180032    3.027322
  11 C     6.0000    0    12.011   -2.358660    3.287772    1.896574
  12 C     6.0000    0    12.011    3.237415    1.982567    4.505337
  13 C     6.0000    0    12.011   -0.352622    5.949561   -1.485950
  14 C     6.0000    0    12.011    3.620807    0.461781   -0.021534
  15 C     6.0000    0    12.011   -2.051719    1.554316   -2.310187
  16 C     6.0000    0    12.011    1.717984   -3.626755   -1.300593
  17 C     6.0000    0    12.011   -3.865497   -0.985959    1.201355
  18 H     1.0000    0     1.008    0.838593   -2.652860    4.881075
  19 H     1.0000    0     1.008   -2.097982    4.726476    3.289348
  20 H     1.0000    0     1.008    2.567225    3.801912    3.873213
  21 H     1.0000    0     1.008    2.323814    1.504767    6.305005
  22 H     1.0000    0     1.008    5.249662    2.175697    4.833573
  23 H     1.0000    0     1.008   -1.394739    6.748511   -3.082904
  24 H     1.0000    0     1.008   -0.227520    7.366321   -0.001829
  25 H     1.0000    0     1.008    1.548921    5.504071   -2.146703
  26 H     1.0000    0     1.008   -0.039394   -5.442631    1.572643
  27 H     1.0000    0     1.008   -3.986782    0.907574    4.528471
  28 H     1.0000    0     1.008    3.448646   -1.069840   -3.579265
  29 H     1.0000    0     1.008   -3.396747   -2.113398   -2.426515

--------------------------------
INTERNAL COORDINATES (ANGSTROEM)
--------------------------------
 O      0   0   0     0.000000000000     0.00000000     0.00000000
 O      1   0   0     3.897478388935     0.00000000     0.00000000
 O      2   1   0     3.868921178468    71.64589569     0.00000000
 O      3   2   1     4.180863053861    68.70011072    99.47288343
 N      3   2   1     2.277382333924    89.00130604    54.79478348
 N      4   3   2     2.275272827231    98.81308227   317.41523477
 N      1   2   3     2.268046421606    56.30358135     0.23077236
 N      2   1   3     2.270677331002    89.46261523    59.08284961
 C      1   2   3     2.375267420336    86.60394252   301.28707536
 C      2   1   3     2.364121385327    60.65463784   117.77699497
 C      9   1   2     1.337659106883   142.77690373    55.76077054
 C      6   4   3     1.367047641105   150.49227184    28.88290908
 C      9   1   2     1.492970240133    92.85337863   233.49341089
 C     10   2   1     1.483782222600    94.22443959    72.91596081
 C      1   2   3     1.215750316558    69.53693580   327.44181125
 C      2   1   3     1.217574821113    72.79962575    87.40482981
 C      3   2   1     1.212500062186    71.11026408    29.62008684
 C      4   3   2     1.211950875726    75.31801031   337.23709631
 H     11   9   1     1.078159482788   121.97053940   178.62257576
 H     12   6   4     1.068576506956   116.25416447   189.70491209
 H     13   9   1     1.079152227457   110.47968705    53.37625325
 H     13   9   1     1.097550138362   110.84872202   174.63230678
 H     13   9   1     1.083738120429   110.99026242   295.14100938
 H     14  10   2     1.094078405809   110.56916792    55.87492617
 H     14  10   2     1.087774282264   111.29241598   176.89798779
 H     14  10   2     1.091045138393   109.67775514   297.48683408
 H      5   3   2     1.005268134170    89.12774759   121.56449134
 H      6   4   3     1.007647512888    88.80736021   219.27602169
 H      7   1   2     1.010843306849    89.07933320    67.47265838
 H      8   2   1     1.012595922424    89.01436555   240.56427524

---------------------------
INTERNAL COORDINATES (A.U.)
---------------------------
 O      0   0   0     0.000000000000     0.00000000     0.00000000
 O      1   0   0     7.365166767963     0.00000000     0.00000000
 O      2   1   0     7.311201461033    71.64589569     0.00000000
 O      3   2   1     7.900686175226    68.70011072    99.47288343
 N      3   2   1     4.303628913346    89.00130604    54.79478348
 N      4   3   2     4.299642523419    98.81308227   317.41523477
 N      1   2   3     4.285986595856    56.30358135     0.23077236
 N      2   1   3     4.290958294096    89.46261523    59.08284961
 C      1   2   3     4.488604919261    86.60394252   301.28707536
 C      2   1   3     4.467541965614    60.65463784   117.77699497
 C      9   1   2     2.527809372555   142.77690373    55.76077054
 C      6   4   3     2.583345653711   150.49227184    28.88290908
 C      9   1   2     2.821304879945    92.85337863   233.49341089
 C     10   2   1     2.803942043095    94.22443959    72.91596081
 C      1   2   3     2.297435145523    69.53693580   327.44181125
 C      2   1   3     2.300882959462    72.79962575    87.40482981
 C      3   2   1     2.291293054893    71.11026408    29.62008684
 C      4   3   2     2.290255242889    75.31801031   337.23709631
 H     11   9   1     2.037426151160   121.97053940   178.62257576
 H     12   6   4     2.019316951289   116.25416447   189.70491209
 H     13   9   1     2.039302166706   110.47968705    53.37625325
 H     13   9   1     2.074069179752   110.84872202   174.63230678
 H     13   9   1     2.047968248501   110.99026242   295.14100938
 H     14  10   2     2.067508556017   110.56916792    55.87492617
 H     14  10   2     2.055595489002   111.29241598   176.89798779
 H     14  10   2     2.061776511309   109.67775514   297.48683408
 H      5   3   2     1.899681464739    89.12774759   121.56449134
 H      6   4   3     1.904177838884    88.80736021   219.27602169
 H      7   1   2     1.910217014251    89.07933320    67.47265838
 H      8   2   1     1.913528977707    89.01436555   240.56427524

---------------------
BASIS SET INFORMATION
---------------------
There are 4 groups of distinct atoms

 Group   1 Type O   : 12s7p3d1f contracted to 6s4p3d1f pattern {621111/4111/111/1}
 Group   2 Type N   : 12s6p3d1f contracted to 6s3p3d1f pattern {621111/411/111/1}
 Group   3 Type C   : 12s6p3d1f contracted to 6s3p3d1f pattern {621111/411/111/1}
 Group   4 Type H   : 5s3p1d contracted to 3s3p1d pattern {311/111/1}

Atom   0O    basis set group =>   1
Atom   1O    basis set group =>   1
Atom   2O    basis set group =>   1
Atom   3O    basis set group =>   1
Atom   4N    basis set group =>   2
Atom   5N    basis set group =>   2
Atom   6N    basis set group =>   2
Atom   7N    basis set group =>   2
Atom   8C    basis set group =>   3
Atom   9C    basis set group =>   3
Atom  10C    basis set group =>   3
Atom  11C    basis set group =>   3
Atom  12C    basis set group =>   3
Atom  13C    basis set group =>   3
Atom  14C    basis set group =>   3
Atom  15C    basis set group =>   3
Atom  16C    basis set group =>   3
Atom  17C    basis set group =>   3
Atom  18H    basis set group =>   4
Atom  19H    basis set group =>   4
Atom  20H    basis set group =>   4
Atom  21H    basis set group =>   4
Atom  22H    basis set group =>   4
Atom  23H    basis set group =>   4
Atom  24H    basis set group =>   4
Atom  25H    basis set group =>   4
Atom  26H    basis set group =>   4
Atom  27H    basis set group =>   4
Atom  28H    basis set group =>   4
Atom  29H    basis set group =>   4
---------------------------------
AUXILIARY/J BASIS SET INFORMATION
---------------------------------
There are 4 groups of distinct atoms

 Group   1 Type O   : 12s5p4d2f1g contracted to 6s4p3d1f1g pattern {711111/2111/211/2/1}
 Group   2 Type N   : 12s5p4d2f1g contracted to 6s4p3d1f1g pattern {711111/2111/211/2/1}
 Group   3 Type C   : 12s5p4d2f1g contracted to 6s4p3d1f1g pattern {711111/2111/211/2/1}
 Group   4 Type H   : 5s2p1d contracted to 3s1p1d pattern {311/2/1}

Atom   0O    basis set group =>   1
Atom   1O    basis set group =>   1
Atom   2O    basis set group =>   1
Atom   3O    basis set group =>   1
Atom   4N    basis set group =>   2
Atom   5N    basis set group =>   2
Atom   6N    basis set group =>   2
Atom   7N    basis set group =>   2
Atom   8C    basis set group =>   3
Atom   9C    basis set group =>   3
Atom  10C    basis set group =>   3
Atom  11C    basis set group =>   3
Atom  12C    basis set group =>   3
Atom  13C    basis set group =>   3
Atom  14C    basis set group =>   3
Atom  15C    basis set group =>   3
Atom  16C    basis set group =>   3
Atom  17C    basis set group =>   3
Atom  18H    basis set group =>   4
Atom  19H    basis set group =>   4
Atom  20H    basis set group =>   4
Atom  21H    basis set group =>   4
Atom  22H    basis set group =>   4
Atom  23H    basis set group =>   4
Atom  24H    basis set group =>   4
Atom  25H    basis set group =>   4
Atom  26H    basis set group =>   4
Atom  27H    basis set group =>   4
Atom  28H    basis set group =>   4
Atom  29H    basis set group =>   4
[1739872057.125718] [ohm:4130578:0]        ib_iface.c:1059 UCX  ERROR ibv_create_cq(cqe=256) failed: Connection timed out
[1739872057.140332] [ohm:4130587:0]        ib_iface.c:1059 UCX  ERROR ibv_create_cq(cqe=256) failed: Connection timed out
[1739872057.145424] [ohm:4130577:0]        ib_iface.c:1059 UCX  ERROR ibv_create_cq(cqe=256) failed: Connection timed out
[1739872057.157279] [ohm:4130582:0]        ib_iface.c:1059 UCX  ERROR ibv_create_cq(cqe=256) failed: Connection timed out
[1739872057.160233] [ohm:4130589:0]        ib_iface.c:1059 UCX  ERROR ibv_create_cq(cqe=256) failed: Connection timed out
[1739872057.163364] [ohm:4130576:0]        ib_iface.c:1059 UCX  ERROR ibv_create_cq(cqe=256) failed: Connection timed out
[1739872057.167278] [ohm:4130590:0]        ib_iface.c:1059 UCX  ERROR ibv_create_cq(cqe=256) failed: Connection timed out
[1739872057.188966] [ohm:4130703:0]        ib_iface.c:1059 UCX  ERROR ibv_create_cq(cqe=256) failed: Connection timed out
[1739872057.190176] [ohm:4130599:0]        ib_iface.c:1059 UCX  ERROR ibv_create_cq(cqe=256) failed: Connection timed out
[1739872057.193497] [ohm:4130719:0]        ib_iface.c:1059 UCX  ERROR ibv_create_cq(cqe=256) failed: Connection timed out
[1739872057.195257] [ohm:4130621:0]        ib_iface.c:1059 UCX  ERROR ibv_create_cq(cqe=256) failed: Connection timed out
[1739872057.196011] [ohm:4130592:0]        ib_iface.c:1059 UCX  ERROR ibv_create_cq(cqe=256) failed: Connection timed out
[1739872057.198156] [ohm:4130591:0]        ib_iface.c:1059 UCX  ERROR ibv_create_cq(cqe=256) failed: Connection timed out
[1739872057.203061] [ohm:4130596:0]        ib_iface.c:1059 UCX  ERROR ibv_create_cq(cqe=256) failed: Connection timed out
[1739872057.238964] [ohm:4130616:0]        ib_iface.c:1059 UCX  ERROR ibv_create_cq(cqe=256) failed: Connection timed out
[1739872057.243888] [ohm:4130606:0]        ib_iface.c:1059 UCX  ERROR ibv_create_cq(cqe=256) failed: Connection timed out
[1739872057.247773] [ohm:4130711:0]        ib_iface.c:1059 UCX  ERROR ibv_create_cq(cqe=256) failed: Connection timed out
[1739872057.250417] [ohm:4130706:0]        ib_iface.c:1059 UCX  ERROR ibv_create_cq(cqe=256) failed: Connection timed out
[1739872057.254242] [ohm:4130722:0]        ib_iface.c:1059 UCX  ERROR ibv_create_cq(cqe=256) failed: Connection timed out
[1739872057.258579] [ohm:4130700:0]        ib_iface.c:1059 UCX  ERROR ibv_create_cq(cqe=256) failed: Connection timed out
[1739872057.290713] [ohm:4130602:0]        ib_iface.c:1059 UCX  ERROR ibv_create_cq(cqe=256) failed: Connection timed out
[1739872057.304616] [ohm:4130699:0]        ib_iface.c:1059 UCX  ERROR ibv_create_cq(cqe=256) failed: Connection timed out
[1739872057.333996] [ohm:4130672:0]        ib_iface.c:1059 UCX  ERROR ibv_create_cq(cqe=256) failed: Connection timed out
[1739872057.335877] [ohm:4130595:0]        ib_iface.c:1059 UCX  ERROR ibv_create_cq(cqe=256) failed: Connection timed out
[1739872057.338884] [ohm:4130657:0]        ib_iface.c:1059 UCX  ERROR ibv_create_cq(cqe=256) failed: Connection timed out
[1739872057.362424] [ohm:4130644:0]        ib_iface.c:1059 UCX  ERROR ibv_create_cq(cqe=256) failed: Connection timed out
[1739872057.373722] [ohm:4130697:0]        ib_iface.c:1059 UCX  ERROR ibv_create_cq(cqe=256) failed: Connection timed out
[1739872057.374337] [ohm:4130686:0]        ib_iface.c:1059 UCX  ERROR ibv_create_cq(cqe=256) failed: Connection timed out
[1739872057.376402] [ohm:4130708:0]        ib_iface.c:1059 UCX  ERROR ibv_create_cq(cqe=256) failed: Connection timed out
[1739872057.378064] [ohm:4130630:0]        ib_iface.c:1059 UCX  ERROR ibv_create_cq(cqe=256) failed: Connection timed out
[1739872057.381144] [ohm:4130652:0]        ib_iface.c:1059 UCX  ERROR ibv_create_cq(cqe=256) failed: Connection timed out
[1739872057.390962] [ohm:4130667:0]        ib_iface.c:1059 UCX  ERROR ibv_create_cq(cqe=256) failed: Connection timed out
[1739872057.394426] [ohm:4130675:0]        ib_iface.c:1059 UCX  ERROR ibv_create_cq(cqe=256) failed: Connection timed out
[1739872057.395079] [ohm:4130666:0]        ib_iface.c:1059 UCX  ERROR ibv_create_cq(cqe=256) failed: Connection timed out
[1739872057.395669] [ohm:4130660:0]        ib_iface.c:1059 UCX  ERROR ibv_create_cq(cqe=256) failed: Connection timed out
[1739872057.395954] [ohm:4130614:0]        ib_iface.c:1059 UCX  ERROR ibv_create_cq(cqe=256) failed: Connection timed out
[1739872057.396411] [ohm:4130600:0]        ib_iface.c:1059 UCX  ERROR ibv_create_cq(cqe=256) failed: Connection timed out
[1739872057.396537] [ohm:4130635:0]        ib_iface.c:1059 UCX  ERROR ibv_create_cq(cqe=256) failed: Connection timed out
[1739872057.407245] [ohm:4130689:0]        ib_iface.c:1059 UCX  ERROR ibv_create_cq(cqe=256) failed: Connection timed out
[1739872057.416992] [ohm:4130593:0]        ib_iface.c:1059 UCX  ERROR ibv_create_cq(cqe=256) failed: Connection timed out
[1739872057.419226] [ohm:4130627:0]        ib_iface.c:1059 UCX  ERROR ibv_create_cq(cqe=256) failed: Connection timed out
[1739872057.420558] [ohm:4130598:0]        ib_iface.c:1059 UCX  ERROR ibv_create_cq(cqe=256) failed: Connection timed out
[1739872057.427054] [ohm:4130655:0]        ib_iface.c:1059 UCX  ERROR ibv_create_cq(cqe=256) failed: Connection timed out
[1739872057.427391] [ohm:4130649:0]        ib_iface.c:1059 UCX  ERROR ibv_create_cq(cqe=256) failed: Connection timed out
[1739872057.431205] [ohm:4130662:0]        ib_iface.c:1059 UCX  ERROR ibv_create_cq(cqe=256) failed: Connection timed out
[1739872057.432420] [ohm:4130581:0]        ib_iface.c:1059 UCX  ERROR ibv_create_cq(cqe=256) failed: Connection timed out
[1739872057.439646] [ohm:4130679:0]        ib_iface.c:1059 UCX  ERROR ibv_create_cq(cqe=256) failed: Connection timed out
[1739872057.441621] [ohm:4130682:0]        ib_iface.c:1059 UCX  ERROR ibv_create_cq(cqe=256) failed: Connection timed out
[1739872057.450944] [ohm:4130622:0]        ib_iface.c:1059 UCX  ERROR ibv_create_cq(cqe=256) failed: Connection timed out
[1739872057.453793] [ohm:4130585:0]        ib_iface.c:1059 UCX  ERROR ibv_create_cq(cqe=256) failed: Connection timed out
[1739872057.459060] [ohm:4130641:0]        ib_iface.c:1059 UCX  ERROR ibv_create_cq(cqe=256) failed: Connection timed out
[1739872057.460083] [ohm:4130628:0]        ib_iface.c:1059 UCX  ERROR ibv_create_cq(cqe=256) failed: Connection timed out
[1739872057.461449] [ohm:4130603:0]        ib_iface.c:1059 UCX  ERROR ibv_create_cq(cqe=256) failed: Connection timed out
[1739872057.464766] [ohm:4130714:0]        ib_iface.c:1059 UCX  ERROR ibv_create_cq(cqe=256) failed: Connection timed out
[1739872057.465345] [ohm:4130588:0]        ib_iface.c:1059 UCX  ERROR ibv_create_cq(cqe=256) failed: Connection timed out
[1739872057.466368] [ohm:4130609:0]        ib_iface.c:1059 UCX  ERROR ibv_create_cq(cqe=256) failed: Connection timed out
[1739872057.467986] [ohm:4130594:0]        ib_iface.c:1059 UCX  ERROR ibv_create_cq(cqe=256) failed: Connection timed out
[1739872057.469176] [ohm:4130597:0]        ib_iface.c:1059 UCX  ERROR ibv_create_cq(cqe=256) failed: Connection timed out
[1739872057.469434] [ohm:4130580:0]        ib_iface.c:1059 UCX  ERROR ibv_create_cq(cqe=256) failed: Connection timed out
[1739872057.472365] [ohm:4130586:0]        ib_iface.c:1059 UCX  ERROR ibv_create_cq(cqe=256) failed: Connection timed out
[1739872057.472816] [ohm:4130579:0]        ib_iface.c:1059 UCX  ERROR ibv_create_cq(cqe=256) failed: Connection timed out
[1739872057.473340] [ohm:4130694:0]        ib_iface.c:1059 UCX  ERROR ibv_create_cq(cqe=256) failed: Connection timed out
[1739872057.474097] [ohm:4130583:0]        ib_iface.c:1059 UCX  ERROR ibv_create_cq(cqe=256) failed: Connection timed out
[1739872057.474568] [ohm:4130584:0]        ib_iface.c:1059 UCX  ERROR ibv_create_cq(cqe=256) failed: Connection timed out


           ************************************************************
           *        Program running with 64 parallel MPI-processes    *
           *              working on a common directory               *
           ************************************************************
------------------------------------------------------------------------------
                             ORCA STARTUP CALCULATIONS
                           -- RI-GTO INTEGRALS CHOSEN --
------------------------------------------------------------------------------
------------------------------------------------------------------------------
                   ___                                                        
                  /   \      - P O W E R E D   B Y -                         
                 /     \                                                     
                 |  |  |   _    _      __       _____    __    __             
                 |  |  |  | |  | |    /  \     |  _  \  |  |  /  |          
                  \  \/   | |  | |   /    \    | | | |  |  | /  /          
                 / \  \   | |__| |  /  /\  \   | |_| |  |  |/  /          
                |  |  |   |  __  | /  /__\  \  |    /   |      \           
                |  |  |   | |  | | |   __   |  |    \   |  |\   \          
                \     /   | |  | | |  |  |  |  | |\  \  |  | \   \       
                 \___/    |_|  |_| |__|  |__|  |_| \__\ |__|  \__/        
                                                                              
                      - O R C A' S   B I G   F R I E N D -                    
                                      &                                       
                       - I N T E G R A L  F E E D E R -                       
                                                                              
 v1 FN, 2020, v2 2021, v3 2022-2024                                           
------------------------------------------------------------------------------


----------------------
SHARK INTEGRAL PACKAGE
----------------------

Number of atoms                             ...     30
Number of basis functions                   ...    882
Number of shells                            ...    322
Maximum angular momentum                    ...      3
Integral batch strategy                     ... SHARK/LIBINT Hybrid
RI-J (if used) integral strategy            ... SPLIT-RIJ (Revised 2003 algorithm where possible)
Printlevel                                  ...      1
Contraction scheme used                     ... SEGMENTED contraction
Prescreening option                         ... SCHWARTZ
   Thresh                                   ... 2.500e-11
   Tcut                                     ... 2.500e-12
   Tpresel                                  ... 2.500e-12 
Coulomb Range Separation                    ... NOT USED
Exchange Range Separation                   ... Long Range
   Mu parameter                             ... 3.000e-01
   Scaling (regular/separated)              ... 1.500e-01 8.500e-01
Multipole approximations                    ... NOT USED
Finite Nucleus Model                        ... NOT USED
CABS basis                                  ... NOT available
Auxiliary Coulomb fitting basis             ... AVAILABLE
   # of basis functions in Aux-J            ...   1014
   # of shells in Aux-J                     ...    330
   Maximum angular momentum in Aux-J        ...      4
Auxiliary J/K fitting basis                 ... NOT available
Auxiliary Correlation fitting basis         ... NOT available
Auxiliary 'external' fitting basis          ... NOT available

Checking pre-screening integrals            ... done (  0.0 sec) Dimension = 322
Check shell pair data                       ... done (  0.0 sec)
Shell pair information
Shell pair cut-off parameter TPreSel        ...   2.5e-12
Total number of shell pairs                 ...     52003
Shell pairs after pre-screening             ...     45360
Total number of primitive shell pairs       ...    129718
Primitive shell pairs kept                  ...     84422
          la=0 lb=0:   8757 shell pairs
          la=1 lb=0:  11978 shell pairs
          la=1 lb=1:   4150 shell pairs
          la=2 lb=0:   8152 shell pairs
          la=2 lb=1:   5630 shell pairs
          la=2 lb=2:   1941 shell pairs
          la=3 lb=0:   2071 shell pairs
          la=3 lb=1:   1502 shell pairs
          la=3 lb=2:   1033 shell pairs
          la=3 lb=3:    146 shell pairs

Calculating one electron integrals          ... done (  0.2 sec)
Calculating RI/J V-Matrix + Cholesky decomp.... done (  0.0 sec)
Calculating Nuclear repulsion               ... done (  0.0 sec) ENN=   1454.815168093045 Eh

Diagonalization of the overlap matrix:
Smallest eigenvalue                        ... 4.853e-07
Time for diagonalization                   ...    0.129 sec
Threshold for overlap eigenvalues          ... 1.000e-07
Number of eigenvalues below threshold      ... 0

IMPORTANT:
Smallest eigenvalue of S below the DiffSThresh (1.000e-06) while
Thresh>1e-12 and/or TCut>1e-13! In order to avoid SCF convergence issues,
Thresh will be set to at least 1e-12 and TCut to at least 1e-13.
This can be turned off by adding %SCF DiffSThresh -1 END to the input.

Time for construction of square roots      ...    0.129 sec
Total time needed                          ...    0.270 sec

-------------------
DFT GRID GENERATION
-------------------

General Integration Accuracy     IntAcc      ... 4.388
Radial Grid Type                 RadialGrid  ... OptM3 with GC (2021)
Angular Grid (max. ang.)         AngularGrid ... 4 (Lebedev-302)
Angular grid pruning method      GridPruning ... 4 (adaptive)
Weight generation scheme         WeightScheme... mBecke (2022)
Basis function cutoff            BFCut       ... 1.0000e-11
Integration weight cutoff        WCut        ... 1.0000e-14
Partially contracted basis set               ... off
Rotationally invariant grid construction     ... off
Angular grids for H and He will be reduced by one unit
Diffuse basis detected: some atoms will have their outermost
                        angular grid increased by 1.

Total number of grid points                  ...   152133
Total number of batches                      ...     2391
Average number of points per batch           ...       63
Average number of grid points per atom       ...     5071

--------------------
COSX GRID GENERATION
--------------------

GRIDX 1
-------
General Integration Accuracy     IntAcc      ... 3.816
Radial Grid Type                 RadialGrid  ... OptM3 with GC (2021)
Angular Grid (max. ang.)         AngularGrid ... 1 (Lebedev-50)
Angular grid pruning method      GridPruning ... 4 (adaptive)
Weight generation scheme         WeightScheme... mBecke (2022)
Basis function cutoff            BFCut       ... 1.0000e-11
Integration weight cutoff        WCut        ... 1.0000e-14
Partially contracted basis set               ... on
Rotationally invariant grid construction     ... off
Angular grids for H and He will be reduced by one unit
Diffuse basis detected: some atoms will have their outermost
                        angular grid increased by 1.

Total number of grid points                  ...    19043
Total number of batches                      ...      166
Average number of points per batch           ...      114
Average number of grid points per atom       ...      635
UseSFitting                                  ... on

GRIDX 2
-------
General Integration Accuracy     IntAcc      ... 4.020
Radial Grid Type                 RadialGrid  ... OptM3 with GC (2021)
Angular Grid (max. ang.)         AngularGrid ... 2 (Lebedev-110)
Angular grid pruning method      GridPruning ... 4 (adaptive)
Weight generation scheme         WeightScheme... mBecke (2022)
Basis function cutoff            BFCut       ... 1.0000e-11
Integration weight cutoff        WCut        ... 1.0000e-14
Partially contracted basis set               ... on
Rotationally invariant grid construction     ... off
Angular grids for H and He will be reduced by one unit
Diffuse basis detected: some atoms will have their outermost
                        angular grid increased by 1.

Total number of grid points                  ...    45855
Total number of batches                      ...      375
Average number of points per batch           ...      122
Average number of grid points per atom       ...     1528
UseSFitting                                  ... on

GRIDX 3
-------
General Integration Accuracy     IntAcc      ... 4.338
Radial Grid Type                 RadialGrid  ... OptM3 with GC (2021)
Angular Grid (max. ang.)         AngularGrid ... 3 (Lebedev-194)
Angular grid pruning method      GridPruning ... 4 (adaptive)
Weight generation scheme         WeightScheme... mBecke (2022)
Basis function cutoff            BFCut       ... 1.0000e-11
Integration weight cutoff        WCut        ... 1.0000e-14
Partially contracted basis set               ... on
Rotationally invariant grid construction     ... off
Angular grids for H and He will be reduced by one unit
Diffuse basis detected: some atoms will have their outermost
                        angular grid increased by 1.

Total number of grid points                  ...   100990
Total number of batches                      ...      805
Average number of points per batch           ...      125
Average number of grid points per atom       ...     3366
UseSFitting                                  ... on
Initializing property integral containers    ... done (  0.0 sec)

SHARK setup successfully completed in   4.2 seconds

Maximum memory used throughout the entire STARTUP-calculation: 80.4 MB
[1739872063.442549] [ohm:4130954:0]        ib_iface.c:1059 UCX  ERROR ibv_create_cq(cqe=256) failed: Connection timed out
[1739872063.445054] [ohm:4130955:0]        ib_iface.c:1059 UCX  ERROR ibv_create_cq(cqe=256) failed: Connection timed out
[1739872063.465907] [ohm:4130952:0]        ib_iface.c:1059 UCX  ERROR ibv_create_cq(cqe=256) failed: Connection timed out
[1739872063.527828] [ohm:4130958:0]        ib_iface.c:1059 UCX  ERROR ibv_create_cq(cqe=256) failed: Connection timed out
[1739872063.529117] [ohm:4130959:0]        ib_iface.c:1059 UCX  ERROR ibv_create_cq(cqe=256) failed: Connection timed out
[1739872063.531989] [ohm:4130962:0]        ib_iface.c:1059 UCX  ERROR ibv_create_cq(cqe=256) failed: Connection timed out
[1739872063.533333] [ohm:4130973:0]        ib_iface.c:1059 UCX  ERROR ibv_create_cq(cqe=256) failed: Connection timed out
[1739872063.534948] [ohm:4130963:0]        ib_iface.c:1059 UCX  ERROR ibv_create_cq(cqe=256) failed: Connection timed out
[1739872063.539324] [ohm:4130965:0]        ib_iface.c:1059 UCX  ERROR ibv_create_cq(cqe=256) failed: Connection timed out
[1739872063.540415] [ohm:4130976:0]        ib_iface.c:1059 UCX  ERROR ibv_create_cq(cqe=256) failed: Connection timed out
[1739872063.541411] [ohm:4130960:0]        ib_iface.c:1059 UCX  ERROR ibv_create_cq(cqe=256) failed: Connection timed out
[1739872063.571017] [ohm:4130968:0]        ib_iface.c:1059 UCX  ERROR ibv_create_cq(cqe=256) failed: Connection timed out
[1739872063.571733] [ohm:4130966:0]        ib_iface.c:1059 UCX  ERROR ibv_create_cq(cqe=256) failed: Connection timed out
[1739872063.576054] [ohm:4130972:0]        ib_iface.c:1059 UCX  ERROR ibv_create_cq(cqe=256) failed: Connection timed out
[1739872063.586796] [ohm:4130998:0]        ib_iface.c:1059 UCX  ERROR ibv_create_cq(cqe=256) failed: Connection timed out
[1739872063.588898] [ohm:4131051:0]        ib_iface.c:1059 UCX  ERROR ibv_create_cq(cqe=256) failed: Connection timed out
[1739872063.596379] [ohm:4130986:0]        ib_iface.c:1059 UCX  ERROR ibv_create_cq(cqe=256) failed: Connection timed out
[1739872063.596854] [ohm:4131010:0]        ib_iface.c:1059 UCX  ERROR ibv_create_cq(cqe=256) failed: Connection timed out
[1739872063.598525] [ohm:4130975:0]        ib_iface.c:1059 UCX  ERROR ibv_create_cq(cqe=256) failed: Connection timed out
[1739872063.599354] [ohm:4131005:0]        ib_iface.c:1059 UCX  ERROR ibv_create_cq(cqe=256) failed: Connection timed out
[1739872063.599743] [ohm:4131002:0]        ib_iface.c:1059 UCX  ERROR ibv_create_cq(cqe=256) failed: Connection timed out
[1739872063.604215] [ohm:4130996:0]        ib_iface.c:1059 UCX  ERROR ibv_create_cq(cqe=256) failed: Connection timed out
[1739872063.662622] [ohm:4130970:0]        ib_iface.c:1059 UCX  ERROR ibv_create_cq(cqe=256) failed: Connection timed out
[1739872063.664511] [ohm:4130981:0]        ib_iface.c:1059 UCX  ERROR ibv_create_cq(cqe=256) failed: Connection timed out
[1739872063.669342] [ohm:4131092:0]        ib_iface.c:1059 UCX  ERROR ibv_create_cq(cqe=256) failed: Connection timed out
[1739872063.669577] [ohm:4130992:0]        ib_iface.c:1059 UCX  ERROR ibv_create_cq(cqe=256) failed: Connection timed out
[1739872063.670140] [ohm:4130961:0]        ib_iface.c:1059 UCX  ERROR ibv_create_cq(cqe=256) failed: Connection timed out
[1739872063.673774] [ohm:4131035:0]        ib_iface.c:1059 UCX  ERROR ibv_create_cq(cqe=256) failed: Connection timed out
[1739872063.674673] [ohm:4130995:0]        ib_iface.c:1059 UCX  ERROR ibv_create_cq(cqe=256) failed: Connection timed out
[1739872063.676390] [ohm:4131045:0]        ib_iface.c:1059 UCX  ERROR ibv_create_cq(cqe=256) failed: Connection timed out
[1739872063.677243] [ohm:4131067:0]        ib_iface.c:1059 UCX  ERROR ibv_create_cq(cqe=256) failed: Connection timed out
[1739872063.711029] [ohm:4131101:0]        ib_iface.c:1059 UCX  ERROR ibv_create_cq(cqe=256) failed: Connection timed out
[1739872063.727113] [ohm:4131066:0]        ib_iface.c:1059 UCX  ERROR ibv_create_cq(cqe=256) failed: Connection timed out
[1739872063.730725] [ohm:4131040:0]        ib_iface.c:1059 UCX  ERROR ibv_create_cq(cqe=256) failed: Connection timed out
[1739872063.747371] [ohm:4131039:0]        ib_iface.c:1059 UCX  ERROR ibv_create_cq(cqe=256) failed: Connection timed out
[1739872063.747729] [ohm:4131015:0]        ib_iface.c:1059 UCX  ERROR ibv_create_cq(cqe=256) failed: Connection timed out
[1739872063.748779] [ohm:4130967:0]        ib_iface.c:1059 UCX  ERROR ibv_create_cq(cqe=256) failed: Connection timed out
[1739872063.758352] [ohm:4130979:0]        ib_iface.c:1059 UCX  ERROR ibv_create_cq(cqe=256) failed: Connection timed out
[1739872063.759629] [ohm:4131104:0]        ib_iface.c:1059 UCX  ERROR ibv_create_cq(cqe=256) failed: Connection timed out
[1739872063.767350] [ohm:4131000:0]        ib_iface.c:1059 UCX  ERROR ibv_create_cq(cqe=256) failed: Connection timed out
[1739872063.773024] [ohm:4131008:0]        ib_iface.c:1059 UCX  ERROR ibv_create_cq(cqe=256) failed: Connection timed out
[1739872063.773968] [ohm:4131077:0]        ib_iface.c:1059 UCX  ERROR ibv_create_cq(cqe=256) failed: Connection timed out
[1739872063.778444] [ohm:4131013:0]        ib_iface.c:1059 UCX  ERROR ibv_create_cq(cqe=256) failed: Connection timed out
[1739872063.780180] [ohm:4131095:0]        ib_iface.c:1059 UCX  ERROR ibv_create_cq(cqe=256) failed: Connection timed out
[1739872063.785327] [ohm:4130953:0]        ib_iface.c:1059 UCX  ERROR ibv_create_cq(cqe=256) failed: Connection timed out
[1739872063.788390] [ohm:4131055:0]        ib_iface.c:1059 UCX  ERROR ibv_create_cq(cqe=256) failed: Connection timed out
[1739872063.789372] [ohm:4131087:0]        ib_iface.c:1059 UCX  ERROR ibv_create_cq(cqe=256) failed: Connection timed out
[1739872063.795262] [ohm:4131018:0]        ib_iface.c:1059 UCX  ERROR ibv_create_cq(cqe=256) failed: Connection timed out
[1739872063.795705] [ohm:4131070:0]        ib_iface.c:1059 UCX  ERROR ibv_create_cq(cqe=256) failed: Connection timed out
[1739872063.800140] [ohm:4130964:0]        ib_iface.c:1059 UCX  ERROR ibv_create_cq(cqe=256) failed: Connection timed out
[1739872063.801238] [ohm:4131073:0]        ib_iface.c:1059 UCX  ERROR ibv_create_cq(cqe=256) failed: Connection timed out
[1739872063.802249] [ohm:4131059:0]        ib_iface.c:1059 UCX  ERROR ibv_create_cq(cqe=256) failed: Connection timed out
[1739872063.802931] [ohm:4131061:0]        ib_iface.c:1059 UCX  ERROR ibv_create_cq(cqe=256) failed: Connection timed out
[1739872063.803250] [ohm:4131033:0]        ib_iface.c:1059 UCX  ERROR ibv_create_cq(cqe=256) failed: Connection timed out
[1739872063.804015] [ohm:4131053:0]        ib_iface.c:1059 UCX  ERROR ibv_create_cq(cqe=256) failed: Connection timed out
[1739872063.805327] [ohm:4130971:0]        ib_iface.c:1059 UCX  ERROR ibv_create_cq(cqe=256) failed: Connection timed out
[1739872063.805549] [ohm:4131027:0]        ib_iface.c:1059 UCX  ERROR ibv_create_cq(cqe=256) failed: Connection timed out
[1739872063.807145] [ohm:4130956:0]        ib_iface.c:1059 UCX  ERROR ibv_create_cq(cqe=256) failed: Connection timed out
[1739872063.808894] [ohm:4131047:0]        ib_iface.c:1059 UCX  ERROR ibv_create_cq(cqe=256) failed: Connection timed out
[1739872063.809782] [ohm:4130988:0]        ib_iface.c:1059 UCX  ERROR ibv_create_cq(cqe=256) failed: Connection timed out
[1739872063.819166] [ohm:4130957:0]        ib_iface.c:1059 UCX  ERROR ibv_create_cq(cqe=256) failed: Connection timed out
[1739872063.823115] [ohm:4130969:0]        ib_iface.c:1059 UCX  ERROR ibv_create_cq(cqe=256) failed: Connection timed out
[1739872063.824567] [ohm:4131022:0]        ib_iface.c:1059 UCX  ERROR ibv_create_cq(cqe=256) failed: Connection timed out
[1739872063.826202] [ohm:4131084:0]        ib_iface.c:1059 UCX  ERROR ibv_create_cq(cqe=256) failed: Connection timed out


           ************************************************************
           *        Program running with 64 parallel MPI-processes    *
           *              working on a common directory               *
           ************************************************************
-------------------------------------------------------------------------------
                                 ORCA GUESS
                   Start orbitals & Density for SCF / CASSCF
-------------------------------------------------------------------------------

------------
SCF SETTINGS
------------
Hamiltonian:
 Density Functional     Method          .... DFT(GTOs)
  Functional kind                       .... Exchange-Correlation
  Functional name                       .... wB97M-V exchange-correlation functional
  Functional family                     .... Hybrid MGGA
  Functional refs                              
    [ 0] N. Mardirossian and M. Head-Gordon.,  J. Chem. Phys. 144, 214110 (2016), doi: 10.1063/1.4952647
  Fraction of HF Exchange (short range) .... 0.1500
  Fraction of HF Exchange (long range)  .... 1.0000
  Range separation parameter mu         .... 0.3000
  Functional external parameters        .... 17
    Parameter  0 _cx00      =  8.500000e-01 : u^00 coefficient for exchange
    Parameter  1 _cx01      =  1.007000e+00 : u^01 coefficient for exchange
    Parameter  2 _cx10      =  2.590000e-01 : u^10 coefficient for exchange
    Parameter  3 _css00     =  4.430000e-01 : u^00 coefficient for same-spin correlation
    Parameter  4 _css04     = -1.437000e+00 : u^04 coefficient for same-spin correlation
    Parameter  5 _css10     = -4.535000e+00 : u^10 coefficient for same-spin correlation
    Parameter  6 _css20     = -3.390000e+00 : u^20 coefficient for same-spin correlation
    Parameter  7 _css43     =  4.278000e+00 : u^43 coefficient for same-spin correlation
    Parameter  8 _cos00     =  1.000000e+00 : u^00 coefficient for opposite-spin correlation
    Parameter  9 _cos10     =  1.358000e+00 : u^10 coefficient for opposite-spin correlation
    Parameter 10 _cos20     =  2.924000e+00 : u^20 coefficient for opposite-spin correlation
    Parameter 11 _cos21     = -8.812000e+00 : u^21 coefficient for opposite-spin correlation
    Parameter 12 _cos60     = -1.390000e+00 : u^60 coefficient for opposite-spin correlation
    Parameter 13 _cos61     =  9.142000e+00 : u^61 coefficient for opposite-spin correlation
    Parameter 14 _alpha     =  1.000000e+00 : fraction of HF exchange
    Parameter 15 _beta      = -8.500000e-01 : fraction of short-range exchange
    Parameter 16 _omega     =  3.000000e-01 : range-separation constant
 Long-range corrected/Screened/Range-Separated Hybrid DFT is turned on
   Amount of maximum screened exact exchange              ....  0.850000
   Range separation parameter mu (erf(mu*r12)/r12)        ....  0.300000
 RI-approximation to the Coulomb term is turned on
   Number of AuxJ basis functions       .... 1014
   RIJ-COSX (HFX calculated with COS-X)).... on


General Settings:
 Integral files         IntName         .... orca
 Hartree-Fock type      HFTyp           .... UHF
 Total Charge           Charge          ....    0
 Multiplicity           Mult            ....    3
 Number of Electrons    NEL             ....  132
 Basis Dimension        Dim             ....  882
 Nuclear Repulsion      ENuc            ....   1454.8151680930 Eh

Convergence Acceleration:
 AO-DIIS                CNVDIIS         .... on
   Start iteration      DIISMaxIt       ....    12
   Startup error        DIISStart       ....  0.200000
   # of expansion vecs  DIISMaxEq       ....     5
   Bias factor          DIISBfac        ....   1.050
   Max. coefficient     DIISMaxC        ....  10.000
 MO-DIIS                CNVKDIIS        .... off
 Trust-Rad. Augm. Hess. CNVTRAH         .... auto
   Auto Start mean grad. ratio tolernc. ....  1.125000
   Auto Start start iteration           ....    50
   Auto Start num. interpolation iter.  ....    10
   Max. Number of Micro iterations      ....    24
   Max. Number of Macro iterations      .... Maxiter - #DIIS iter
   Number of Davidson start vectors     ....     2
   Converg. threshold    (grad. norm)   ....   1.000e-05
   Grad. Scal. Fac. for Micro threshold ....   0.100
   Minimum threshold for Micro iter.    ....   1.000e-02
   NR start threshold (gradient norm)   ....   1.000e-04
   Initial trust radius                 ....   0.400
   Minimum AH scaling param. (alpha)    ....   1.000
   Maximum AH scaling param. (alpha)    .... 1000.000
   Quad. conv. algorithm                .... NR
   White noise on init. David. guess    .... on
   Maximum white noise                  ....   0.010
   Pseudo random numbers                .... off
   Inactive MOs                         .... canonical
   Orbital update algorithm             .... Taylor
   Preconditioner                       .... Diag
   Full preconditioner red. dimension   ....   250
 SOSCF                  CNVSOSCF        .... on
   Start iteration      SOSCFMaxIt      ....   150
   Startup grad/error   SOSCFStart      ....  0.003300
   Hessian update       SOSCFHessUp     .... L-BFGS
 Level Shifting         CNVShift        .... on
   Level shift para.    LevelShift      ....    0.2500
   Turn off err/grad.   ShiftErr        ....    0.0010
 Zerner damping         CNVZerner       .... off
 Static damping         CNVDamp         .... on
   Fraction old density DampFac         ....    0.7000
   Max. Damping (<1)    DampMax         ....    0.9800
   Min. Damping (>=0)   DampMin         ....    0.0000
   Turn off err/grad.   DampErr         ....    0.1000

SCF Procedure:
 Maximum # iterations   MaxIter         ....   125
 SCF integral mode      SCFMode         .... Direct
   Integral package                     .... SHARK and LIBINT hybrid scheme
 Reset frequency        DirectResetFreq ....    20
 Integral Threshold     Thresh          ....  1.000e-12 Eh
 Primitive CutOff       TCut            ....  1.000e-13 Eh

Convergence Tolerance:
 Convergence Check Mode ConvCheckMode   .... Total+1el-Energy
 Convergence forced     ConvForced      .... 1
 Energy Change          TolE            ....  1.000e-08 Eh
 1-El. energy change                    ....  1.000e-05 Eh
 Orbital Gradient       TolG            ....  1.000e-05
 Orbital Rotation angle TolX            ....  1.000e-05
 DIIS Error             TolErr          ....  5.000e-07

------------------------------
INITIAL GUESS: MODEL POTENTIAL
------------------------------
Loading Hartree-Fock densities                     ... done
Calculating cut-offs                               ... done
Initializing the effective Hamiltonian             ... done
Setting up the integral package (SHARK)            ... done
Starting the Coulomb interaction                   ... done (   0.1 sec)
Making the grid                                    ... done (   0.2 sec)
Mapping shells                                     ... done
Starting the XC term evaluation                    ... done (   0.1 sec)
  promolecular density results
     # of electrons  =    132.003481943
     EX              =   -113.585315356
     EC              =     -4.478939990
     EX+EC           =   -118.064255346
Transforming the Hamiltonian                       ... done (   0.1 sec)
Diagonalizing the Hamiltonian                      ... done (   0.1 sec)
Back transforming the eigenvectors                 ... done (   0.1 sec)
Now organizing SCF variables                       ... done
                      ------------------
                      INITIAL GUESS DONE (   1.1 sec)
                      ------------------
             **** ENERGY FILE WAS UPDATED (orca.en.tmp) ****
Finished Guess after   3.5 sec
Maximum memory used throughout the entire GUESS-calculation: 72.8 MB
[1739872067.679454] [ohm:4131293:0]        ib_iface.c:1059 UCX  ERROR ibv_create_cq(cqe=256) failed: Connection timed out
[1739872067.709152] [ohm:4131292:0]        ib_iface.c:1059 UCX  ERROR ibv_create_cq(cqe=256) failed: Connection timed out
[1739872067.739739] [ohm:4131307:0]        ib_iface.c:1059 UCX  ERROR ibv_create_cq(cqe=256) failed: Connection timed out
[1739872067.745730] [ohm:4131297:0]        ib_iface.c:1059 UCX  ERROR ibv_create_cq(cqe=256) failed: Connection timed out
[1739872067.753845] [ohm:4131301:0]        ib_iface.c:1059 UCX  ERROR ibv_create_cq(cqe=256) failed: Connection timed out
[1739872067.755072] [ohm:4131308:0]        ib_iface.c:1059 UCX  ERROR ibv_create_cq(cqe=256) failed: Connection timed out
[1739872067.756401] [ohm:4131299:0]        ib_iface.c:1059 UCX  ERROR ibv_create_cq(cqe=256) failed: Connection timed out
[1739872067.785118] [ohm:4131338:0]        ib_iface.c:1059 UCX  ERROR ibv_create_cq(cqe=256) failed: Connection timed out
[1739872067.793418] [ohm:4131295:0]        ib_iface.c:1059 UCX  ERROR ibv_create_cq(cqe=256) failed: Connection timed out
[1739872067.795296] [ohm:4131323:0]        ib_iface.c:1059 UCX  ERROR ibv_create_cq(cqe=256) failed: Connection timed out
[1739872067.796821] [ohm:4131309:0]        ib_iface.c:1059 UCX  ERROR ibv_create_cq(cqe=256) failed: Connection timed out
[1739872067.804727] [ohm:4131313:0]        ib_iface.c:1059 UCX  ERROR ibv_create_cq(cqe=256) failed: Connection timed out
[1739872067.834582] [ohm:4131416:0]        ib_iface.c:1059 UCX  ERROR ibv_create_cq(cqe=256) failed: Connection timed out
[1739872067.845581] [ohm:4131312:0]        ib_iface.c:1059 UCX  ERROR ibv_create_cq(cqe=256) failed: Connection timed out
[1739872067.851477] [ohm:4131417:0]        ib_iface.c:1059 UCX  ERROR ibv_create_cq(cqe=256) failed: Connection timed out
[1739872067.857438] [ohm:4131318:0]        ib_iface.c:1059 UCX  ERROR ibv_create_cq(cqe=256) failed: Connection timed out
[1739872067.886844] [ohm:4131353:0]        ib_iface.c:1059 UCX  ERROR ibv_create_cq(cqe=256) failed: Connection timed out
[1739872067.895380] [ohm:4131360:0]        ib_iface.c:1059 UCX  ERROR ibv_create_cq(cqe=256) failed: Connection timed out
[1739872067.901750] [ohm:4131398:0]        ib_iface.c:1059 UCX  ERROR ibv_create_cq(cqe=256) failed: Connection timed out
[1739872067.905049] [ohm:4131386:0]        ib_iface.c:1059 UCX  ERROR ibv_create_cq(cqe=256) failed: Connection timed out
[1739872067.907372] [ohm:4131319:0]        ib_iface.c:1059 UCX  ERROR ibv_create_cq(cqe=256) failed: Connection timed out
[1739872067.910891] [ohm:4131392:0]        ib_iface.c:1059 UCX  ERROR ibv_create_cq(cqe=256) failed: Connection timed out
[1739872067.911292] [ohm:4131294:0]        ib_iface.c:1059 UCX  ERROR ibv_create_cq(cqe=256) failed: Connection timed out
[1739872067.911490] [ohm:4131435:0]        ib_iface.c:1059 UCX  ERROR ibv_create_cq(cqe=256) failed: Connection timed out
[1739872067.933476] [ohm:4131347:0]        ib_iface.c:1059 UCX  ERROR ibv_create_cq(cqe=256) failed: Connection timed out
[1739872067.934319] [ohm:4131298:0]        ib_iface.c:1059 UCX  ERROR ibv_create_cq(cqe=256) failed: Connection timed out
[1739872067.935318] [ohm:4131345:0]        ib_iface.c:1059 UCX  ERROR ibv_create_cq(cqe=256) failed: Connection timed out
[1739872067.936965] [ohm:4131306:0]        ib_iface.c:1059 UCX  ERROR ibv_create_cq(cqe=256) failed: Connection timed out
[1739872067.942453] [ohm:4131388:0]        ib_iface.c:1059 UCX  ERROR ibv_create_cq(cqe=256) failed: Connection timed out
[1739872067.944119] [ohm:4131406:0]        ib_iface.c:1059 UCX  ERROR ibv_create_cq(cqe=256) failed: Connection timed out
[1739872067.944994] [ohm:4131364:0]        ib_iface.c:1059 UCX  ERROR ibv_create_cq(cqe=256) failed: Connection timed out
[1739872067.948324] [ohm:4131343:0]        ib_iface.c:1059 UCX  ERROR ibv_create_cq(cqe=256) failed: Connection timed out
[1739872067.953508] [ohm:4131324:0]        ib_iface.c:1059 UCX  ERROR ibv_create_cq(cqe=256) failed: Connection timed out
[1739872067.974961] [ohm:4131403:0]        ib_iface.c:1059 UCX  ERROR ibv_create_cq(cqe=256) failed: Connection timed out
[1739872067.978467] [ohm:4131424:0]        ib_iface.c:1059 UCX  ERROR ibv_create_cq(cqe=256) failed: Connection timed out
[1739872067.980582] [ohm:4131317:0]        ib_iface.c:1059 UCX  ERROR ibv_create_cq(cqe=256) failed: Connection timed out
[1739872067.982657] [ohm:4131303:0]        ib_iface.c:1059 UCX  ERROR ibv_create_cq(cqe=256) failed: Connection timed out
[1739872067.987282] [ohm:4131429:0]        ib_iface.c:1059 UCX  ERROR ibv_create_cq(cqe=256) failed: Connection timed out
[1739872067.991658] [ohm:4131374:0]        ib_iface.c:1059 UCX  ERROR ibv_create_cq(cqe=256) failed: Connection timed out
[1739872067.993272] [ohm:4131304:0]        ib_iface.c:1059 UCX  ERROR ibv_create_cq(cqe=256) failed: Connection timed out
[1739872067.993766] [ohm:4131321:0]        ib_iface.c:1059 UCX  ERROR ibv_create_cq(cqe=256) failed: Connection timed out
[1739872067.997704] [ohm:4131330:0]        ib_iface.c:1059 UCX  ERROR ibv_create_cq(cqe=256) failed: Connection timed out
[1739872067.999639] [ohm:4131356:0]        ib_iface.c:1059 UCX  ERROR ibv_create_cq(cqe=256) failed: Connection timed out
[1739872067.999660] [ohm:4131382:0]        ib_iface.c:1059 UCX  ERROR ibv_create_cq(cqe=256) failed: Connection timed out
[1739872068.008170] [ohm:4131334:0]        ib_iface.c:1059 UCX  ERROR ibv_create_cq(cqe=256) failed: Connection timed out
[1739872068.008759] [ohm:4131316:0]        ib_iface.c:1059 UCX  ERROR ibv_create_cq(cqe=256) failed: Connection timed out
[1739872068.008795] [ohm:4131350:0]        ib_iface.c:1059 UCX  ERROR ibv_create_cq(cqe=256) failed: Connection timed out
[1739872068.010121] [ohm:4131328:0]        ib_iface.c:1059 UCX  ERROR ibv_create_cq(cqe=256) failed: Connection timed out
[1739872068.014169] [ohm:4131380:0]        ib_iface.c:1059 UCX  ERROR ibv_create_cq(cqe=256) failed: Connection timed out
[1739872068.015962] [ohm:4131396:0]        ib_iface.c:1059 UCX  ERROR ibv_create_cq(cqe=256) failed: Connection timed out
[1739872068.018087] [ohm:4131423:0]        ib_iface.c:1059 UCX  ERROR ibv_create_cq(cqe=256) failed: Connection timed out
[1739872068.024163] [ohm:4131310:0]        ib_iface.c:1059 UCX  ERROR ibv_create_cq(cqe=256) failed: Connection timed out
[1739872068.028038] [ohm:4131314:0]        ib_iface.c:1059 UCX  ERROR ibv_create_cq(cqe=256) failed: Connection timed out
[1739872068.028065] [ohm:4131302:0]        ib_iface.c:1059 UCX  ERROR ibv_create_cq(cqe=256) failed: Connection timed out
[1739872068.028373] [ohm:4131315:0]        ib_iface.c:1059 UCX  ERROR ibv_create_cq(cqe=256) failed: Connection timed out
[1739872068.031392] [ohm:4131408:0]        ib_iface.c:1059 UCX  ERROR ibv_create_cq(cqe=256) failed: Connection timed out
[1739872068.031383] [ohm:4131413:0]        ib_iface.c:1059 UCX  ERROR ibv_create_cq(cqe=256) failed: Connection timed out
[1739872068.031416] [ohm:4131311:0]        ib_iface.c:1059 UCX  ERROR ibv_create_cq(cqe=256) failed: Connection timed out
[1739872068.032011] [ohm:4131296:0]        ib_iface.c:1059 UCX  ERROR ibv_create_cq(cqe=256) failed: Connection timed out
[1739872068.032039] [ohm:4131383:0]        ib_iface.c:1059 UCX  ERROR ibv_create_cq(cqe=256) failed: Connection timed out
[1739872068.036927] [ohm:4131412:0]        ib_iface.c:1059 UCX  ERROR ibv_create_cq(cqe=256) failed: Connection timed out
[1739872068.037012] [ohm:4131305:0]        ib_iface.c:1059 UCX  ERROR ibv_create_cq(cqe=256) failed: Connection timed out
[1739872068.037230] [ohm:4131300:0]        ib_iface.c:1059 UCX  ERROR ibv_create_cq(cqe=256) failed: Connection timed out
[1739872068.038048] [ohm:4131371:0]        ib_iface.c:1059 UCX  ERROR ibv_create_cq(cqe=256) failed: Connection timed out


           ************************************************************
           *        Program running with 64 parallel MPI-processes    *
           *              working on a common directory               *
           ************************************************************

-------------------------------------------------------------------------------------------
                                      ORCA LEAN-SCF
                              memory conserving SCF solver
-------------------------------------------------------------------------------------------

----------------------------------------D-I-I-S--------------------------------------------
Iteration    Energy (Eh)           Delta-E    RMSDP     MaxDP     DIISErr   Damp  Time(sec)
-------------------------------------------------------------------------------------------
               ***  Starting incremental Fock matrix formation  ***
    1    -908.1075465578337571     0.00e+00  1.35e-03  1.97e-01  1.53e-01  0.700   7.9
    2    -908.3733599320344183    -2.66e-01  1.09e-03  1.30e-01  7.41e-02  0.700   6.6
                               ***Turning on AO-DIIS***
    3    -908.4937040517856985    -1.20e-01  7.88e-04  9.02e-02  2.83e-02  0.700   5.9
    4    -908.5678836048000448    -7.42e-02  1.90e-03  2.11e-01  2.07e-02  0.000   5.7
    5    -908.7369654865728990    -1.69e-01  3.38e-04  4.78e-02  6.49e-03  0.000   5.9
    6    -908.7400958784505747    -3.13e-03  2.58e-04  3.47e-02  5.57e-03  0.000   5.6
    7    -908.7422367721651426    -2.14e-03  3.14e-04  5.17e-02  4.55e-03  0.000   5.6
                              *** Initializing SOSCF ***
---------------------------------------S-O-S-C-F--------------------------------------
Iteration    Energy (Eh)           Delta-E    RMSDP     MaxDP     MaxGrad    Time(sec)
--------------------------------------------------------------------------------------
    8    -908.7442674829057978    -2.03e-03  1.97e-04  2.91e-02  3.11e-03     6.5
               *** Restarting incremental Fock matrix formation ***
    9    -908.7451947791996645    -9.27e-04  2.13e-04  2.09e-02  6.21e-03     7.4
   10    -908.7456003649995182    -4.06e-04  3.06e-04  3.66e-02  3.56e-03     6.7
   11    -908.7457669657342194    -1.67e-04  9.62e-05  7.78e-03  7.97e-04     6.8
   12    -908.7458249875389811    -5.80e-05  3.54e-05  3.80e-03  3.43e-04     6.6
   13    -908.7458324216354413    -7.43e-06  1.06e-05  1.06e-03  2.13e-04     6.4
   14    -908.7458353350457401    -2.91e-06  6.77e-06  1.10e-03  1.47e-04     6.2
   15    -908.7458360304381131    -6.95e-07  7.12e-06  1.06e-03  9.91e-05     6.1
   16    -908.7458364695330602    -4.39e-07  2.95e-06  2.44e-04  3.92e-05     6.1
   17    -908.7458365523148132    -8.28e-08  2.00e-06  2.59e-04  2.14e-05     6.0
   18    -908.7458365584329840    -6.12e-09  1.79e-06  2.30e-04  8.38e-06     5.8
                 **** Energy Check signals convergence ****

               *****************************************************
               *                     SUCCESS                       *
               *           SCF CONVERGED AFTER  18 CYCLES          *
               *****************************************************

Recomputing exchange energy using gridx3       ... done (    7.862 sec)
Old exchange energy                            :    -35.041291521 Eh
New exchange energy                            :    -35.041281681 Eh
Exchange energy change after final integration :      0.000009840 Eh
Total energy after final integration           :   -908.745826718 Eh
             **** ENERGY FILE WAS UPDATED (orca.en.tmp) ****

----------------
TOTAL SCF ENERGY
----------------

Total Energy       :       -908.74582671810731 Eh          -24728.23110 eV

Components:
Nuclear Repulsion  :       1454.81516809304458 Eh           39587.53332 eV
Electronic Energy  :      -2363.56100465147756 Eh          -64315.76469 eV
One Electron Energy:      -4127.08726674643094 Eh         -112303.75394 eV
Two Electron Energy:       1763.52626209495361 Eh           47987.98925 eV

Virial components:
Potential Energy   :      -1814.95663761752371 Eh          -49387.48092 eV
Kinetic Energy     :        906.21081089941640 Eh           24659.24982 eV
Virial Ratio       :          2.00279737980192

DFT components:
N(Alpha)           :       67.000154489358 electrons
N(Beta)            :       65.000121334068 electrons
N(Total)           :      132.000275823426 electrons
E(XC)              :      -86.314751798439 Eh       

---------------
SCF CONVERGENCE
---------------

  Last Energy change         ...    6.1182e-09  Tolerance :   1.0000e-08
  Last MAX-Density change    ...    2.3003e-04  Tolerance :   1.0000e-07
  Last RMS-Density change    ...    1.7873e-06  Tolerance :   5.0000e-09
  Last DIIS Error            ...    3.1064e-03  Tolerance :   5.0000e-07
  Last Orbital Gradient      ...    8.3808e-06  Tolerance :   1.0000e-05
  Last Orbital Rotation      ...    5.9120e-05  Tolerance :   1.0000e-05


----------------------
UHF SPIN CONTAMINATION
----------------------

Warning: in a DFT calculation there is little theoretical justification to 
         calculate <S**2> as in Hartree-Fock theory. We will do it anyways
         but you should keep in mind that the values have only limited relevance

Expectation value of <S**2>     :     2.010416
Ideal value S*(S+1) for S=1.0   :     2.000000
Deviation                       :     0.010416

----------------
ORBITAL ENERGIES
----------------
                 SPIN UP ORBITALS
  NO   OCC          E(Eh)            E(eV) 
   0   1.0000     -19.338156      -526.2180 
   1   1.0000     -19.322301      -525.7866 
   2   1.0000     -19.322107      -525.7813 
   3   1.0000     -19.318501      -525.6831 
   4   1.0000     -14.596648      -397.1950 
   5   1.0000     -14.576321      -396.6419 
   6   1.0000     -14.565234      -396.3402 
   7   1.0000     -14.556437      -396.1008 
   8   1.0000     -10.515877      -286.1516 
   9   1.0000     -10.506313      -285.8913 
  10   1.0000     -10.477954      -285.1196 
  11   1.0000     -10.460171      -284.6357 
  12   1.0000     -10.430242      -283.8213 
  13   1.0000     -10.410442      -283.2825 
  14   1.0000     -10.402262      -283.0599 
  15   1.0000     -10.379119      -282.4302 
  16   1.0000     -10.361329      -281.9461 
  17   1.0000     -10.360751      -281.9304 
  18   1.0000      -1.232348       -33.5339 
  19   1.0000      -1.219122       -33.1740 
  20   1.0000      -1.190799       -32.4033 
  21   1.0000      -1.189410       -32.3655 
  22   1.0000      -1.129841       -30.7445 
  23   1.0000      -1.116998       -30.3951 
  24   1.0000      -1.065691       -28.9989 
  25   1.0000      -1.065238       -28.9866 
  26   1.0000      -0.972969       -26.4758 
  27   1.0000      -0.956342       -26.0234 
  28   1.0000      -0.855993       -23.2928 
  29   1.0000      -0.848703       -23.0944 
  30   1.0000      -0.814843       -22.1730 
  31   1.0000      -0.808073       -21.9888 
  32   1.0000      -0.793154       -21.5828 
  33   1.0000      -0.789447       -21.4819 
  34   1.0000      -0.700783       -19.0693 
  35   1.0000      -0.695988       -18.9388 
  36   1.0000      -0.692392       -18.8409 
  37   1.0000      -0.688295       -18.7294 
  38   1.0000      -0.644021       -17.5247 
  39   1.0000      -0.636707       -17.3257 
  40   1.0000      -0.635670       -17.2975 
  41   1.0000      -0.598995       -16.2995 
  42   1.0000      -0.598375       -16.2826 
  43   1.0000      -0.593399       -16.1472 
  44   1.0000      -0.575011       -15.6469 
  45   1.0000      -0.573509       -15.6060 
  46   1.0000      -0.560107       -15.2413 
  47   1.0000      -0.554067       -15.0769 
  48   1.0000      -0.550263       -14.9734 
  49   1.0000      -0.548983       -14.9386 
  50   1.0000      -0.530058       -14.4236 
  51   1.0000      -0.524206       -14.2644 
  52   1.0000      -0.520624       -14.1669 
  53   1.0000      -0.517124       -14.0716 
  54   1.0000      -0.504710       -13.7339 
  55   1.0000      -0.503556       -13.7025 
  56   1.0000      -0.496280       -13.5045 
  57   1.0000      -0.472569       -12.8593 
  58   1.0000      -0.426759       -11.6127 
  59   1.0000      -0.412739       -11.2312 
  60   1.0000      -0.410435       -11.1685 
  61   1.0000      -0.397306       -10.8112 
  62   1.0000      -0.389632       -10.6024 
  63   1.0000      -0.386561       -10.5188 
  64   1.0000      -0.384725       -10.4689 
  65   1.0000      -0.344727        -9.3805 
  66   1.0000      -0.217116        -5.9080 
  67   0.0000       0.012186         0.3316 
  68   0.0000       0.022281         0.6063 
  69   0.0000       0.033340         0.9072 
  70   0.0000       0.039636         1.0785 
  71   0.0000       0.040416         1.0998 
  72   0.0000       0.056503         1.5375 
  73   0.0000       0.061055         1.6614 
  74   0.0000       0.063636         1.7316 
  75   0.0000       0.065615         1.7855 
  76   0.0000       0.067800         1.8449 
  77   0.0000       0.069712         1.8970 

                 SPIN DOWN ORBITALS
  NO   OCC          E(Eh)            E(eV) 
   0   1.0000     -19.336361      -526.1691 
   1   1.0000     -19.322244      -525.7850 
   2   1.0000     -19.318462      -525.6821 
   3   1.0000     -19.315539      -525.6025 
   4   1.0000     -14.592187      -397.0736 
   5   1.0000     -14.576285      -396.6409 
   6   1.0000     -14.565235      -396.3402 
   7   1.0000     -14.555491      -396.0750 
   8   1.0000     -10.516156      -286.1592 
   9   1.0000     -10.506321      -285.8915 
  10   1.0000     -10.477960      -285.1198 
  11   1.0000     -10.459882      -284.6278 
  12   1.0000     -10.430199      -283.8201 
  13   1.0000     -10.401044      -283.0268 
  14   1.0000     -10.391661      -282.7715 
  15   1.0000     -10.379110      -282.4299 
  16   1.0000     -10.361734      -281.9571 
  17   1.0000     -10.360620      -281.9268 
  18   1.0000      -1.228415       -33.4269 
  19   1.0000      -1.218955       -33.1694 
  20   1.0000      -1.189628       -32.3714 
  21   1.0000      -1.180788       -32.1309 
  22   1.0000      -1.119585       -30.4655 
  23   1.0000      -1.116826       -30.3904 
  24   1.0000      -1.065200       -28.9856 
  25   1.0000      -1.060253       -28.8509 
  26   1.0000      -0.956696       -26.0330 
  27   1.0000      -0.948375       -25.8066 
  28   1.0000      -0.849149       -23.1065 
  29   1.0000      -0.843528       -22.9536 
  30   1.0000      -0.808564       -22.0022 
  31   1.0000      -0.803535       -21.8653 
  32   1.0000      -0.789465       -21.4824 
  33   1.0000      -0.786341       -21.3974 
  34   1.0000      -0.692585       -18.8462 
  35   1.0000      -0.690043       -18.7770 
  36   1.0000      -0.688286       -18.7292 
  37   1.0000      -0.686542       -18.6818 
  38   1.0000      -0.637309       -17.3421 
  39   1.0000      -0.633203       -17.2303 
  40   1.0000      -0.628722       -17.1084 
  41   1.0000      -0.594106       -16.1665 
  42   1.0000      -0.590720       -16.0743 
  43   1.0000      -0.588935       -16.0257 
  44   1.0000      -0.567964       -15.4551 
  45   1.0000      -0.560841       -15.2613 
  46   1.0000      -0.558311       -15.1924 
  47   1.0000      -0.549775       -14.9601 
  48   1.0000      -0.543155       -14.7800 
  49   1.0000      -0.540359       -14.7039 
  50   1.0000      -0.521398       -14.1880 
  51   1.0000      -0.520349       -14.1594 
  52   1.0000      -0.514229       -13.9929 
  53   1.0000      -0.504947       -13.7403 
  54   1.0000      -0.503939       -13.7129 
  55   1.0000      -0.499271       -13.5859 
  56   1.0000      -0.471177       -12.8214 
  57   1.0000      -0.454400       -12.3649 
  58   1.0000      -0.422721       -11.5028 
  59   1.0000      -0.411797       -11.2056 
  60   1.0000      -0.397472       -10.8158 
  61   1.0000      -0.386126       -10.5070 
  62   1.0000      -0.384775       -10.4703 
  63   1.0000      -0.380633       -10.3575 
  64   1.0000      -0.343612        -9.3502 
  65   0.0000      -0.104330        -2.8390 
  66   0.0000       0.011895         0.3237 
  67   0.0000       0.023574         0.6415 
  68   0.0000       0.032116         0.8739 
  69   0.0000       0.038430         1.0457 
  70   0.0000       0.039770         1.0822 
  71   0.0000       0.055398         1.5075 
  72   0.0000       0.057923         1.5762 
  73   0.0000       0.061686         1.6786 
  74   0.0000       0.065074         1.7708 
  75   0.0000       0.066678         1.8144 
*Only the first 10 virtual orbitals were printed.

                    ********************************
                    * MULLIKEN POPULATION ANALYSIS *
                    ********************************

--------------------------------------------
MULLIKEN ATOMIC CHARGES AND SPIN POPULATIONS
--------------------------------------------
   0 O :   -0.685240    0.005535
   1 O :   -0.672121    0.243564
   2 O :   -0.648254    0.001565
   3 O :   -0.651140    0.066538
   4 N :   -0.041689    0.001824
   5 N :    0.050824    0.191728
   6 N :    0.057579    0.000959
   7 N :    0.024388    0.047069
   8 C :    0.811195    0.029889
   9 C :    0.961253    0.250950
  10 C :    0.056691   -0.003066
  11 C :   -0.539452    0.915558
  12 C :   -1.440379   -0.020285
  13 C :   -1.242877    0.034825
  14 C :    0.321898    0.015476
  15 C :    0.514112    0.218219
  16 C :    0.352470   -0.002764
  17 C :    0.451011   -0.028375
  18 H :    0.158794    0.002988
  19 H :    0.158678    0.004457
  20 H :    0.240628   -0.002847
  21 H :    0.331358    0.000631
  22 H :    0.370654    0.004150
  23 H :    0.343826    0.017626
  24 H :    0.329114    0.007975
  25 H :    0.217433    0.019225
  26 H :    0.056784   -0.000344
  27 H :    0.035113   -0.019543
  28 H :    0.045729    0.000298
  29 H :    0.031619   -0.003829
Sum of atomic charges         :   -0.0000000
Sum of atomic spin populations:    2.0000000

-----------------------------------------------------
MULLIKEN REDUCED ORBITAL CHARGES AND SPIN POPULATIONS
-----------------------------------------------------
CHARGE
  0 O s       :     4.082084  s :     4.082084
      pz      :     1.772784  p :     4.574222
      px      :     1.403608
      py      :     1.397829
      dz2     :     0.002890  d :     0.027027
      dxz     :    -0.000042
      dyz     :     0.004530
      dx2y2   :     0.013363
      dxy     :     0.006286
[...]
[1739872346.843813] [ohm:4133819:0]        ib_iface.c:1059 UCX  ERROR ibv_create_cq(cqe=256) failed: Connection timed out
[1739872346.844277] [ohm:4133812:0]        ib_iface.c:1059 UCX  ERROR ibv_create_cq(cqe=256) failed: Connection timed out
[1739872346.844756] [ohm:4133792:0]        ib_iface.c:1059 UCX  ERROR ibv_create_cq(cqe=256) failed: Connection timed out
[1739872346.845923] [ohm:4133878:0]        ib_iface.c:1059 UCX  ERROR ibv_create_cq(cqe=256) failed: Connection timed out
[1739872346.846173] [ohm:4133891:0]        ib_iface.c:1059 UCX  ERROR ibv_create_cq(cqe=256) failed: Connection timed out
[1739872346.847181] [ohm:4133840:0]        ib_iface.c:1059 UCX  ERROR ibv_create_cq(cqe=256) failed: Connection timed out
[1739872346.847291] [ohm:4133899:0]        ib_iface.c:1059 UCX  ERROR ibv_create_cq(cqe=256) failed: Connection timed out
[1739872346.847715] [ohm:4133854:0]        ib_iface.c:1059 UCX  ERROR ibv_create_cq(cqe=256) failed: Connection timed out
[1739872346.848412] [ohm:4133786:0]        ib_iface.c:1059 UCX  ERROR ibv_create_cq(cqe=256) failed: Connection timed out
[1739872346.849519] [ohm:4133903:0]        ib_iface.c:1059 UCX  ERROR ibv_create_cq(cqe=256) failed: Connection timed out


           ************************************************************
           *        Program running with 64 parallel MPI-processes    *
           *              working on a common directory               *
           ************************************************************

------------------------------------------------------------------------------
                              ORCA PROPERTY CALCULATIONS
------------------------------------------------------------------------------

GBWName                                 ... orca.gbw
Number of atoms                         ...     30
Number of basis functions               ...    882
Max core memory                         ...   1024 MB

Electric properties:
Dipole moment                           ... YES
Quadrupole moment                       ...  NO
Static polarizability (Dipole/Dipole)   ...  NO
Static polarizability (Dipole/Quad.)    ...  NO
Static polarizability (Quad./Quad.)     ...  NO
Static polarizability (Velocity)        ...  NO

Atomic electric properties:
Dipole moment                           ...  NO
Quadrupole moment                       ...  NO
Static polarizability                   ...  NO

Choice of electric origin               ... Center of mass
Position of electric origin             ...    -0.016881     0.030886     0.088527

General magnetic properties:
Magnetizability                         ...  NO

EPR properties:
g-Tensor (aka g-matrix)                 ...  NO
Zero-Field splitting spin-orbit         ...  NO
Zero-field splitting spin-spin          ...  NO
Hyperfine couplings                     ...  NO (   0 nuclei)
Quadrupole couplings                    ...  NO (   0 nuclei)
Contact density                         ...  NO (   0 nuclei)

NMR properties:
Chemical shifts                         ...  NO (   0 nuclei)
Spin-rotation constants                 ...  NO (   0 nuclei)
Spin-spin couplings                     ...  NO (   0 nuclei,    0 pairs)

Choice of magnetic origin               ... GIAO
Position of magnetic origin             ...     0.000000     0.000000     0.000000

Properties with geometric perturbations:
SCF Hessian                             ...  NO
IR spectrum                             ...  NO
VCD spectrum                            ...  NO
X-ray spectroscopy properties:
SCF XES/XAS/RIXS spectra                ...  NO


-------------
DIPOLE MOMENT
-------------

Method             : SCF
Type of density    : Electron Density
Multiplicity       :   3
Irrep              :   0
Energy             :  -908.7458267181073097 Eh
Relativity type    : 
Basis              : AO
                                X                 Y                 Z
Electronic contribution:     -2.810391668      -9.565319644      -5.942024789
Nuclear contribution   :      2.491140033      10.420524725       8.382378896
                        -----------------------------------------
Total Dipole Moment    :     -0.319251635       0.855205081       2.440354106
                        -----------------------------------------
Magnitude (a.u.)       :      2.605499089
Magnitude (Debye)      :      6.622652373



--------------------
Rotational spectrum 
--------------------
 
Rotational constants in cm-1:             0.016922             0.016148             0.014082 
Rotational constants in MHz :           507.300718           484.102251           422.173888 

Dipole components along the rotational axes: 
x,y,z [a.u.] :     0.925199     0.078220     2.434443 
x,y,z [Debye]:     2.351669     0.198820     6.187863 

 

-------------
DIPOLE MOMENT
-------------

Method             : TDA/CIS
Type of density    : Electron Density
Level              : Relaxed density
State              :   1
Multiplicity       :   3
Irrep              :   0
Energy             :     0.0000000000000000 Eh
Relativity type    : 
Basis              : AO
                                X                 Y                 Z
Electronic contribution:     -2.935921261      -9.652046297      -5.684248355
Nuclear contribution   :      2.491140033      10.420524725       8.382378896
                        -----------------------------------------
Total Dipole Moment    :     -0.444781228       0.768478428       2.698130540
                        -----------------------------------------
Magnitude (a.u.)       :      2.840474934
Magnitude (Debye)      :      7.219913505



--------------------
Rotational spectrum 
--------------------
 
Rotational constants in cm-1:             0.016922             0.016148             0.014082 
Rotational constants in MHz :           507.300718           484.102251           422.173888 

Dipole components along the rotational axes: 
x,y,z [a.u.] :     0.901169    -0.071482     2.692783 
x,y,z [Debye]:     2.290590    -0.181693     6.844512 

 

Dipole moment calculation done in   0.2 sec 

Maximum memory used throughout the entire PROP-calculation: 81.9 MB
[1739872349.415238] [ohm:4134116:0]        ib_iface.c:1059 UCX  ERROR ibv_create_cq(cqe=256) failed: Connection timed out
[1739872349.417844] [ohm:4134114:0]        ib_iface.c:1059 UCX  ERROR ibv_create_cq(cqe=256) failed: Connection timed out
[1739872349.436389] [ohm:4134121:0]        ib_iface.c:1059 UCX  ERROR ibv_create_cq(cqe=256) failed: Connection timed out
[1739872349.437099] [ohm:4134112:0]        ib_iface.c:1059 UCX  ERROR ibv_create_cq(cqe=256) failed: Connection timed out
[1739872349.438939] [ohm:4134124:0]        ib_iface.c:1059 UCX  ERROR ibv_create_cq(cqe=256) failed: Connection timed out
[1739872349.441790] [ohm:4134120:0]        ib_iface.c:1059 UCX  ERROR ibv_create_cq(cqe=256) failed: Connection timed out
[1739872349.442423] [ohm:4134130:0]        ib_iface.c:1059 UCX  ERROR ibv_create_cq(cqe=256) failed: Connection timed out
[1739872349.442946] [ohm:4134133:0]        ib_iface.c:1059 UCX  ERROR ibv_create_cq(cqe=256) failed: Connection timed out
[1739872349.451117] [ohm:4134113:0]        ib_iface.c:1059 UCX  ERROR ibv_create_cq(cqe=256) failed: Connection timed out
[1739872349.472207] [ohm:4134136:0]        ib_iface.c:1059 UCX  ERROR ibv_create_cq(cqe=256) failed: Connection timed out
[1739872349.478476] [ohm:4134117:0]        ib_iface.c:1059 UCX  ERROR ibv_create_cq(cqe=256) failed: Connection timed out
[1739872349.479766] [ohm:4134154:0]        ib_iface.c:1059 UCX  ERROR ibv_create_cq(cqe=256) failed: Connection timed out
[1739872349.480216] [ohm:4134129:0]        ib_iface.c:1059 UCX  ERROR ibv_create_cq(cqe=256) failed: Connection timed out
[1739872349.492515] [ohm:4134126:0]        ib_iface.c:1059 UCX  ERROR ibv_create_cq(cqe=256) failed: Connection timed out
[1739872349.505344] [ohm:4134118:0]        ib_iface.c:1059 UCX  ERROR ibv_create_cq(cqe=256) failed: Connection timed out
[1739872349.539421] [ohm:4134141:0]        ib_iface.c:1059 UCX  ERROR ibv_create_cq(cqe=256) failed: Connection timed out
[1739872349.543021] [ohm:4134134:0]        ib_iface.c:1059 UCX  ERROR ibv_create_cq(cqe=256) failed: Connection timed out
[1739872349.548602] [ohm:4134142:0]        ib_iface.c:1059 UCX  ERROR ibv_create_cq(cqe=256) failed: Connection timed out
[1739872349.549116] [ohm:4134212:0]        ib_iface.c:1059 UCX  ERROR ibv_create_cq(cqe=256) failed: Connection timed out
[1739872349.550254] [ohm:4134179:0]        ib_iface.c:1059 UCX  ERROR ibv_create_cq(cqe=256) failed: Connection timed out
[1739872349.566759] [ohm:4134123:0]        ib_iface.c:1059 UCX  ERROR ibv_create_cq(cqe=256) failed: Connection timed out
[1739872349.572837] [ohm:4134138:0]        ib_iface.c:1059 UCX  ERROR ibv_create_cq(cqe=256) failed: Connection timed out
[1739872349.577987] [ohm:4134128:0]        ib_iface.c:1059 UCX  ERROR ibv_create_cq(cqe=256) failed: Connection timed out
[1739872349.585846] [ohm:4134227:0]        ib_iface.c:1059 UCX  ERROR ibv_create_cq(cqe=256) failed: Connection timed out
[1739872349.601597] [ohm:4134137:0]        ib_iface.c:1059 UCX  ERROR ibv_create_cq(cqe=256) failed: Connection timed out
[1739872349.606458] [ohm:4134125:0]        ib_iface.c:1059 UCX  ERROR ibv_create_cq(cqe=256) failed: Connection timed out
[1739872349.607268] [ohm:4134156:0]        ib_iface.c:1059 UCX  ERROR ibv_create_cq(cqe=256) failed: Connection timed out
[1739872349.613947] [ohm:4134131:0]        ib_iface.c:1059 UCX  ERROR ibv_create_cq(cqe=256) failed: Connection timed out
[1739872349.617307] [ohm:4134232:0]        ib_iface.c:1059 UCX  ERROR ibv_create_cq(cqe=256) failed: Connection timed out
[1739872349.622089] [ohm:4134208:0]        ib_iface.c:1059 UCX  ERROR ibv_create_cq(cqe=256) failed: Connection timed out
[1739872349.624013] [ohm:4134203:0]        ib_iface.c:1059 UCX  ERROR ibv_create_cq(cqe=256) failed: Connection timed out
[1739872349.648079] [ohm:4134231:0]        ib_iface.c:1059 UCX  ERROR ibv_create_cq(cqe=256) failed: Connection timed out
[1739872349.659312] [ohm:4134132:0]        ib_iface.c:1059 UCX  ERROR ibv_create_cq(cqe=256) failed: Connection timed out
[1739872349.662165] [ohm:4134253:0]        ib_iface.c:1059 UCX  ERROR ibv_create_cq(cqe=256) failed: Connection timed out
[1739872349.671681] [ohm:4134119:0]        ib_iface.c:1059 UCX  ERROR ibv_create_cq(cqe=256) failed: Connection timed out
[1739872349.673083] [ohm:4134197:0]        ib_iface.c:1059 UCX  ERROR ibv_create_cq(cqe=256) failed: Connection timed out
[1739872349.674939] [ohm:4134195:0]        ib_iface.c:1059 UCX  ERROR ibv_create_cq(cqe=256) failed: Connection timed out
[1739872349.677567] [ohm:4134171:0]        ib_iface.c:1059 UCX  ERROR ibv_create_cq(cqe=256) failed: Connection timed out
[1739872349.682668] [ohm:4134201:0]        ib_iface.c:1059 UCX  ERROR ibv_create_cq(cqe=256) failed: Connection timed out
[1739872349.684594] [ohm:4134242:0]        ib_iface.c:1059 UCX  ERROR ibv_create_cq(cqe=256) failed: Connection timed out
[1739872349.698636] [ohm:4134168:0]        ib_iface.c:1059 UCX  ERROR ibv_create_cq(cqe=256) failed: Connection timed out
[1739872349.703975] [ohm:4134148:0]        ib_iface.c:1059 UCX  ERROR ibv_create_cq(cqe=256) failed: Connection timed out
[1739872349.705332] [ohm:4134190:0]        ib_iface.c:1059 UCX  ERROR ibv_create_cq(cqe=256) failed: Connection timed out
[1739872349.706619] [ohm:4134165:0]        ib_iface.c:1059 UCX  ERROR ibv_create_cq(cqe=256) failed: Connection timed out
[1739872349.715723] [ohm:4134175:0]        ib_iface.c:1059 UCX  ERROR ibv_create_cq(cqe=256) failed: Connection timed out
[1739872349.716541] [ohm:4134214:0]        ib_iface.c:1059 UCX  ERROR ibv_create_cq(cqe=256) failed: Connection timed out
[1739872349.717810] [ohm:4134115:0]        ib_iface.c:1059 UCX  ERROR ibv_create_cq(cqe=256) failed: Connection timed out
[1739872349.722226] [ohm:4134209:0]        ib_iface.c:1059 UCX  ERROR ibv_create_cq(cqe=256) failed: Connection timed out
[1739872349.722749] [ohm:4134221:0]        ib_iface.c:1059 UCX  ERROR ibv_create_cq(cqe=256) failed: Connection timed out
[1739872349.727115] [ohm:4134127:0]        ib_iface.c:1059 UCX  ERROR ibv_create_cq(cqe=256) failed: Connection timed out
[1739872349.728103] [ohm:4134185:0]        ib_iface.c:1059 UCX  ERROR ibv_create_cq(cqe=256) failed: Connection timed out
[1739872349.731647] [ohm:4134249:0]        ib_iface.c:1059 UCX  ERROR ibv_create_cq(cqe=256) failed: Connection timed out
[1739872349.732957] [ohm:4134166:0]        ib_iface.c:1059 UCX  ERROR ibv_create_cq(cqe=256) failed: Connection timed out
[1739872349.734050] [ohm:4134135:0]        ib_iface.c:1059 UCX  ERROR ibv_create_cq(cqe=256) failed: Connection timed out
[1739872349.734621] [ohm:4134158:0]        ib_iface.c:1059 UCX  ERROR ibv_create_cq(cqe=256) failed: Connection timed out
[1739872349.735190] [ohm:4134241:0]        ib_iface.c:1059 UCX  ERROR ibv_create_cq(cqe=256) failed: Connection timed out
[1739872349.736955] [ohm:4134237:0]        ib_iface.c:1059 UCX  ERROR ibv_create_cq(cqe=256) failed: Connection timed out
[1739872349.738087] [ohm:4134248:0]        ib_iface.c:1059 UCX  ERROR ibv_create_cq(cqe=256) failed: Connection timed out
[1739872349.739372] [ohm:4134122:0]        ib_iface.c:1059 UCX  ERROR ibv_create_cq(cqe=256) failed: Connection timed out
[1739872349.739378] [ohm:4134257:0]        ib_iface.c:1059 UCX  ERROR ibv_create_cq(cqe=256) failed: Connection timed out
[1739872349.740090] [ohm:4134163:0]        ib_iface.c:1059 UCX  ERROR ibv_create_cq(cqe=256) failed: Connection timed out
[1739872349.740220] [ohm:4134222:0]        ib_iface.c:1059 UCX  ERROR ibv_create_cq(cqe=256) failed: Connection timed out
[1739872349.741015] [ohm:4134206:0]        ib_iface.c:1059 UCX  ERROR ibv_create_cq(cqe=256) failed: Connection timed out
[1739872349.741963] [ohm:4134145:0]        ib_iface.c:1059 UCX  ERROR ibv_create_cq(cqe=256) failed: Connection timed out

--------------------------------
SUGGESTED CITATIONS FOR THIS RUN
--------------------------------

Below you find a list of papers that are relevant to this ORCA run
We neither can nor want to force you to cite these papers, but we appreciate if you do
You receive ORCA, which is the product of decades of hard work by many enthusiastic individuals, for free
The only thing we kindly ask in return is that you cite our papers,
We deeply appreciate it, if you show your appreciation for ORCA by not just citing the generic ORCA reference.

Please note that relegating all ORCA citations to the supporting information does *not* help us.
SI sections are not indexed - citations you put there will not count into any citation statistics
But we need these citations in order to attract the funding resources that allow us to do what we are doing

Therefore, if you are a happy ORCA user, please consider citing a few of the papers listed below in the main body of your paper

In addition to the list printed below, the program has created the file orca.bibtex that contains the list in bibtex format
You can import this file easily into all common literature databanks and citation aid programs


List of essential papers. We consider these as the minimum necessary citations

  1. Neese,F.
     Software update: the ORCA program system, version 5.0
     WIRES Comput. Molec. Sci., 2022 12(1)e1606
     doi.org/10.1002/wcms.1606

List of papers to cite with high priority. The work reported in these papers was absolutely
necessary for this run to complete.
Our perspective: the developers of density functionals and basis sets usually get cited in chemistry papers
Good! But without the algorithms to do something with them, the functionals or basis sets would not do anything.
Hence, in our opinion, the algorithm design and method developments papers are equally worthy of getting cited

  1. Neese,F.; Olbrich,G.
     Efficient use of the resolution of the identity approximation in time-dependent density functional calculations with hybrid density functionals
     Chem. Phys. Lett., 2002 362 170-178
     doi.org/10.1016/s0009-2614(02)01053-9
  2. Neese,F.
     An improvement of the resolution of the identity approximation for the formation of the Coulomb matrix
     J. Comp. Chem., 2003 24(14)1740-1747
     doi.org/10.1002/jcc.10318
  3. Neese,F.; Wennmohs,F.; Hansen,A.; Becker,U.
     Efficient, approximate and parallel Hartree-Fock and hybrid DFT calculations. A 'chain-of-spheres' algorithm for the Hartree-Fock exchange
     Chem. Phys., 2009 356(1-3)98-109
     doi.org/10.1016/j.chemphys.2008.10.036
  4. Petrenko,T.; Kossmann,S.; Neese,F.
     Efficient time-dependent density functional theory approximations for hybrid density functionals: Analytical gradients and parallelization
     J. Chem. Phys., 2011 134 054116
     doi.org/10.1063/1.3533441
  5. Helmich-Paris,B.; de Souza,B.; Neese,F.; Izsák,R.
     An improved chain of spheres for exchange algorithm
     J. Chem. Phys., 2021 155 104109
     doi.org/doi: 10.1063/5.0058766.
  6. Neese,F.
     The SHARK Integral Generation and Digestion System
     J. Comp. Chem., 2022  1-16
     doi.org/10.1002/jcc.26942
  7. Lehtola,S.; Steigemann,C.; Oliveira,M.; Marques,M.
     Recent developments in Libxc - A comprehensive library of functionals for density functional theory
     Software X, 2018 7 
     doi.org/10.1016/j.softx.2017.11.002
  8. Grimme,S.; Antony,J.; Ehrlich,S.; Krieg,H.
     A consistent and accurate ab initio parametrization of density functional dispersion correction (DFT-D) for the 94 elements H-Pu
     J. Chem. Phys., 2010 132 154104-XXXX
     doi.org/10.1063/1.3382344
  9. Grimme,S.; Ehrlich,S.; Goerigk,L.
     Effect of the damping function in dispersion corrected density functional theory
     J. Comput. Chem., 2011 32(7)1456-1465
     doi.org/10.1002/jcc.21759

List of suggested additional citations. These are papers that are important in the 'surrounding' of 
of this run, or papers that preceded the highly important papers. If you like your results we are grateful for a citation.

  1. Izsak,R.; Neese,F.
     An overlap fitted chain of spheres exchange method
     J. Chem. Phys., 2011 135 144105
     doi.org/10.1063/1.3646921
  2. Izsak,R.; Hansen,A.; Neese,F.
     The resolution of identity and chain of spheres approximations for the LPNO-CCSD singles Fock term
     Molec. Phys., 2012 110 2413-2417
     doi.org/10.1080/00268976.2012.687466
  3. Neese,F.
     The ORCA program system
     WIRES Comput. Molec. Sci., 2012 2(1)73-78
     doi.org/10.1002/wcms.81
  4. Izsak,R.; Neese,F.; Klopper,W.
     Robust fitting techniques in the chain of spheres approximation to the Fock exchange: The role of the complementary space
     J. Chem. Phys., 2013 139 
     doi.org/10.1063/1.4819264
  5. Neese,F.
     Software update: the ORCA program system, version 4.0
     WIRES Comput. Molec. Sci., 2018 8(1)1-6
     doi.org/10.1002/wcms.1327
  6. Neese,F.; Wennmohs,F.; Becker,U.; Riplinger,C.
     The ORCA quantum chemistry program package
     J. Chem. Phys., 2020 152 Art. No. L224108
     doi.org/10.1063/5.0004608

List of optional additional citations

  1. Neese,F.
     Approximate second-order SCF convergence for spin unrestricted wavefunctions
     Chem. Phys. Lett., 2000 325(1-3)93-98
     doi.org/10.1016/s0009-2614(00)00662-x

Timings for individual modules:

Sum of individual times          ...      292.219 sec (=   4.870 min)
Startup calculation              ...        6.418 sec (=   0.107 min)   2.2 %
SCF iterations                   ...      131.343 sec (=   2.189 min)  44.9 %
Property integrals               ...        4.170 sec (=   0.069 min)   1.4 %
Property calculations            ...        2.865 sec (=   0.048 min)   1.0 %
CIS module                       ...      147.423 sec (=   2.457 min)  50.4 %
                             ****ORCA TERMINATED NORMALLY****
TOTAL RUN TIME: 0 days 0 hours 4 minutes 54 seconds 329 msec
