
                                 *****************
                                 * O   R   C   A *
                                 *****************

                                            #,                                       
                                            ###                                      
                                            ####                                     
                                            #####                                    
                                            ######                                   
                                           ########,                                 
                                     ,,################,,,,,                         
                               ,,#################################,,                 
                          ,,##########################################,,             
                       ,#########################################, ''#####,          
                    ,#############################################,,   '####,        
                  ,##################################################,,,,####,       
                ,###########''''           ''''###############################       
              ,#####''   ,,,,##########,,,,          '''####'''          '####       
            ,##' ,,,,###########################,,,                        '##       
           ' ,,###''''                  '''############,,,                           
         ,,##''                                '''############,,,,        ,,,,,,###''
      ,#''                                            '''#######################'''  
     '                                                          ''''####''''         
             ,#######,   #######,   ,#######,      ##                                
            ,#'     '#,  ##    ##  ,#'     '#,    #''#        ,####,   ,####,        
            ##       ##  ##   ,#'  ##            #'  '#       #'       #'  '#        
            ##       ##  #######   ##           ,######,      #####,   #    #        
            '#,     ,#'  ##    ##  '#,     ,#' ,#      #,     #,   #   #,  ,#        
             '#######'   ##     ##  '#######'  #'      '#     '####' # '####'        



                #########################################################
                #                        -***-                          #
                #          Department of theory and spectroscopy        #
                #                                                       #
                #                      Frank Neese                      #
                #                                                       #
                #     Directorship, Architecture, Infrastructure        #
                #                    SHARK, DRIVERS                     #
                #        Core code/Algorithms in most modules           #
                #                                                       #
                #        Max Planck Institute fuer Kohlenforschung      #
                #                Kaiser Wilhelm Platz 1                 #
                #                 D-45470 Muelheim/Ruhr                 #
                #                      Germany                          #
                #                                                       #
                #                  All rights reserved                  #
                #                        -***-                          #
                #########################################################


                         Program Version 6.0.0  -   RELEASE  -


 With contributions from (in alphabetic order):
   Daniel Aravena         : Magnetic Suceptibility
   Michael Atanasov       : Ab Initio Ligand Field Theory (pilot matlab implementation)
   Alexander A. Auer      : GIAO ZORA, VPT2 properties, NMR spectrum
   Ute Becker             : All parallelization in ORCA, NUMFREQ, NUMCALC
   Giovanni Bistoni       : ED, misc. LED, open-shell LED, HFLD
   Martin Brehm           : Molecular dynamics
   Dmytro Bykov           : pre 5.0 version of the SCF Hessian
   Marcos Casanova-Páez   : Triplet and SCS-CIS(D). UHF-(DLPNO)-IP/EA/STEOM-CCSD. UHF-CVS-IP/STEOM-CCSD
   Vijay G. Chilkuri      : MRCI spin determinant printing, contributions to CSF-ICE
   Pauline Colinet        : FMM embedding
   Dipayan Datta          : RHF DLPNO-CCSD density
   Achintya Kumar Dutta   : EOM-CC, STEOM-CC
   Nicolas Foglia         : Exact transition moments, OPA infrastructure, MCD improvements
   Dmitry Ganyushin       : Spin-Orbit,Spin-Spin,Magnetic field MRCI
   Miquel Garcia          : C-PCM and meta-GGA Hessian, CCSD/C-PCM, Gaussian charge scheme
   Tiago L. C. Gouveia    : GS-ROHF, GS-ROCIS
   Yang Guo               : DLPNO-NEVPT2, F12-NEVPT2, CIM, IAO-localization
   Andreas Hansen         : Spin unrestricted coupled pair/coupled cluster methods
   Ingolf Harden          : AUTO-CI MPn and infrastructure 
   Benjamin Helmich-Paris : MC-RPA, TRAH-(SCF,CASSCF), AVAS, COSX integrals, SCF dyn. polar.
   Lee Huntington         : MR-EOM, pCC
   Robert Izsak           : Overlap fitted RIJCOSX, COSX-SCS-MP3, EOM
   Riya Kayal             : Wick's Theorem for AUTO-CI, AUTO-CI UHF-CCSDT
   Emily Kempfer          : AUTO-CI, RHF CISDT and CCSDT
   Christian Kollmar      : KDIIS, OOCD, Brueckner-CCSD(T), CCSD density, CASPT2, CASPT2-K, improved NEVPT2
   Axel Koslowski         : Symmetry handling
   Simone Kossmann        : Meta GGA functionals, TD-DFT gradient, OOMP2, (MP2 Hessian; deprecated post 5.0)
   Lucas Lang             : DCDCAS
   Marvin Lechner         : AUTO-CI (C++ implementation), FIC-MRCC
   Spencer Leger          : CASSCF response
   Dagmar Lenk            : GEPOL surface, SMD, ORCA-2-JSON
   Dimitrios Liakos       : Extrapolation schemes; Compound Job, initial MDCI parallelization
   Dimitrios Manganas     : Further ROCIS development; embedding schemes. LFT, Crystal Embedding
   Dimitrios Pantazis     : SARC Basis sets
   Anastasios Papadopoulos: AUTO-CI, single reference methods and gradients
   Taras Petrenko         : pre 6.0 DFT Hessian and TD-DFT gradient, (ASA, deprecated), ECA, 1-Electron XAS/XES, NRVS
   Peter Pinski           : DLPNO-MP2, DLPNO-MP2 Gradient
   Christoph Reimann      : Effective Core Potentials
   Marius Retegan         : Local ZFS, SOC
   Christoph Riplinger    : Optimizer, TS searches, QM/MM, DLPNO-CCSD(T), (RO)-DLPNO pert. Triples
   Michael Roemelt        : Original ROCIS implementation
   Masaaki Saitow         : Open-shell DLPNO-CCSD energy and density
   Barbara Sandhoefer     : DKH picture change effects
   Kantharuban Sivalingam : CASSCF convergence/infrastructure, NEVPT2 and variants, FIC-MRCI
   Bernardo de Souza      : ESD, SOC TD-DFT
   Georgi Stoychev        : AutoAux, RI-MP2 NMR, DLPNO-MP2 response, X2C
   Van Anh Tran           : RI-MP2 g-tensors
   Willem Van den Heuvel  : Paramagnetic NMR
   Zikuan Wang            : NOTCH, Electric field optimization 
   Frank Wennmohs         : Technical directorship and infrastructure
   Hang Xu                : AUTO-CI-Response properties 


 We gratefully acknowledge several colleagues who have allowed us to
 interface, adapt or use parts of their codes:
   Stefan Grimme, W. Hujo, H. Kruse, P. Pracht,  : VdW corrections, initial TS optimization,
                  C. Bannwarth, S. Ehlert,         DFT functionals, gCP, sTDA/sTD-DF
                  L. Wittmann, M. Mueller
   Ed Valeev, F. Pavosevic, A. Kumar             : LibInt (2-el integral package), F12 methods
   Garnet Chan, S. Sharma, J. Yang, R. Olivares  : DMRG
   Ulf Ekstrom                                   : XCFun DFT Library
   Mihaly Kallay                                 : mrcc  (arbitrary order and MRCC methods)
   Frank Weinhold                                : gennbo (NPA and NBO analysis)
   Simon Mueller                                 : openCOSMO-RS
   Christopher J. Cramer and Donald G. Truhlar   : smd solvation model
   Lars Goerigk                                  : TD-DFT with DH, B97 family of functionals
   V. Asgeirsson, H. Jonsson                     : NEB implementation
   FAccTs GmbH                                   : IRC, NEB, NEB-TS, DLPNO-Multilevel, CI-OPT
                                                   MM, QMMM, 2- and 3-layer-ONIOM, Crystal-QMMM,
                                                   LR-CPCM, SF, NACMEs, symmetry and pop. for TD-DFT,
                                                   nearIR, NL-DFT gradient (VV10), updates on ESD,
                                                   ML-optimized integration grids, MBIS, APM,
                                                   GOAT, DOCKER, SOLVATOR, interface openCOSMO-RS
   S Lehtola, MJT Oliveira, MAL Marques          : LibXC Library
   Liviu Ungur et al                             : ANISO software


 Your calculation uses the libint2 library for the computation of 2-el integrals
 For citations please refer to: http://libint.valeyev.net

 Your ORCA version has been built with support for libXC version: 6.2.2
 For citations please refer to: https://libxc.gitlab.io

 This ORCA versions uses:
   CBLAS   interface :  Fast vector & matrix operations
   LAPACKE interface :  Fast linear algebra routines
   SCALAPACK package :  Parallel linear algebra routines
   Shared memory     :  Shared parallel matrices
   BLAS/LAPACK       :  OpenBLAS 0.3.27  USE64BITINT DYNAMIC_ARCH NO_AFFINITY Zen SINGLE_THREADED
        Core in use  :  Zen
   Copyright (c) 2011-2014, The OpenBLAS Project


Your calculation utilizes the atom-pairwise dispersion correction
with the Becke-Johnson damping scheme (D3BJ)


Warning: RI is on but no J-basis has been assigned. Assigning Def2/J (nothing to worry about!)
================================================================================

----- Orbital basis set information -----
Your calculation utilizes the basis: def2-TZVPPD
   F. Weigend and R. Ahlrichs, Phys. Chem. Chem. Phys. 7, 3297 (2005).
   D. Rappoport and F. Furche, J. Chem. Phys. 133, 134105 (2010)
   D. Rappoport, J. Chem. Phys. 155, 124102 (2021).

----- AuxJ basis set information -----
Your calculation utilizes the auxiliary basis: def2/J
   F. Weigend, Phys. Chem. Chem. Phys. 8, 1057 (2006).

================================================================================
                                        WARNINGS
                       Please study these warnings very carefully!
================================================================================

Using LibXC functional ID 531 : wB97M-V exchange-correlation functional
[ 1]  N. Mardirossian and M. Head-Gordon.,  J. Chem. Phys. 144, 214110 (2016)
Using LibXC functional ID 531 : wB97M-V exchange-correlation functional
[ 1]  N. Mardirossian and M. Head-Gordon.,  J. Chem. Phys. 144, 214110 (2016)

WARNING: B97M-V or wB97M-V functional requested.
  ===> : libXC variant has now been activated.
         Any manually given DFX/HFX/RangeSep scaling parameters are IGNORED!

Your calculation utilizes LibXC
 by S Lehtola, C Steigemann, MJT Oliveira & MAL Marques
Please cite in your paper:
 S Lehtola, C Steigemann, MJT Oliveira & MAL Marques, SoftwareX, 7, (2018), 1.
   


WARNING: your system is open-shell and RHF/RKS was chosen
  ===> : WILL SWITCH to UHF/UKS

INFO   : Checking CIS options ...

WARNING: CIS/ROCIS methods need fully converged wavefunctions
  ===> : Setting SCFConvForced true
         You can overwrite this default with %scf ConvForced false 


================================================================================
                                       INPUT FILE
================================================================================
NAME = orca.inp
|  1> ! Engrad def2-TZVPPD wB97M-D3BJ 
|  2> %pal nprocs 8 end%pal nprocs 64 end 
|  3>  %tddft nroots 2 Iroot 1 
|  4> sf true 
|  5> end 
|  6> *xyz 0 3 
|  7> O   2.61400887492657 1.14760183702601 -0.52288945132194
|  8> O   -0.5787273055772 0.8719765981754 -2.27905425627099
|  9> O   0.66979983180006 -2.84472595952532 -1.48515481442183
| 10> O   -2.57116710157403 -1.63205891247911 0.94817092045489
| 11> N   0.57781828297181 -2.07331136482386 0.65553612248972
| 12> N   -1.99395616991586 0.51735740147548 1.42543384489986
| 13> N   1.7107571878654 -0.8834465929352 -0.95850999641316
| 14> N   -1.63013848411735 -0.33397649588858 -0.67760153123174
| 15> C   1.37216802296585 0.10744106932192 1.20926072028414
| 16> C   -0.79978597119323 1.86583294527702 -0.13263120575615
| 17> C   0.74413498991857 -1.02938238519676 1.53579984080912
| 18> C   -1.35184688541584 1.68150701876206 1.07080500470799
| 19> C   1.63244412369122 1.22018566376677 2.17203293313836
| 20> C   -0.08648661616919 3.11406685113493 -0.54097700744724
| 21> C   1.96031579019895 0.20545624296117 -0.12726933831182
| 22> C   -0.9696229552942 0.81225383256195 -1.13538861994871
| 23> C   0.96331178617357 -2.00366535940552 -0.66597710561035
| 24> C   -2.10754494620541 -0.56956012868265 0.58897876452679
| 25> H   0.32199819711226 -1.19217127208408 2.51583131479455
| 26> H   -1.3020906034587 2.43096189175676 1.84571396223961
| 27> H   1.36371710925316 2.17832785132906 1.73426724579881
| 28> H   1.06891033757097 1.07615864900375 3.09181407468095
| 29> H   2.6914315556351 1.27404745484942 2.41928764553543
| 30> H   -0.55682582750588 3.54991142686566 -1.42007179130007
| 31> H   -0.10007573636468 3.84543971631292 0.26436392281441
| 32> H   0.9465668617364 2.89270235739166 -0.80040989193555
| 33> H   -0.06372014389288 -2.81643109182533 0.87432326776099
| 34> H   -2.36150637700536 0.38853135371734 2.35040270027143
| 35> H   1.99086304350135 -0.7843464946481 -1.92202707596784
| 36> H   -1.70215087163145 -1.10168410419482 -1.32946019926963
| 37> *
| 38> 
| 39>                          ****END OF INPUT****
================================================================================

                     *******************************
                     * Energy+Gradient Calculation *
                     *******************************

---------------------------------
CARTESIAN COORDINATES (ANGSTROEM)
---------------------------------
  O      2.614009    1.147602   -0.522889
  O     -0.578727    0.871977   -2.279054
  O      0.669800   -2.844726   -1.485155
  O     -2.571167   -1.632059    0.948171
  N      0.577818   -2.073311    0.655536
  N     -1.993956    0.517357    1.425434
  N      1.710757   -0.883447   -0.958510
  N     -1.630138   -0.333976   -0.677602
  C      1.372168    0.107441    1.209261
  C     -0.799786    1.865833   -0.132631
  C      0.744135   -1.029382    1.535800
  C     -1.351847    1.681507    1.070805
  C      1.632444    1.220186    2.172033
  C     -0.086487    3.114067   -0.540977
  C      1.960316    0.205456   -0.127269
  C     -0.969623    0.812254   -1.135389
  C      0.963312   -2.003665   -0.665977
  C     -2.107545   -0.569560    0.588979
  H      0.321998   -1.192171    2.515831
  H     -1.302091    2.430962    1.845714
  H      1.363717    2.178328    1.734267
  H      1.068910    1.076159    3.091814
  H      2.691432    1.274047    2.419288
  H     -0.556826    3.549911   -1.420072
  H     -0.100076    3.845440    0.264364
  H      0.946567    2.892702   -0.800410
  H     -0.063720   -2.816431    0.874323
  H     -2.361506    0.388531    2.350403
  H      1.990863   -0.784346   -1.922027
  H     -1.702151   -1.101684   -1.329460

----------------------------
CARTESIAN COORDINATES (A.U.)
----------------------------
  NO LB      ZA    FRAG     MASS         X           Y           Z
   0 O     8.0000    0    15.999    4.939761    2.168653   -0.988118
   1 O     8.0000    0    15.999   -1.093636    1.647797   -4.306788
   2 O     8.0000    0    15.999    1.265738   -5.375753   -2.806536
   3 O     8.0000    0    15.999   -4.858802   -3.084144    1.791783
   4 N     7.0000    0    14.007    1.091918   -3.917991    1.238784
   5 N     7.0000    0    14.007   -3.768031    0.977664    2.693680
   6 N     7.0000    0    14.007    3.232863   -1.669472   -1.811321
   7 N     7.0000    0    14.007   -3.080515   -0.631124   -1.280481
   8 C     6.0000    0    12.011    2.593022    0.203034    2.285172
   9 C     6.0000    0    12.011   -1.511376    3.525913   -0.250637
  10 C     6.0000    0    12.011    1.406211   -1.945251    2.902241
  11 C     6.0000    0    12.011   -2.554620    3.177588    2.023528
  12 C     6.0000    0    12.011    3.084872    2.305817    4.104547
  13 C     6.0000    0    12.011   -0.163436    5.884734   -1.022298
  14 C     6.0000    0    12.011    3.704460    0.388256   -0.240504
  15 C     6.0000    0    12.011   -1.832322    1.534937   -2.145574
  16 C     6.0000    0    12.011    1.820395   -3.786379   -1.258514
  17 C     6.0000    0    12.011   -3.982683   -1.076313    1.113009
  18 H     1.0000    0     1.008    0.608488   -2.252877    4.754232
  19 H     1.0000    0     1.008   -2.460595    4.593852    3.487894
  20 H     1.0000    0     1.008    2.577052    4.116443    3.277290
  21 H     1.0000    0     1.008    2.019948    2.033645    5.842682
  22 H     1.0000    0     1.008    5.086069    2.407601    4.571791
  23 H     1.0000    0     1.008   -1.052248    6.708360   -2.683547
  24 H     1.0000    0     1.008   -0.189116    7.266828    0.499575
  25 H     1.0000    0     1.008    1.788752    5.466415   -1.512555
  26 H     1.0000    0     1.008   -0.120414   -5.322283    1.652232
  27 H     1.0000    0     1.008   -4.462600    0.734218    4.441617
  28 H     1.0000    0     1.008    3.762186   -1.482200   -3.632105
  29 H     1.0000    0     1.008   -3.216599   -2.081881   -2.512316

--------------------------------
INTERNAL COORDINATES (ANGSTROEM)
--------------------------------
 O      0   0   0     0.000000000000     0.00000000     0.00000000
 O      1   0   0     3.654264414726     0.00000000     0.00000000
 O      2   1   0     4.000371762593    72.66358661     0.00000000
 O      3   2   1     4.230307573006    66.96514161   106.85530040
 N      3   2   1     2.277300763979    81.90730871    59.19679652
 N      4   3   2     2.276168458039   101.36309360   318.86263746
 N      1   2   3     2.265123968866    59.43896319   359.83302861
 N      2   1   3     2.263722412748    96.08476466    56.63876437
 C      1   2   3     2.371591731573    81.97669529   297.10060831
 C      2   1   3     2.375657652967    67.38965702   113.61368186
 C      9   1   2     1.339186639186   142.74718406    65.82375595
 C     10   2   1     1.336789442229   142.57214972   244.23392155
 C      9   1   2     1.494280601132    93.02496352   237.90742930
 C     10   2   1     1.494533421296    93.33265674    69.26165848
 C      1   2   3     1.213040907494    68.11943678   325.40588344
 C      2   1   3     1.210098056111    80.31426922    84.97228465
 C      3   2   1     1.210200115290    64.17229976    33.14164677
 C      4   3   2     1.213617803675    77.76321131   338.33788718
 H     11   9   1     1.079426414137   122.19510819   174.55768820
 H     12  10   2     1.079185890712   122.11509308   184.96715505
 H     13   9   1     1.087147394279   110.72015942    52.39997697
 H     13   9   1     1.088260748818   110.84285476   173.75696190
 H     13   9   1     1.088802262285   110.64423258   294.24495830
 H     14  10   2     1.088111716191   110.42493873    54.56227462
 H     14  10   2     1.087963669458   110.68584830   175.18973576
 H     14  10   2     1.087891147522   110.39098990   295.93174254
 H      5   3   2     1.005816234080    88.85207843   122.21700790
 H      6   4   3     1.003621785694    88.80601215   217.46304410
 H      7   1   2     1.008288293315    89.13308243    75.41555799
 H      8   2   1     1.009693259809    88.93740933   244.25210497

---------------------------
INTERNAL COORDINATES (A.U.)
---------------------------
 O      0   0   0     0.000000000000     0.00000000     0.00000000
 O      1   0   0     6.905558964766     0.00000000     0.00000000
 O      2   1   0     7.559607065173    72.66358661     0.00000000
 O      3   2   1     7.994122775234    66.96514161   106.85530040
 N      3   2   1     4.303474768490    81.90730871    59.19679652
 N      4   3   2     4.301335020363   101.36309360   318.86263746
 N      1   2   3     4.280463960538    59.43896319   359.83302861
 N      2   1   3     4.277815403313    96.08476466    56.63876437
 C      1   2   3     4.481658874145    81.97669529   297.10060831
 C      2   1   3     4.489342352061    67.38965702   113.61368186
 C      9   1   2     2.530695990269   142.74718406    65.82375595
 C     10   2   1     2.526165944530   142.57214972   244.23392155
 C      9   1   2     2.823781103371    93.02496352   237.90742930
 C     10   2   1     2.824258864241    93.33265674    69.26165848
 C      1   2   3     2.292315104408    68.11943678   325.40588344
 C      2   1   3     2.286753921241    80.31426922    84.97228465
 C      3   2   1     2.286946785138    64.17229976    33.14164677
 C      4   3   2     2.293405280197    77.76321131   338.33788718
 H     11   9   1     2.039820304440   122.19510819   174.55768820
 H     12  10   2     2.039365781038   122.11509308   184.96715505
 H     13   9   1     2.054410842393   110.72015942    52.39997697
 H     13   9   1     2.056514777562   110.84285476   173.75696190
 H     13   9   1     2.057538089712   110.64423258   294.24495830
 H     14  10   2     2.056233146712   110.42493873    54.56227462
 H     14  10   2     2.055953378932   110.68584830   175.18973576
 H     14  10   2     2.055816332334   110.39098990   295.93174254
 H      5   3   2     1.900717223463    88.85207843   122.21700790
 H      6   4   3     1.896570316999    88.80601215   217.46304410
 H      7   1   2     1.905388738404    89.13308243    75.41555799
 H      8   2   1     1.908043740304    88.93740933   244.25210497

---------------------
BASIS SET INFORMATION
---------------------
There are 4 groups of distinct atoms

 Group   1 Type O   : 12s7p3d1f contracted to 6s4p3d1f pattern {621111/4111/111/1}
 Group   2 Type N   : 12s6p3d1f contracted to 6s3p3d1f pattern {621111/411/111/1}
 Group   3 Type C   : 12s6p3d1f contracted to 6s3p3d1f pattern {621111/411/111/1}
 Group   4 Type H   : 5s3p1d contracted to 3s3p1d pattern {311/111/1}

Atom   0O    basis set group =>   1
Atom   1O    basis set group =>   1
Atom   2O    basis set group =>   1
Atom   3O    basis set group =>   1
Atom   4N    basis set group =>   2
Atom   5N    basis set group =>   2
Atom   6N    basis set group =>   2
Atom   7N    basis set group =>   2
Atom   8C    basis set group =>   3
Atom   9C    basis set group =>   3
Atom  10C    basis set group =>   3
Atom  11C    basis set group =>   3
Atom  12C    basis set group =>   3
Atom  13C    basis set group =>   3
Atom  14C    basis set group =>   3
Atom  15C    basis set group =>   3
Atom  16C    basis set group =>   3
Atom  17C    basis set group =>   3
Atom  18H    basis set group =>   4
Atom  19H    basis set group =>   4
Atom  20H    basis set group =>   4
Atom  21H    basis set group =>   4
Atom  22H    basis set group =>   4
Atom  23H    basis set group =>   4
Atom  24H    basis set group =>   4
Atom  25H    basis set group =>   4
Atom  26H    basis set group =>   4
Atom  27H    basis set group =>   4
Atom  28H    basis set group =>   4
Atom  29H    basis set group =>   4
---------------------------------
AUXILIARY/J BASIS SET INFORMATION
---------------------------------
There are 4 groups of distinct atoms

 Group   1 Type O   : 12s5p4d2f1g contracted to 6s4p3d1f1g pattern {711111/2111/211/2/1}
 Group   2 Type N   : 12s5p4d2f1g contracted to 6s4p3d1f1g pattern {711111/2111/211/2/1}
 Group   3 Type C   : 12s5p4d2f1g contracted to 6s4p3d1f1g pattern {711111/2111/211/2/1}
 Group   4 Type H   : 5s2p1d contracted to 3s1p1d pattern {311/2/1}

Atom   0O    basis set group =>   1
Atom   1O    basis set group =>   1
Atom   2O    basis set group =>   1
Atom   3O    basis set group =>   1
Atom   4N    basis set group =>   2
Atom   5N    basis set group =>   2
Atom   6N    basis set group =>   2
Atom   7N    basis set group =>   2
Atom   8C    basis set group =>   3
Atom   9C    basis set group =>   3
Atom  10C    basis set group =>   3
Atom  11C    basis set group =>   3
Atom  12C    basis set group =>   3
Atom  13C    basis set group =>   3
Atom  14C    basis set group =>   3
Atom  15C    basis set group =>   3
Atom  16C    basis set group =>   3
Atom  17C    basis set group =>   3
Atom  18H    basis set group =>   4
Atom  19H    basis set group =>   4
Atom  20H    basis set group =>   4
Atom  21H    basis set group =>   4
Atom  22H    basis set group =>   4
Atom  23H    basis set group =>   4
Atom  24H    basis set group =>   4
Atom  25H    basis set group =>   4
Atom  26H    basis set group =>   4
Atom  27H    basis set group =>   4
Atom  28H    basis set group =>   4
Atom  29H    basis set group =>   4
[1738794713.716582] [ohm:2974791:0]        ib_iface.c:1059 UCX  ERROR ibv_create_cq(cqe=256) failed: Connection timed out
[1738794713.718009] [ohm:2974787:0]        ib_iface.c:1059 UCX  ERROR ibv_create_cq(cqe=256) failed: Connection timed out
[1738794713.722522] [ohm:2974796:0]        ib_iface.c:1059 UCX  ERROR ibv_create_cq(cqe=256) failed: Connection timed out
[1738794713.732889] [ohm:2974795:0]        ib_iface.c:1059 UCX  ERROR ibv_create_cq(cqe=256) failed: Connection timed out
[1738794713.738933] [ohm:2974788:0]        ib_iface.c:1059 UCX  ERROR ibv_create_cq(cqe=256) failed: Connection timed out
[1738794713.742969] [ohm:2974789:0]        ib_iface.c:1059 UCX  ERROR ibv_create_cq(cqe=256) failed: Connection timed out
[1738794713.790266] [ohm:2974794:0]        ib_iface.c:1059 UCX  ERROR ibv_create_cq(cqe=256) failed: Connection timed out
[1738794713.792723] [ohm:2974797:0]        ib_iface.c:1059 UCX  ERROR ibv_create_cq(cqe=256) failed: Connection timed out
[1738794713.794596] [ohm:2974792:0]        ib_iface.c:1059 UCX  ERROR ibv_create_cq(cqe=256) failed: Connection timed out
[1738794713.797636] [ohm:2974790:0]        ib_iface.c:1059 UCX  ERROR ibv_create_cq(cqe=256) failed: Connection timed out
[1738794713.800024] [ohm:2974818:0]        ib_iface.c:1059 UCX  ERROR ibv_create_cq(cqe=256) failed: Connection timed out
[1738794713.811025] [ohm:2974798:0]        ib_iface.c:1059 UCX  ERROR ibv_create_cq(cqe=256) failed: Connection timed out
[1738794713.820793] [ohm:2974793:0]        ib_iface.c:1059 UCX  ERROR ibv_create_cq(cqe=256) failed: Connection timed out
[1738794713.841560] [ohm:2974800:0]        ib_iface.c:1059 UCX  ERROR ibv_create_cq(cqe=256) failed: Connection timed out
[1738794713.841833] [ohm:2974801:0]        ib_iface.c:1059 UCX  ERROR ibv_create_cq(cqe=256) failed: Connection timed out
[1738794713.855111] [ohm:2974799:0]        ib_iface.c:1059 UCX  ERROR ibv_create_cq(cqe=256) failed: Connection timed out
[1738794713.882623] [ohm:2974820:0]        ib_iface.c:1059 UCX  ERROR ibv_create_cq(cqe=256) failed: Connection timed out
[1738794713.887108] [ohm:2974821:0]        ib_iface.c:1059 UCX  ERROR ibv_create_cq(cqe=256) failed: Connection timed out
[1738794713.887928] [ohm:2974826:0]        ib_iface.c:1059 UCX  ERROR ibv_create_cq(cqe=256) failed: Connection timed out
[1738794713.889439] [ohm:2974854:0]        ib_iface.c:1059 UCX  ERROR ibv_create_cq(cqe=256) failed: Connection timed out
[1738794713.893871] [ohm:2974842:0]        ib_iface.c:1059 UCX  ERROR ibv_create_cq(cqe=256) failed: Connection timed out
[1738794713.906434] [ohm:2974852:0]        ib_iface.c:1059 UCX  ERROR ibv_create_cq(cqe=256) failed: Connection timed out
[1738794713.919411] [ohm:2974817:0]        ib_iface.c:1059 UCX  ERROR ibv_create_cq(cqe=256) failed: Connection timed out
[1738794713.922459] [ohm:2974822:0]        ib_iface.c:1059 UCX  ERROR ibv_create_cq(cqe=256) failed: Connection timed out
[1738794713.924874] [ohm:2974819:0]        ib_iface.c:1059 UCX  ERROR ibv_create_cq(cqe=256) failed: Connection timed out
[1738794713.944209] [ohm:2974921:0]        ib_iface.c:1059 UCX  ERROR ibv_create_cq(cqe=256) failed: Connection timed out
[1738794713.944273] [ohm:2974833:0]        ib_iface.c:1059 UCX  ERROR ibv_create_cq(cqe=256) failed: Connection timed out
[1738794713.953602] [ohm:2974901:0]        ib_iface.c:1059 UCX  ERROR ibv_create_cq(cqe=256) failed: Connection timed out
[1738794713.969115] [ohm:2974848:0]        ib_iface.c:1059 UCX  ERROR ibv_create_cq(cqe=256) failed: Connection timed out
[1738794713.971622] [ohm:2974851:0]        ib_iface.c:1059 UCX  ERROR ibv_create_cq(cqe=256) failed: Connection timed out
[1738794713.973480] [ohm:2974868:0]        ib_iface.c:1059 UCX  ERROR ibv_create_cq(cqe=256) failed: Connection timed out
[1738794713.976989] [ohm:2974829:0]        ib_iface.c:1059 UCX  ERROR ibv_create_cq(cqe=256) failed: Connection timed out
[1738794713.980766] [ohm:2974836:0]        ib_iface.c:1059 UCX  ERROR ibv_create_cq(cqe=256) failed: Connection timed out
[1738794713.983998] [ohm:2974840:0]        ib_iface.c:1059 UCX  ERROR ibv_create_cq(cqe=256) failed: Connection timed out
[1738794713.985304] [ohm:2974935:0]        ib_iface.c:1059 UCX  ERROR ibv_create_cq(cqe=256) failed: Connection timed out
[1738794713.990983] [ohm:2974909:0]        ib_iface.c:1059 UCX  ERROR ibv_create_cq(cqe=256) failed: Connection timed out
[1738794714.008179] [ohm:2974881:0]        ib_iface.c:1059 UCX  ERROR ibv_create_cq(cqe=256) failed: Connection timed out
[1738794714.008455] [ohm:2974855:0]        ib_iface.c:1059 UCX  ERROR ibv_create_cq(cqe=256) failed: Connection timed out
[1738794714.016917] [ohm:2974849:0]        ib_iface.c:1059 UCX  ERROR ibv_create_cq(cqe=256) failed: Connection timed out
[1738794714.020774] [ohm:2974913:0]        ib_iface.c:1059 UCX  ERROR ibv_create_cq(cqe=256) failed: Connection timed out
[1738794714.021525] [ohm:2974933:0]        ib_iface.c:1059 UCX  ERROR ibv_create_cq(cqe=256) failed: Connection timed out
[1738794714.022523] [ohm:2974929:0]        ib_iface.c:1059 UCX  ERROR ibv_create_cq(cqe=256) failed: Connection timed out
[1738794714.023842] [ohm:2974888:0]        ib_iface.c:1059 UCX  ERROR ibv_create_cq(cqe=256) failed: Connection timed out
[1738794714.028601] [ohm:2974860:0]        ib_iface.c:1059 UCX  ERROR ibv_create_cq(cqe=256) failed: Connection timed out
[1738794714.029575] [ohm:2974853:0]        ib_iface.c:1059 UCX  ERROR ibv_create_cq(cqe=256) failed: Connection timed out
[1738794714.029706] [ohm:2974875:0]        ib_iface.c:1059 UCX  ERROR ibv_create_cq(cqe=256) failed: Connection timed out
[1738794714.029717] [ohm:2974903:0]        ib_iface.c:1059 UCX  ERROR ibv_create_cq(cqe=256) failed: Connection timed out
[1738794714.029812] [ohm:2974857:0]        ib_iface.c:1059 UCX  ERROR ibv_create_cq(cqe=256) failed: Connection timed out
[1738794714.033192] [ohm:2974916:0]        ib_iface.c:1059 UCX  ERROR ibv_create_cq(cqe=256) failed: Connection timed out
[1738794714.036304] [ohm:2974907:0]        ib_iface.c:1059 UCX  ERROR ibv_create_cq(cqe=256) failed: Connection timed out
[1738794714.042623] [ohm:2974923:0]        ib_iface.c:1059 UCX  ERROR ibv_create_cq(cqe=256) failed: Connection timed out
[1738794714.046184] [ohm:2974863:0]        ib_iface.c:1059 UCX  ERROR ibv_create_cq(cqe=256) failed: Connection timed out
[1738794714.046244] [ohm:2974879:0]        ib_iface.c:1059 UCX  ERROR ibv_create_cq(cqe=256) failed: Connection timed out
[1738794714.046480] [ohm:2974900:0]        ib_iface.c:1059 UCX  ERROR ibv_create_cq(cqe=256) failed: Connection timed out
[1738794714.047751] [ohm:2974884:0]        ib_iface.c:1059 UCX  ERROR ibv_create_cq(cqe=256) failed: Connection timed out
[1738794714.048033] [ohm:2974895:0]        ib_iface.c:1059 UCX  ERROR ibv_create_cq(cqe=256) failed: Connection timed out
[1738794714.051328] [ohm:2974892:0]        ib_iface.c:1059 UCX  ERROR ibv_create_cq(cqe=256) failed: Connection timed out
[1738794714.056658] [ohm:2974850:0]        ib_iface.c:1059 UCX  ERROR ibv_create_cq(cqe=256) failed: Connection timed out
[1738794714.056913] [ohm:2974858:0]        ib_iface.c:1059 UCX  ERROR ibv_create_cq(cqe=256) failed: Connection timed out
[1738794714.057167] [ohm:2974802:0]        ib_iface.c:1059 UCX  ERROR ibv_create_cq(cqe=256) failed: Connection timed out
[1738794714.059047] [ohm:2974846:0]        ib_iface.c:1059 UCX  ERROR ibv_create_cq(cqe=256) failed: Connection timed out
[1738794714.059454] [ohm:2974856:0]        ib_iface.c:1059 UCX  ERROR ibv_create_cq(cqe=256) failed: Connection timed out
[1738794714.059830] [ohm:2974886:0]        ib_iface.c:1059 UCX  ERROR ibv_create_cq(cqe=256) failed: Connection timed out
[1738794714.060874] [ohm:2974871:0]        ib_iface.c:1059 UCX  ERROR ibv_create_cq(cqe=256) failed: Connection timed out


           ************************************************************
           *        Program running with 64 parallel MPI-processes    *
           *              working on a common directory               *
           ************************************************************
------------------------------------------------------------------------------
                             ORCA STARTUP CALCULATIONS
                           -- RI-GTO INTEGRALS CHOSEN --
------------------------------------------------------------------------------
------------------------------------------------------------------------------
                   ___                                                        
                  /   \      - P O W E R E D   B Y -                         
                 /     \                                                     
                 |  |  |   _    _      __       _____    __    __             
                 |  |  |  | |  | |    /  \     |  _  \  |  |  /  |          
                  \  \/   | |  | |   /    \    | | | |  |  | /  /          
                 / \  \   | |__| |  /  /\  \   | |_| |  |  |/  /          
                |  |  |   |  __  | /  /__\  \  |    /   |      \           
                |  |  |   | |  | | |   __   |  |    \   |  |\   \          
                \     /   | |  | | |  |  |  |  | |\  \  |  | \   \       
                 \___/    |_|  |_| |__|  |__|  |_| \__\ |__|  \__/        
                                                                              
                      - O R C A' S   B I G   F R I E N D -                    
                                      &                                       
                       - I N T E G R A L  F E E D E R -                       
                                                                              
 v1 FN, 2020, v2 2021, v3 2022-2024                                           
------------------------------------------------------------------------------


----------------------
SHARK INTEGRAL PACKAGE
----------------------

Number of atoms                             ...     30
Number of basis functions                   ...    882
Number of shells                            ...    322
Maximum angular momentum                    ...      3
Integral batch strategy                     ... SHARK/LIBINT Hybrid
RI-J (if used) integral strategy            ... SPLIT-RIJ (Revised 2003 algorithm where possible)
Printlevel                                  ...      1
Contraction scheme used                     ... SEGMENTED contraction
Prescreening option                         ... SCHWARTZ
   Thresh                                   ... 2.500e-11
   Tcut                                     ... 2.500e-12
   Tpresel                                  ... 2.500e-12 
Coulomb Range Separation                    ... NOT USED
Exchange Range Separation                   ... Long Range
   Mu parameter                             ... 3.000e-01
   Scaling (regular/separated)              ... 1.500e-01 8.500e-01
Multipole approximations                    ... NOT USED
Finite Nucleus Model                        ... NOT USED
CABS basis                                  ... NOT available
Auxiliary Coulomb fitting basis             ... AVAILABLE
   # of basis functions in Aux-J            ...   1014
   # of shells in Aux-J                     ...    330
   Maximum angular momentum in Aux-J        ...      4
Auxiliary J/K fitting basis                 ... NOT available
Auxiliary Correlation fitting basis         ... NOT available
Auxiliary 'external' fitting basis          ... NOT available

Checking pre-screening integrals            ... done (  0.0 sec) Dimension = 322
Check shell pair data                       ... done (  0.0 sec)
Shell pair information
Shell pair cut-off parameter TPreSel        ...   2.5e-12
Total number of shell pairs                 ...     52003
Shell pairs after pre-screening             ...     45464
Total number of primitive shell pairs       ...    129718
Primitive shell pairs kept                  ...     84743
          la=0 lb=0:   8785 shell pairs
          la=1 lb=0:  11995 shell pairs
          la=1 lb=1:   4142 shell pairs
          la=2 lb=0:   8165 shell pairs
          la=2 lb=1:   5647 shell pairs
          la=2 lb=2:   1949 shell pairs
          la=3 lb=0:   2101 shell pairs
          la=3 lb=1:   1505 shell pairs
          la=3 lb=2:   1026 shell pairs
          la=3 lb=3:    149 shell pairs

Calculating one electron integrals          ... done (  0.2 sec)
Calculating RI/J V-Matrix + Cholesky decomp.... done (  0.1 sec)
Calculating Nuclear repulsion               ... done (  0.0 sec) ENN=   1460.498577213493 Eh

Diagonalization of the overlap matrix:
Smallest eigenvalue                        ... 4.598e-07
Time for diagonalization                   ...    0.124 sec
Threshold for overlap eigenvalues          ... 1.000e-07
Number of eigenvalues below threshold      ... 0

IMPORTANT:
Smallest eigenvalue of S below the DiffSThresh (1.000e-06) while
Thresh>1e-12 and/or TCut>1e-13! In order to avoid SCF convergence issues,
Thresh will be set to at least 1e-12 and TCut to at least 1e-13.
This can be turned off by adding %SCF DiffSThresh -1 END to the input.

Time for construction of square roots      ...    0.137 sec
Total time needed                          ...    0.276 sec

-------------------
DFT GRID GENERATION
-------------------

General Integration Accuracy     IntAcc      ... 4.388
Radial Grid Type                 RadialGrid  ... OptM3 with GC (2021)
Angular Grid (max. ang.)         AngularGrid ... 4 (Lebedev-302)
Angular grid pruning method      GridPruning ... 4 (adaptive)
Weight generation scheme         WeightScheme... mBecke (2022)
Basis function cutoff            BFCut       ... 1.0000e-11
Integration weight cutoff        WCut        ... 1.0000e-14
Partially contracted basis set               ... off
Rotationally invariant grid construction     ... off
Angular grids for H and He will be reduced by one unit
Diffuse basis detected: some atoms will have their outermost
                        angular grid increased by 1.

Total number of grid points                  ...   152033
Total number of batches                      ...     2391
Average number of points per batch           ...       63
Average number of grid points per atom       ...     5068

--------------------
COSX GRID GENERATION
--------------------

GRIDX 1
-------
General Integration Accuracy     IntAcc      ... 3.816
Radial Grid Type                 RadialGrid  ... OptM3 with GC (2021)
Angular Grid (max. ang.)         AngularGrid ... 1 (Lebedev-50)
Angular grid pruning method      GridPruning ... 4 (adaptive)
Weight generation scheme         WeightScheme... mBecke (2022)
Basis function cutoff            BFCut       ... 1.0000e-11
Integration weight cutoff        WCut        ... 1.0000e-14
Partially contracted basis set               ... on
Rotationally invariant grid construction     ... off
Angular grids for H and He will be reduced by one unit
Diffuse basis detected: some atoms will have their outermost
                        angular grid increased by 1.

Total number of grid points                  ...    19028
Total number of batches                      ...      165
Average number of points per batch           ...      115
Average number of grid points per atom       ...      634
UseSFitting                                  ... on

GRIDX 2
-------
General Integration Accuracy     IntAcc      ... 4.020
Radial Grid Type                 RadialGrid  ... OptM3 with GC (2021)
Angular Grid (max. ang.)         AngularGrid ... 2 (Lebedev-110)
Angular grid pruning method      GridPruning ... 4 (adaptive)
Weight generation scheme         WeightScheme... mBecke (2022)
Basis function cutoff            BFCut       ... 1.0000e-11
Integration weight cutoff        WCut        ... 1.0000e-14
Partially contracted basis set               ... on
Rotationally invariant grid construction     ... off
Angular grids for H and He will be reduced by one unit
Diffuse basis detected: some atoms will have their outermost
                        angular grid increased by 1.

Total number of grid points                  ...    45832
Total number of batches                      ...      374
Average number of points per batch           ...      122
Average number of grid points per atom       ...     1528
UseSFitting                                  ... on

GRIDX 3
-------
General Integration Accuracy     IntAcc      ... 4.338
Radial Grid Type                 RadialGrid  ... OptM3 with GC (2021)
Angular Grid (max. ang.)         AngularGrid ... 3 (Lebedev-194)
Angular grid pruning method      GridPruning ... 4 (adaptive)
Weight generation scheme         WeightScheme... mBecke (2022)
Basis function cutoff            BFCut       ... 1.0000e-11
Integration weight cutoff        WCut        ... 1.0000e-14
Partially contracted basis set               ... on
Rotationally invariant grid construction     ... off
Angular grids for H and He will be reduced by one unit
Diffuse basis detected: some atoms will have their outermost
                        angular grid increased by 1.

Total number of grid points                  ...   100858
Total number of batches                      ...      805
Average number of points per batch           ...      125
Average number of grid points per atom       ...     3362
UseSFitting                                  ... on
Initializing property integral containers    ... done (  0.0 sec)

SHARK setup successfully completed in   4.2 seconds

Maximum memory used throughout the entire STARTUP-calculation: 80.6 MB
[1738794720.249082] [ohm:2975118:0]        ib_iface.c:1059 UCX  ERROR ibv_create_cq(cqe=256) failed: Connection timed out
[1738794720.249140] [ohm:2975115:0]        ib_iface.c:1059 UCX  ERROR ibv_create_cq(cqe=256) failed: Connection timed out
[1738794720.258161] [ohm:2975117:0]        ib_iface.c:1059 UCX  ERROR ibv_create_cq(cqe=256) failed: Connection timed out
[1738794720.260934] [ohm:2975122:0]        ib_iface.c:1059 UCX  ERROR ibv_create_cq(cqe=256) failed: Connection timed out
[1738794720.265821] [ohm:2975116:0]        ib_iface.c:1059 UCX  ERROR ibv_create_cq(cqe=256) failed: Connection timed out
[1738794720.279312] [ohm:2975121:0]        ib_iface.c:1059 UCX  ERROR ibv_create_cq(cqe=256) failed: Connection timed out
[1738794720.282376] [ohm:2975120:0]        ib_iface.c:1059 UCX  ERROR ibv_create_cq(cqe=256) failed: Connection timed out
[1738794720.298409] [ohm:2975119:0]        ib_iface.c:1059 UCX  ERROR ibv_create_cq(cqe=256) failed: Connection timed out
[1738794720.314238] [ohm:2975130:0]        ib_iface.c:1059 UCX  ERROR ibv_create_cq(cqe=256) failed: Connection timed out
[1738794720.332400] [ohm:2975129:0]        ib_iface.c:1059 UCX  ERROR ibv_create_cq(cqe=256) failed: Connection timed out
[1738794720.337362] [ohm:2975126:0]        ib_iface.c:1059 UCX  ERROR ibv_create_cq(cqe=256) failed: Connection timed out
[1738794720.339289] [ohm:2975139:0]        ib_iface.c:1059 UCX  ERROR ibv_create_cq(cqe=256) failed: Connection timed out
[1738794720.342925] [ohm:2975125:0]        ib_iface.c:1059 UCX  ERROR ibv_create_cq(cqe=256) failed: Connection timed out
[1738794720.348685] [ohm:2975123:0]        ib_iface.c:1059 UCX  ERROR ibv_create_cq(cqe=256) failed: Connection timed out
[1738794720.354404] [ohm:2975138:0]        ib_iface.c:1059 UCX  ERROR ibv_create_cq(cqe=256) failed: Connection timed out
[1738794720.369707] [ohm:2975127:0]        ib_iface.c:1059 UCX  ERROR ibv_create_cq(cqe=256) failed: Connection timed out
[1738794720.373926] [ohm:2975124:0]        ib_iface.c:1059 UCX  ERROR ibv_create_cq(cqe=256) failed: Connection timed out
[1738794720.375050] [ohm:2975132:0]        ib_iface.c:1059 UCX  ERROR ibv_create_cq(cqe=256) failed: Connection timed out
[1738794720.380033] [ohm:2975134:0]        ib_iface.c:1059 UCX  ERROR ibv_create_cq(cqe=256) failed: Connection timed out
[1738794720.380238] [ohm:2975147:0]        ib_iface.c:1059 UCX  ERROR ibv_create_cq(cqe=256) failed: Connection timed out
[1738794720.436910] [ohm:2975128:0]        ib_iface.c:1059 UCX  ERROR ibv_create_cq(cqe=256) failed: Connection timed out
[1738794720.450142] [ohm:2975181:0]        ib_iface.c:1059 UCX  ERROR ibv_create_cq(cqe=256) failed: Connection timed out
[1738794720.450363] [ohm:2975173:0]        ib_iface.c:1059 UCX  ERROR ibv_create_cq(cqe=256) failed: Connection timed out
[1738794720.451033] [ohm:2975192:0]        ib_iface.c:1059 UCX  ERROR ibv_create_cq(cqe=256) failed: Connection timed out
[1738794720.453131] [ohm:2975165:0]        ib_iface.c:1059 UCX  ERROR ibv_create_cq(cqe=256) failed: Connection timed out
[1738794720.465060] [ohm:2975137:0]        ib_iface.c:1059 UCX  ERROR ibv_create_cq(cqe=256) failed: Connection timed out
[1738794720.470877] [ohm:2975195:0]        ib_iface.c:1059 UCX  ERROR ibv_create_cq(cqe=256) failed: Connection timed out
[1738794720.471453] [ohm:2975238:0]        ib_iface.c:1059 UCX  ERROR ibv_create_cq(cqe=256) failed: Connection timed out
[1738794720.472344] [ohm:2975184:0]        ib_iface.c:1059 UCX  ERROR ibv_create_cq(cqe=256) failed: Connection timed out
[1738794720.482587] [ohm:2975168:0]        ib_iface.c:1059 UCX  ERROR ibv_create_cq(cqe=256) failed: Connection timed out
[1738794720.485025] [ohm:2975136:0]        ib_iface.c:1059 UCX  ERROR ibv_create_cq(cqe=256) failed: Connection timed out
[1738794720.509658] [ohm:2975205:0]        ib_iface.c:1059 UCX  ERROR ibv_create_cq(cqe=256) failed: Connection timed out
[1738794720.511660] [ohm:2975189:0]        ib_iface.c:1059 UCX  ERROR ibv_create_cq(cqe=256) failed: Connection timed out
[1738794720.513466] [ohm:2975264:0]        ib_iface.c:1059 UCX  ERROR ibv_create_cq(cqe=256) failed: Connection timed out
[1738794720.515036] [ohm:2975133:0]        ib_iface.c:1059 UCX  ERROR ibv_create_cq(cqe=256) failed: Connection timed out
[1738794720.515378] [ohm:2975145:0]        ib_iface.c:1059 UCX  ERROR ibv_create_cq(cqe=256) failed: Connection timed out
[1738794720.529946] [ohm:2975245:0]        ib_iface.c:1059 UCX  ERROR ibv_create_cq(cqe=256) failed: Connection timed out
[1738794720.532999] [ohm:2975232:0]        ib_iface.c:1059 UCX  ERROR ibv_create_cq(cqe=256) failed: Connection timed out
[1738794720.533141] [ohm:2975163:0]        ib_iface.c:1059 UCX  ERROR ibv_create_cq(cqe=256) failed: Connection timed out
[1738794720.542549] [ohm:2975197:0]        ib_iface.c:1059 UCX  ERROR ibv_create_cq(cqe=256) failed: Connection timed out
[1738794720.542856] [ohm:2975218:0]        ib_iface.c:1059 UCX  ERROR ibv_create_cq(cqe=256) failed: Connection timed out
[1738794720.542990] [ohm:2975229:0]        ib_iface.c:1059 UCX  ERROR ibv_create_cq(cqe=256) failed: Connection timed out
[1738794720.551018] [ohm:2975135:0]        ib_iface.c:1059 UCX  ERROR ibv_create_cq(cqe=256) failed: Connection timed out
[1738794720.558307] [ohm:2975142:0]        ib_iface.c:1059 UCX  ERROR ibv_create_cq(cqe=256) failed: Connection timed out
[1738794720.558450] [ohm:2975212:0]        ib_iface.c:1059 UCX  ERROR ibv_create_cq(cqe=256) failed: Connection timed out
[1738794720.559800] [ohm:2975201:0]        ib_iface.c:1059 UCX  ERROR ibv_create_cq(cqe=256) failed: Connection timed out
[1738794720.562407] [ohm:2975250:0]        ib_iface.c:1059 UCX  ERROR ibv_create_cq(cqe=256) failed: Connection timed out
[1738794720.563351] [ohm:2975176:0]        ib_iface.c:1059 UCX  ERROR ibv_create_cq(cqe=256) failed: Connection timed out
[1738794720.568782] [ohm:2975131:0]        ib_iface.c:1059 UCX  ERROR ibv_create_cq(cqe=256) failed: Connection timed out
[1738794720.570684] [ohm:2975199:0]        ib_iface.c:1059 UCX  ERROR ibv_create_cq(cqe=256) failed: Connection timed out
[1738794720.573028] [ohm:2975225:0]        ib_iface.c:1059 UCX  ERROR ibv_create_cq(cqe=256) failed: Connection timed out
[1738794720.574646] [ohm:2975224:0]        ib_iface.c:1059 UCX  ERROR ibv_create_cq(cqe=256) failed: Connection timed out
[1738794720.576670] [ohm:2975154:0]        ib_iface.c:1059 UCX  ERROR ibv_create_cq(cqe=256) failed: Connection timed out
[1738794720.576862] [ohm:2975219:0]        ib_iface.c:1059 UCX  ERROR ibv_create_cq(cqe=256) failed: Connection timed out
[1738794720.577908] [ohm:2975215:0]        ib_iface.c:1059 UCX  ERROR ibv_create_cq(cqe=256) failed: Connection timed out
[1738794720.584351] [ohm:2975235:0]        ib_iface.c:1059 UCX  ERROR ibv_create_cq(cqe=256) failed: Connection timed out
[1738794720.585164] [ohm:2975277:0]        ib_iface.c:1059 UCX  ERROR ibv_create_cq(cqe=256) failed: Connection timed out
[1738794720.585974] [ohm:2975244:0]        ib_iface.c:1059 UCX  ERROR ibv_create_cq(cqe=256) failed: Connection timed out
[1738794720.587851] [ohm:2975208:0]        ib_iface.c:1059 UCX  ERROR ibv_create_cq(cqe=256) failed: Connection timed out
[1738794720.589643] [ohm:2975160:0]        ib_iface.c:1059 UCX  ERROR ibv_create_cq(cqe=256) failed: Connection timed out
[1738794720.589799] [ohm:2975272:0]        ib_iface.c:1059 UCX  ERROR ibv_create_cq(cqe=256) failed: Connection timed out
[1738794720.589969] [ohm:2975259:0]        ib_iface.c:1059 UCX  ERROR ibv_create_cq(cqe=256) failed: Connection timed out
[1738794720.590628] [ohm:2975156:0]        ib_iface.c:1059 UCX  ERROR ibv_create_cq(cqe=256) failed: Connection timed out
[1738794720.591607] [ohm:2975252:0]        ib_iface.c:1059 UCX  ERROR ibv_create_cq(cqe=256) failed: Connection timed out


           ************************************************************
           *        Program running with 64 parallel MPI-processes    *
           *              working on a common directory               *
           ************************************************************
-------------------------------------------------------------------------------
                                 ORCA GUESS
                   Start orbitals & Density for SCF / CASSCF
-------------------------------------------------------------------------------

------------
SCF SETTINGS
------------
Hamiltonian:
 Density Functional     Method          .... DFT(GTOs)
  Functional kind                       .... Exchange-Correlation
  Functional name                       .... wB97M-V exchange-correlation functional
  Functional family                     .... Hybrid MGGA
  Functional refs                              
    [ 0] N. Mardirossian and M. Head-Gordon.,  J. Chem. Phys. 144, 214110 (2016), doi: 10.1063/1.4952647
  Fraction of HF Exchange (short range) .... 0.1500
  Fraction of HF Exchange (long range)  .... 1.0000
  Range separation parameter mu         .... 0.3000
  Functional external parameters        .... 17
    Parameter  0 _cx00      =  8.500000e-01 : u^00 coefficient for exchange
    Parameter  1 _cx01      =  1.007000e+00 : u^01 coefficient for exchange
    Parameter  2 _cx10      =  2.590000e-01 : u^10 coefficient for exchange
    Parameter  3 _css00     =  4.430000e-01 : u^00 coefficient for same-spin correlation
    Parameter  4 _css04     = -1.437000e+00 : u^04 coefficient for same-spin correlation
    Parameter  5 _css10     = -4.535000e+00 : u^10 coefficient for same-spin correlation
    Parameter  6 _css20     = -3.390000e+00 : u^20 coefficient for same-spin correlation
    Parameter  7 _css43     =  4.278000e+00 : u^43 coefficient for same-spin correlation
    Parameter  8 _cos00     =  1.000000e+00 : u^00 coefficient for opposite-spin correlation
    Parameter  9 _cos10     =  1.358000e+00 : u^10 coefficient for opposite-spin correlation
    Parameter 10 _cos20     =  2.924000e+00 : u^20 coefficient for opposite-spin correlation
    Parameter 11 _cos21     = -8.812000e+00 : u^21 coefficient for opposite-spin correlation
    Parameter 12 _cos60     = -1.390000e+00 : u^60 coefficient for opposite-spin correlation
    Parameter 13 _cos61     =  9.142000e+00 : u^61 coefficient for opposite-spin correlation
    Parameter 14 _alpha     =  1.000000e+00 : fraction of HF exchange
    Parameter 15 _beta      = -8.500000e-01 : fraction of short-range exchange
    Parameter 16 _omega     =  3.000000e-01 : range-separation constant
 Long-range corrected/Screened/Range-Separated Hybrid DFT is turned on
   Amount of maximum screened exact exchange              ....  0.850000
   Range separation parameter mu (erf(mu*r12)/r12)        ....  0.300000
 RI-approximation to the Coulomb term is turned on
   Number of AuxJ basis functions       .... 1014
   RIJ-COSX (HFX calculated with COS-X)).... on


General Settings:
 Integral files         IntName         .... orca
 Hartree-Fock type      HFTyp           .... UHF
 Total Charge           Charge          ....    0
 Multiplicity           Mult            ....    3
 Number of Electrons    NEL             ....  132
 Basis Dimension        Dim             ....  882
 Nuclear Repulsion      ENuc            ....   1460.4985772135 Eh

Convergence Acceleration:
 AO-DIIS                CNVDIIS         .... on
   Start iteration      DIISMaxIt       ....    12
   Startup error        DIISStart       ....  0.200000
   # of expansion vecs  DIISMaxEq       ....     5
   Bias factor          DIISBfac        ....   1.050
   Max. coefficient     DIISMaxC        ....  10.000
 MO-DIIS                CNVKDIIS        .... off
 Trust-Rad. Augm. Hess. CNVTRAH         .... auto
   Auto Start mean grad. ratio tolernc. ....  1.125000
   Auto Start start iteration           ....    50
   Auto Start num. interpolation iter.  ....    10
   Max. Number of Micro iterations      ....    24
   Max. Number of Macro iterations      .... Maxiter - #DIIS iter
   Number of Davidson start vectors     ....     2
   Converg. threshold    (grad. norm)   ....   1.000e-05
   Grad. Scal. Fac. for Micro threshold ....   0.100
   Minimum threshold for Micro iter.    ....   1.000e-02
   NR start threshold (gradient norm)   ....   1.000e-04
   Initial trust radius                 ....   0.400
   Minimum AH scaling param. (alpha)    ....   1.000
   Maximum AH scaling param. (alpha)    .... 1000.000
   Quad. conv. algorithm                .... NR
   White noise on init. David. guess    .... on
   Maximum white noise                  ....   0.010
   Pseudo random numbers                .... off
   Inactive MOs                         .... canonical
   Orbital update algorithm             .... Taylor
   Preconditioner                       .... Diag
   Full preconditioner red. dimension   ....   250
 SOSCF                  CNVSOSCF        .... on
   Start iteration      SOSCFMaxIt      ....   150
   Startup grad/error   SOSCFStart      ....  0.003300
   Hessian update       SOSCFHessUp     .... L-BFGS
 Level Shifting         CNVShift        .... on
   Level shift para.    LevelShift      ....    0.2500
   Turn off err/grad.   ShiftErr        ....    0.0010
 Zerner damping         CNVZerner       .... off
 Static damping         CNVDamp         .... on
   Fraction old density DampFac         ....    0.7000
   Max. Damping (<1)    DampMax         ....    0.9800
   Min. Damping (>=0)   DampMin         ....    0.0000
   Turn off err/grad.   DampErr         ....    0.1000

SCF Procedure:
 Maximum # iterations   MaxIter         ....   125
 SCF integral mode      SCFMode         .... Direct
   Integral package                     .... SHARK and LIBINT hybrid scheme
 Reset frequency        DirectResetFreq ....    20
 Integral Threshold     Thresh          ....  1.000e-12 Eh
 Primitive CutOff       TCut            ....  1.000e-13 Eh

Convergence Tolerance:
 Convergence Check Mode ConvCheckMode   .... Total+1el-Energy
 Convergence forced     ConvForced      .... 1
 Energy Change          TolE            ....  1.000e-08 Eh
 1-El. energy change                    ....  1.000e-05 Eh
 Orbital Gradient       TolG            ....  1.000e-05
 Orbital Rotation angle TolX            ....  1.000e-05
 DIIS Error             TolErr          ....  5.000e-07

------------------------------
INITIAL GUESS: MODEL POTENTIAL
------------------------------
Loading Hartree-Fock densities                     ... done
Calculating cut-offs                               ... done
Initializing the effective Hamiltonian             ... done
Setting up the integral package (SHARK)            ... done
Starting the Coulomb interaction                   ... done (   0.1 sec)
Making the grid                                    ... done (   0.3 sec)
Mapping shells                                     ... done
Starting the XC term evaluation                    ... done (   0.1 sec)
  promolecular density results
     # of electrons  =    132.000144369
     EX              =   -113.596040183
     EC              =     -4.484388433
     EX+EC           =   -118.080428616
Transforming the Hamiltonian                       ... done (   0.1 sec)
Diagonalizing the Hamiltonian                      ... done (   0.1 sec)
Back transforming the eigenvectors                 ... done (   0.1 sec)
Now organizing SCF variables                       ... done
                      ------------------
                      INITIAL GUESS DONE (   1.2 sec)
                      ------------------
             **** ENERGY FILE WAS UPDATED (orca.en.tmp) ****
Finished Guess after   3.7 sec
Maximum memory used throughout the entire GUESS-calculation: 72.9 MB
[1738794724.452367] [ohm:2975448:0]        ib_iface.c:1059 UCX  ERROR ibv_create_cq(cqe=256) failed: Connection timed out
[1738794724.468454] [ohm:2975447:0]        ib_iface.c:1059 UCX  ERROR ibv_create_cq(cqe=256) failed: Connection timed out
[1738794724.479060] [ohm:2975453:0]        ib_iface.c:1059 UCX  ERROR ibv_create_cq(cqe=256) failed: Connection timed out
[1738794724.488343] [ohm:2975452:0]        ib_iface.c:1059 UCX  ERROR ibv_create_cq(cqe=256) failed: Connection timed out
[1738794724.489144] [ohm:2975465:0]        ib_iface.c:1059 UCX  ERROR ibv_create_cq(cqe=256) failed: Connection timed out
[1738794724.513639] [ohm:2975457:0]        ib_iface.c:1059 UCX  ERROR ibv_create_cq(cqe=256) failed: Connection timed out
[1738794724.515100] [ohm:2975482:0]        ib_iface.c:1059 UCX  ERROR ibv_create_cq(cqe=256) failed: Connection timed out
[1738794724.518617] [ohm:2975574:0]        ib_iface.c:1059 UCX  ERROR ibv_create_cq(cqe=256) failed: Connection timed out
[1738794724.519531] [ohm:2975502:0]        ib_iface.c:1059 UCX  ERROR ibv_create_cq(cqe=256) failed: Connection timed out
[1738794724.520592] [ohm:2975469:0]        ib_iface.c:1059 UCX  ERROR ibv_create_cq(cqe=256) failed: Connection timed out
[1738794724.520987] [ohm:2975459:0]        ib_iface.c:1059 UCX  ERROR ibv_create_cq(cqe=256) failed: Connection timed out
[1738794724.523744] [ohm:2975470:0]        ib_iface.c:1059 UCX  ERROR ibv_create_cq(cqe=256) failed: Connection timed out
[1738794724.526499] [ohm:2975461:0]        ib_iface.c:1059 UCX  ERROR ibv_create_cq(cqe=256) failed: Connection timed out
[1738794724.536164] [ohm:2975520:0]        ib_iface.c:1059 UCX  ERROR ibv_create_cq(cqe=256) failed: Connection timed out
[1738794724.546376] [ohm:2975563:0]        ib_iface.c:1059 UCX  ERROR ibv_create_cq(cqe=256) failed: Connection timed out
[1738794724.547538] [ohm:2975551:0]        ib_iface.c:1059 UCX  ERROR ibv_create_cq(cqe=256) failed: Connection timed out
[1738794724.555045] [ohm:2975464:0]        ib_iface.c:1059 UCX  ERROR ibv_create_cq(cqe=256) failed: Connection timed out
[1738794724.561429] [ohm:2975494:0]        ib_iface.c:1059 UCX  ERROR ibv_create_cq(cqe=256) failed: Connection timed out
[1738794724.581875] [ohm:2975500:0]        ib_iface.c:1059 UCX  ERROR ibv_create_cq(cqe=256) failed: Connection timed out
[1738794724.589314] [ohm:2975531:0]        ib_iface.c:1059 UCX  ERROR ibv_create_cq(cqe=256) failed: Connection timed out
[1738794724.629930] [ohm:2975585:0]        ib_iface.c:1059 UCX  ERROR ibv_create_cq(cqe=256) failed: Connection timed out
[1738794724.647599] [ohm:2975460:0]        ib_iface.c:1059 UCX  ERROR ibv_create_cq(cqe=256) failed: Connection timed out
[1738794724.648953] [ohm:2975536:0]        ib_iface.c:1059 UCX  ERROR ibv_create_cq(cqe=256) failed: Connection timed out
[1738794724.653072] [ohm:2975477:0]        ib_iface.c:1059 UCX  ERROR ibv_create_cq(cqe=256) failed: Connection timed out
[1738794724.657547] [ohm:2975528:0]        ib_iface.c:1059 UCX  ERROR ibv_create_cq(cqe=256) failed: Connection timed out
[1738794724.657964] [ohm:2975486:0]        ib_iface.c:1059 UCX  ERROR ibv_create_cq(cqe=256) failed: Connection timed out
[1738794724.658133] [ohm:2975455:0]        ib_iface.c:1059 UCX  ERROR ibv_create_cq(cqe=256) failed: Connection timed out
[1738794724.666995] [ohm:2975544:0]        ib_iface.c:1059 UCX  ERROR ibv_create_cq(cqe=256) failed: Connection timed out
[1738794724.675132] [ohm:2975547:0]        ib_iface.c:1059 UCX  ERROR ibv_create_cq(cqe=256) failed: Connection timed out
[1738794724.684177] [ohm:2975570:0]        ib_iface.c:1059 UCX  ERROR ibv_create_cq(cqe=256) failed: Connection timed out
[1738794724.688897] [ohm:2975515:0]        ib_iface.c:1059 UCX  ERROR ibv_create_cq(cqe=256) failed: Connection timed out
[1738794724.690824] [ohm:2975472:0]        ib_iface.c:1059 UCX  ERROR ibv_create_cq(cqe=256) failed: Connection timed out
[1738794724.691328] [ohm:2975474:0]        ib_iface.c:1059 UCX  ERROR ibv_create_cq(cqe=256) failed: Connection timed out
[1738794724.692375] [ohm:2975525:0]        ib_iface.c:1059 UCX  ERROR ibv_create_cq(cqe=256) failed: Connection timed out
[1738794724.697377] [ohm:2975555:0]        ib_iface.c:1059 UCX  ERROR ibv_create_cq(cqe=256) failed: Connection timed out
[1738794724.709530] [ohm:2975549:0]        ib_iface.c:1059 UCX  ERROR ibv_create_cq(cqe=256) failed: Connection timed out
[1738794724.709614] [ohm:2975458:0]        ib_iface.c:1059 UCX  ERROR ibv_create_cq(cqe=256) failed: Connection timed out
[1738794724.720878] [ohm:2975498:0]        ib_iface.c:1059 UCX  ERROR ibv_create_cq(cqe=256) failed: Connection timed out
[1738794724.725256] [ohm:2975539:0]        ib_iface.c:1059 UCX  ERROR ibv_create_cq(cqe=256) failed: Connection timed out
[1738794724.727041] [ohm:2975489:0]        ib_iface.c:1059 UCX  ERROR ibv_create_cq(cqe=256) failed: Connection timed out
[1738794724.731262] [ohm:2975456:0]        ib_iface.c:1059 UCX  ERROR ibv_create_cq(cqe=256) failed: Connection timed out
[1738794724.733096] [ohm:2975519:0]        ib_iface.c:1059 UCX  ERROR ibv_create_cq(cqe=256) failed: Connection timed out
[1738794724.735027] [ohm:2975462:0]        ib_iface.c:1059 UCX  ERROR ibv_create_cq(cqe=256) failed: Connection timed out
[1738794724.736651] [ohm:2975510:0]        ib_iface.c:1059 UCX  ERROR ibv_create_cq(cqe=256) failed: Connection timed out
[1738794724.737412] [ohm:2975468:0]        ib_iface.c:1059 UCX  ERROR ibv_create_cq(cqe=256) failed: Connection timed out
[1738794724.738388] [ohm:2975493:0]        ib_iface.c:1059 UCX  ERROR ibv_create_cq(cqe=256) failed: Connection timed out
[1738794724.742047] [ohm:2975562:0]        ib_iface.c:1059 UCX  ERROR ibv_create_cq(cqe=256) failed: Connection timed out
[1738794724.743521] [ohm:2975593:0]        ib_iface.c:1059 UCX  ERROR ibv_create_cq(cqe=256) failed: Connection timed out
[1738794724.748557] [ohm:2975463:0]        ib_iface.c:1059 UCX  ERROR ibv_create_cq(cqe=256) failed: Connection timed out
[1738794724.751568] [ohm:2975466:0]        ib_iface.c:1059 UCX  ERROR ibv_create_cq(cqe=256) failed: Connection timed out
[1738794724.754169] [ohm:2975449:0]        ib_iface.c:1059 UCX  ERROR ibv_create_cq(cqe=256) failed: Connection timed out
[1738794724.758295] [ohm:2975508:0]        ib_iface.c:1059 UCX  ERROR ibv_create_cq(cqe=256) failed: Connection timed out
[1738794724.759327] [ohm:2975451:0]        ib_iface.c:1059 UCX  ERROR ibv_create_cq(cqe=256) failed: Connection timed out
[1738794724.763405] [ohm:2975446:0]        ib_iface.c:1059 UCX  ERROR ibv_create_cq(cqe=256) failed: Connection timed out
[1738794724.763437] [ohm:2975495:0]        ib_iface.c:1059 UCX  ERROR ibv_create_cq(cqe=256) failed: Connection timed out
[1738794724.769313] [ohm:2975602:0]        ib_iface.c:1059 UCX  ERROR ibv_create_cq(cqe=256) failed: Connection timed out
[1738794724.770661] [ohm:2975590:0]        ib_iface.c:1059 UCX  ERROR ibv_create_cq(cqe=256) failed: Connection timed out
[1738794724.771274] [ohm:2975582:0]        ib_iface.c:1059 UCX  ERROR ibv_create_cq(cqe=256) failed: Connection timed out
[1738794724.771455] [ohm:2975556:0]        ib_iface.c:1059 UCX  ERROR ibv_create_cq(cqe=256) failed: Connection timed out
[1738794724.771531] [ohm:2975467:0]        ib_iface.c:1059 UCX  ERROR ibv_create_cq(cqe=256) failed: Connection timed out
[1738794724.773705] [ohm:2975450:0]        ib_iface.c:1059 UCX  ERROR ibv_create_cq(cqe=256) failed: Connection timed out
[1738794724.774629] [ohm:2975577:0]        ib_iface.c:1059 UCX  ERROR ibv_create_cq(cqe=256) failed: Connection timed out
[1738794724.775590] [ohm:2975454:0]        ib_iface.c:1059 UCX  ERROR ibv_create_cq(cqe=256) failed: Connection timed out
[1738794724.776823] [ohm:2975567:0]        ib_iface.c:1059 UCX  ERROR ibv_create_cq(cqe=256) failed: Connection timed out


           ************************************************************
           *        Program running with 64 parallel MPI-processes    *
           *              working on a common directory               *
           ************************************************************

-------------------------------------------------------------------------------------------
                                      ORCA LEAN-SCF
                              memory conserving SCF solver
-------------------------------------------------------------------------------------------

----------------------------------------D-I-I-S--------------------------------------------
Iteration    Energy (Eh)           Delta-E    RMSDP     MaxDP     DIISErr   Damp  Time(sec)
-------------------------------------------------------------------------------------------
               ***  Starting incremental Fock matrix formation  ***
    1    -908.0814171010572409     0.00e+00  1.54e-03  2.62e-01  1.48e-01  0.700   8.0
    2    -908.3470409696358274    -2.66e-01  1.32e-03  1.62e-01  7.05e-02  0.700   6.6
                               ***Turning on AO-DIIS***
    3    -908.4661520657743949    -1.19e-01  1.09e-03  1.05e-01  2.72e-02  0.700   5.8
    4    -908.5388023216835336    -7.27e-02  2.81e-03  2.77e-01  1.89e-02  0.000   5.7
    5    -908.7004668095512443    -1.62e-01  5.02e-04  7.65e-02  4.09e-03  0.000   5.9
                              *** Initializing SOSCF ***
---------------------------------------S-O-S-C-F--------------------------------------
Iteration    Energy (Eh)           Delta-E    RMSDP     MaxDP     MaxGrad    Time(sec)
--------------------------------------------------------------------------------------
    6    -908.7014322781885767    -9.65e-04  3.99e-04  5.69e-02  1.75e-03     6.4
               *** Restarting incremental Fock matrix formation ***
    7    -908.7018762828163290    -4.44e-04  5.82e-04  9.12e-02  4.12e-03     7.4
               *** Scaled step length from 3683.345310 to 0.200000 ***
Curvature condition for BFGS not met. Restarting diagonal Hessian.
    8    -908.7025460539064170    -6.70e-04  8.74e-03  8.70e-01  5.02e-03     7.3
    9    -908.7034916330701435    -9.46e-04  6.33e-03  7.18e-01  1.48e-02     7.0
               *** Scaled step length from 0.336175 to 0.200000 ***
   10    -908.7093566709038441    -5.87e-03  8.72e-03  1.21e+00  2.07e-02     7.0
               *** Scaled step length from 1.369836 to 0.200000 ***
   11    -908.7178873952618687    -8.53e-03  7.99e-03  1.12e+00  2.05e-02     7.0
               *** Scaled step length from 0.349527 to 0.200000 ***
   12    -908.7245868444767893    -6.70e-03  2.02e-03  1.87e-01  1.63e-02     6.9
   13    -908.7294622219180837    -4.88e-03  9.14e-03  1.25e+00  7.28e-03     6.8
   14    -908.7328679325239591    -3.41e-03  6.98e-03  1.02e+00  4.55e-03     6.9
   15    -908.7341187632425772    -1.25e-03  4.00e-04  5.71e-02  1.41e-03     6.9
   16    -908.7342790809432245    -1.60e-04  5.11e-04  5.50e-02  1.45e-03     6.6
   17    -908.7343747410989181    -9.57e-05  6.19e-05  8.77e-03  7.24e-04     6.6
   18    -908.7343960959985907    -2.14e-05  7.59e-05  1.28e-02  4.03e-04     6.4
   19    -908.7344060517600610    -9.96e-06  2.64e-05  3.08e-03  2.15e-04     6.3
   20    -908.7344082069323576    -2.16e-06  2.46e-05  3.98e-03  1.10e-04     6.2
   21    -908.7344091587162893    -9.52e-07  1.59e-05  3.06e-03  4.26e-05     6.2
   22    -908.7344093517860983    -1.93e-07  7.13e-06  9.83e-04  2.94e-05     6.1
   23    -908.7344093937083471    -4.19e-08  2.48e-06  4.74e-04  7.00e-06     6.0
   24    -908.7344094172719906    -2.36e-08  2.01e-06  3.50e-04  4.35e-06     5.7
   25    -908.7344094004681665     1.68e-08  2.33e-06  3.86e-04  3.14e-06     5.5
   26    -908.7344094100101302    -9.54e-09  3.16e-06  6.79e-04  1.25e-06     5.5
                 **** Energy Check signals convergence ****

               *****************************************************
               *                     SUCCESS                       *
               *           SCF CONVERGED AFTER  26 CYCLES          *
               *****************************************************

Recomputing exchange energy using gridx3       ... done (    7.804 sec)
Old exchange energy                            :    -35.043060272 Eh
New exchange energy                            :    -35.043066719 Eh
Exchange energy change after final integration :     -0.000006446 Eh
Total energy after final integration           :   -908.734415856 Eh
             **** ENERGY FILE WAS UPDATED (orca.en.tmp) ****

----------------
TOTAL SCF ENERGY
----------------

Total Energy       :       -908.73441585643002 Eh          -24727.92060 eV

Components:
Nuclear Repulsion  :       1460.49857721349349 Eh           39742.18674 eV
Electronic Energy  :      -2369.23298662350317 Eh          -64470.10716 eV
One Electron Energy:      -4138.35985556114883 Eh         -112610.49668 eV
Two Electron Energy:       1769.12686893764544 Eh           48140.38951 eV

Virial components:
Potential Energy   :      -1815.03275936378986 Eh          -49389.55230 eV
Kinetic Energy     :        906.29834350735973 Eh           24661.63170 eV
Virial Ratio       :          2.00268793644667

DFT components:
N(Alpha)           :       67.000055237683 electrons
N(Beta)            :       65.000027583369 electrons
N(Total)           :      132.000082821052 electrons
E(XC)              :      -86.330231619076 Eh       

---------------
SCF CONVERGENCE
---------------

  Last Energy change         ...    9.5420e-09  Tolerance :   1.0000e-08
  Last MAX-Density change    ...    6.7854e-04  Tolerance :   1.0000e-07
  Last RMS-Density change    ...    3.1591e-06  Tolerance :   5.0000e-09
  Last DIIS Error            ...    1.7518e-03  Tolerance :   5.0000e-07
  Last Orbital Gradient      ...    1.2527e-06  Tolerance :   1.0000e-05
  Last Orbital Rotation      ...    8.1096e-06  Tolerance :   1.0000e-05


----------------------
UHF SPIN CONTAMINATION
----------------------

Warning: in a DFT calculation there is little theoretical justification to 
         calculate <S**2> as in Hartree-Fock theory. We will do it anyways
         but you should keep in mind that the values have only limited relevance

Expectation value of <S**2>     :     2.010080
Ideal value S*(S+1) for S=1.0   :     2.000000
Deviation                       :     0.010080

----------------
ORBITAL ENERGIES
----------------
                 SPIN UP ORBITALS
  NO   OCC          E(Eh)            E(eV) 
   0   1.0000     -19.339934      -526.2664 
   1   1.0000     -19.320902      -525.7485 
   2   1.0000     -19.320479      -525.7370 
   3   1.0000     -19.319260      -525.7038 
   4   1.0000     -14.598669      -397.2500 
   5   1.0000     -14.576427      -396.6447 
   6   1.0000     -14.563215      -396.2852 
   7   1.0000     -14.556341      -396.0982 
   8   1.0000     -10.517523      -286.1964 
   9   1.0000     -10.505981      -285.8823 
  10   1.0000     -10.476141      -285.0703 
  11   1.0000     -10.459466      -284.6165 
  12   1.0000     -10.431624      -283.8589 
  13   1.0000     -10.409518      -283.2574 
  14   1.0000     -10.403433      -283.0918 
  15   1.0000     -10.379741      -282.4471 
  16   1.0000     -10.361959      -281.9632 
  17   1.0000     -10.361842      -281.9601 
  18   1.0000      -1.233180       -33.5565 
  19   1.0000      -1.219549       -33.1856 
  20   1.0000      -1.193475       -32.4761 
  21   1.0000      -1.189602       -32.3707 
  22   1.0000      -1.131288       -30.7839 
  23   1.0000      -1.117419       -30.4065 
  24   1.0000      -1.066450       -29.0196 
  25   1.0000      -1.064019       -28.9534 
  26   1.0000      -0.978507       -26.6265 
  27   1.0000      -0.956664       -26.0321 
  28   1.0000      -0.857113       -23.3232 
  29   1.0000      -0.849202       -23.1080 
  30   1.0000      -0.814123       -22.1534 
  31   1.0000      -0.808113       -21.9899 
  32   1.0000      -0.795215       -21.6389 
  33   1.0000      -0.788344       -21.4519 
  34   1.0000      -0.706010       -19.2115 
  35   1.0000      -0.695745       -18.9322 
  36   1.0000      -0.692438       -18.8422 
  37   1.0000      -0.688354       -18.7311 
  38   1.0000      -0.646164       -17.5830 
  39   1.0000      -0.636746       -17.3267 
  40   1.0000      -0.635496       -17.2927 
  41   1.0000      -0.600153       -16.3310 
  42   1.0000      -0.599599       -16.3159 
  43   1.0000      -0.592724       -16.1288 
  44   1.0000      -0.577911       -15.7258 
  45   1.0000      -0.575420       -15.6580 
  46   1.0000      -0.560522       -15.2526 
  47   1.0000      -0.551445       -15.0056 
  48   1.0000      -0.550951       -14.9921 
  49   1.0000      -0.548566       -14.9272 
  50   1.0000      -0.529797       -14.4165 
  51   1.0000      -0.524900       -14.2832 
  52   1.0000      -0.520553       -14.1650 
  53   1.0000      -0.517413       -14.0795 
  54   1.0000      -0.506240       -13.7755 
  55   1.0000      -0.504241       -13.7211 
  56   1.0000      -0.497819       -13.5463 
  57   1.0000      -0.473595       -12.8872 
  58   1.0000      -0.427242       -11.6258 
  59   1.0000      -0.412630       -11.2282 
  60   1.0000      -0.410891       -11.1809 
  61   1.0000      -0.396179       -10.7806 
  62   1.0000      -0.392432       -10.6786 
  63   1.0000      -0.388889       -10.5822 
  64   1.0000      -0.383309       -10.4304 
  65   1.0000      -0.345021        -9.3885 
  66   1.0000      -0.212383        -5.7792 
  67   0.0000       0.011229         0.3056 
  68   0.0000       0.021143         0.5753 
  69   0.0000       0.033337         0.9071 
  70   0.0000       0.039177         1.0661 
  71   0.0000       0.040672         1.1067 
  72   0.0000       0.055563         1.5120 
  73   0.0000       0.060505         1.6464 
  74   0.0000       0.062510         1.7010 
  75   0.0000       0.065316         1.7773 
  76   0.0000       0.067777         1.8443 
  77   0.0000       0.069992         1.9046 

                 SPIN DOWN ORBITALS
  NO   OCC          E(Eh)            E(eV) 
   0   1.0000     -19.338149      -526.2178 
   1   1.0000     -19.320474      -525.7368 
   2   1.0000     -19.319209      -525.7024 
   3   1.0000     -19.314672      -525.5789 
   4   1.0000     -14.594159      -397.1272 
   5   1.0000     -14.576239      -396.6396 
   6   1.0000     -14.563222      -396.2854 
   7   1.0000     -14.555391      -396.0723 
   8   1.0000     -10.517830      -286.2047 
   9   1.0000     -10.505990      -285.8825 
  10   1.0000     -10.476123      -285.0698 
  11   1.0000     -10.459037      -284.6049 
  12   1.0000     -10.431286      -283.8497 
  13   1.0000     -10.400159      -283.0027 
  14   1.0000     -10.392848      -282.8038 
  15   1.0000     -10.379825      -282.4494 
  16   1.0000     -10.362347      -281.9738 
  17   1.0000     -10.361731      -281.9570 
  18   1.0000      -1.229184       -33.4478 
  19   1.0000      -1.219346       -33.1801 
  20   1.0000      -1.189912       -32.3791 
  21   1.0000      -1.183873       -32.2148 
  22   1.0000      -1.121006       -30.5041 
  23   1.0000      -1.116997       -30.3950 
  24   1.0000      -1.064000       -28.9529 
  25   1.0000      -1.061028       -28.8720 
  26   1.0000      -0.959254       -26.1026 
  27   1.0000      -0.950836       -25.8736 
  28   1.0000      -0.848833       -23.0979 
  29   1.0000      -0.845683       -23.0122 
  30   1.0000      -0.808964       -22.0130 
  31   1.0000      -0.803105       -21.8536 
  32   1.0000      -0.788545       -21.4574 
  33   1.0000      -0.787695       -21.4343 
  34   1.0000      -0.694389       -18.8953 
  35   1.0000      -0.692348       -18.8398 
  36   1.0000      -0.688505       -18.7352 
  37   1.0000      -0.687118       -18.6974 
  38   1.0000      -0.637996       -17.3608 
  39   1.0000      -0.632991       -17.2246 
  40   1.0000      -0.629104       -17.1188 
  41   1.0000      -0.594342       -16.1729 
  42   1.0000      -0.591806       -16.1039 
  43   1.0000      -0.589330       -16.0365 
  44   1.0000      -0.569262       -15.4904 
  45   1.0000      -0.564253       -15.3541 
  46   1.0000      -0.559491       -15.2245 
  47   1.0000      -0.549909       -14.9638 
  48   1.0000      -0.544264       -14.8102 
  49   1.0000      -0.535426       -14.5697 
  50   1.0000      -0.521038       -14.1782 
  51   1.0000      -0.520475       -14.1628 
  52   1.0000      -0.515346       -14.0233 
  53   1.0000      -0.506262       -13.7761 
  54   1.0000      -0.504643       -13.7320 
  55   1.0000      -0.499903       -13.6031 
  56   1.0000      -0.471936       -12.8420 
  57   1.0000      -0.455791       -12.4027 
  58   1.0000      -0.423243       -11.5170 
  59   1.0000      -0.411997       -11.2110 
  60   1.0000      -0.396721       -10.7953 
  61   1.0000      -0.386782       -10.5249 
  62   1.0000      -0.383702       -10.4411 
  63   1.0000      -0.380619       -10.3572 
  64   1.0000      -0.343821        -9.3559 
  65   0.0000      -0.109336        -2.9752 
  66   0.0000       0.010880         0.2961 
  67   0.0000       0.023641         0.6433 
  68   0.0000       0.031357         0.8533 
  69   0.0000       0.037350         1.0163 
  70   0.0000       0.039698         1.0802 
  71   0.0000       0.055345         1.5060 
  72   0.0000       0.058701         1.5973 
  73   0.0000       0.063088         1.7167 
  74   0.0000       0.064955         1.7675 
  75   0.0000       0.067408         1.8343 
*Only the first 10 virtual orbitals were printed.

                    ********************************
                    * MULLIKEN POPULATION ANALYSIS *
                    ********************************

--------------------------------------------
MULLIKEN ATOMIC CHARGES AND SPIN POPULATIONS
--------------------------------------------
   0 O :   -0.681651    0.001610
   1 O :   -0.669858    0.230993
[...]
[1738795060.018749] [ohm:2976613:0]        ib_iface.c:1059 UCX  ERROR ibv_create_cq(cqe=256) failed: Connection timed out
[1738795060.022499] [ohm:2976690:0]        ib_iface.c:1059 UCX  ERROR ibv_create_cq(cqe=256) failed: Connection timed out
[1738795060.023311] [ohm:2976670:0]        ib_iface.c:1059 UCX  ERROR ibv_create_cq(cqe=256) failed: Connection timed out
[1738795060.024283] [ohm:2976614:0]        ib_iface.c:1059 UCX  ERROR ibv_create_cq(cqe=256) failed: Connection timed out
[1738795060.024475] [ohm:2976661:0]        ib_iface.c:1059 UCX  ERROR ibv_create_cq(cqe=256) failed: Connection timed out
[1738795060.025149] [ohm:2976655:0]        ib_iface.c:1059 UCX  ERROR ibv_create_cq(cqe=256) failed: Connection timed out
[1738795060.027004] [ohm:2976635:0]        ib_iface.c:1059 UCX  ERROR ibv_create_cq(cqe=256) failed: Connection timed out
[1738795060.027809] [ohm:2976587:0]        ib_iface.c:1059 UCX  ERROR ibv_create_cq(cqe=256) failed: Connection timed out
[1738795060.029143] [ohm:2976667:0]        ib_iface.c:1059 UCX  ERROR ibv_create_cq(cqe=256) failed: Connection timed out
[1738795060.030067] [ohm:2976679:0]        ib_iface.c:1059 UCX  ERROR ibv_create_cq(cqe=256) failed: Connection timed out


           ************************************************************
           *        Program running with 64 parallel MPI-processes    *
           *              working on a common directory               *
           ************************************************************

------------------------------------------------------------------------------
                              ORCA PROPERTY CALCULATIONS
------------------------------------------------------------------------------

GBWName                                 ... orca.gbw
Number of atoms                         ...     30
Number of basis functions               ...    882
Max core memory                         ...   1024 MB

Electric properties:
Dipole moment                           ... YES
Quadrupole moment                       ...  NO
Static polarizability (Dipole/Dipole)   ...  NO
Static polarizability (Dipole/Quad.)    ...  NO
Static polarizability (Quad./Quad.)     ...  NO
Static polarizability (Velocity)        ...  NO

Atomic electric properties:
Dipole moment                           ...  NO
Quadrupole moment                       ...  NO
Static polarizability                   ...  NO

Choice of electric origin               ... Center of mass
Position of electric origin             ...     0.015369    -0.010602     0.076809

General magnetic properties:
Magnetizability                         ...  NO

EPR properties:
g-Tensor (aka g-matrix)                 ...  NO
Zero-Field splitting spin-orbit         ...  NO
Zero-field splitting spin-spin          ...  NO
Hyperfine couplings                     ...  NO (   0 nuclei)
Quadrupole couplings                    ...  NO (   0 nuclei)
Contact density                         ...  NO (   0 nuclei)

NMR properties:
Chemical shifts                         ...  NO (   0 nuclei)
Spin-rotation constants                 ...  NO (   0 nuclei)
Spin-spin couplings                     ...  NO (   0 nuclei,    0 pairs)

Choice of magnetic origin               ... GIAO
Position of magnetic origin             ...     0.000000     0.000000     0.000000

Properties with geometric perturbations:
SCF Hessian                             ...  NO
IR spectrum                             ...  NO
VCD spectrum                            ...  NO
X-ray spectroscopy properties:
SCF XES/XAS/RIXS spectra                ...  NO


-------------
DIPOLE MOMENT
-------------

Method             : SCF
Type of density    : Electron Density
Multiplicity       :   3
Irrep              :   0
Energy             :  -908.7344158564300187 Eh
Relativity type    : 
Basis              : AO
                                X                 Y                 Z
Electronic contribution:     -2.568698288     -10.081455314      -6.034566150
Nuclear contribution   :      2.057506956      11.027553783       8.521221859
                        -----------------------------------------
Total Dipole Moment    :     -0.511191332       0.946098469       2.486655709
                        -----------------------------------------
Magnitude (a.u.)       :      2.709220461
Magnitude (Debye)      :      6.886291149



--------------------
Rotational spectrum 
--------------------
 
Rotational constants in cm-1:             0.017340             0.016772             0.013563 
Rotational constants in MHz :           519.852546           502.826495           406.605789 

Dipole components along the rotational axes: 
x,y,z [a.u.] :     1.505467    -0.207254     2.242876 
x,y,z [Debye]:     3.826592    -0.526799     5.700937 

 

-------------
DIPOLE MOMENT
-------------

Method             : TDA/CIS
Type of density    : Electron Density
Level              : Relaxed density
State              :   1
Multiplicity       :   3
Irrep              :   0
Energy             :     0.0000000000000000 Eh
Relativity type    : 
Basis              : AO
                                X                 Y                 Z
Electronic contribution:     -2.727187308     -10.116074363      -5.883191024
Nuclear contribution   :      2.057506956      11.027553783       8.521221859
                        -----------------------------------------
Total Dipole Moment    :     -0.669680352       0.911479420       2.638030835
                        -----------------------------------------
Magnitude (a.u.)       :      2.870274062
Magnitude (Debye)      :      7.295656871



--------------------
Rotational spectrum 
--------------------
 
Rotational constants in cm-1:             0.017340             0.016772             0.013563 
Rotational constants in MHz :           519.852546           502.826495           406.605789 

Dipole components along the rotational axes: 
x,y,z [a.u.] :     1.582473    -0.375766     2.364963 
x,y,z [Debye]:     4.022328    -0.955122     6.011259 

 

Dipole moment calculation done in   0.2 sec 

Maximum memory used throughout the entire PROP-calculation: 82.0 MB
[1738795062.498501] [ohm:2976889:0]        ib_iface.c:1059 UCX  ERROR ibv_create_cq(cqe=256) failed: Connection timed out
[1738795062.511687] [ohm:2976892:0]        ib_iface.c:1059 UCX  ERROR ibv_create_cq(cqe=256) failed: Connection timed out
[1738795062.515290] [ohm:2976941:0]        ib_iface.c:1059 UCX  ERROR ibv_create_cq(cqe=256) failed: Connection timed out
[1738795062.519412] [ohm:2976891:0]        ib_iface.c:1059 UCX  ERROR ibv_create_cq(cqe=256) failed: Connection timed out
[1738795062.521358] [ohm:2976890:0]        ib_iface.c:1059 UCX  ERROR ibv_create_cq(cqe=256) failed: Connection timed out
[1738795062.538249] [ohm:2976915:0]        ib_iface.c:1059 UCX  ERROR ibv_create_cq(cqe=256) failed: Connection timed out
[1738795062.540779] [ohm:2976894:0]        ib_iface.c:1059 UCX  ERROR ibv_create_cq(cqe=256) failed: Connection timed out
[1738795062.544719] [ohm:2976923:0]        ib_iface.c:1059 UCX  ERROR ibv_create_cq(cqe=256) failed: Connection timed out
[1738795062.544853] [ohm:2976912:0]        ib_iface.c:1059 UCX  ERROR ibv_create_cq(cqe=256) failed: Connection timed out
[1738795062.549135] [ohm:2976936:0]        ib_iface.c:1059 UCX  ERROR ibv_create_cq(cqe=256) failed: Connection timed out
[1738795062.560285] [ohm:2976964:0]        ib_iface.c:1059 UCX  ERROR ibv_create_cq(cqe=256) failed: Connection timed out
[1738795062.567383] [ohm:2976989:0]        ib_iface.c:1059 UCX  ERROR ibv_create_cq(cqe=256) failed: Connection timed out
[1738795062.579660] [ohm:2977003:0]        ib_iface.c:1059 UCX  ERROR ibv_create_cq(cqe=256) failed: Connection timed out
[1738795062.581112] [ohm:2976972:0]        ib_iface.c:1059 UCX  ERROR ibv_create_cq(cqe=256) failed: Connection timed out
[1738795062.584145] [ohm:2976913:0]        ib_iface.c:1059 UCX  ERROR ibv_create_cq(cqe=256) failed: Connection timed out
[1738795062.586697] [ohm:2976946:0]        ib_iface.c:1059 UCX  ERROR ibv_create_cq(cqe=256) failed: Connection timed out
[1738795062.588702] [ohm:2977005:0]        ib_iface.c:1059 UCX  ERROR ibv_create_cq(cqe=256) failed: Connection timed out
[1738795062.591300] [ohm:2977019:0]        ib_iface.c:1059 UCX  ERROR ibv_create_cq(cqe=256) failed: Connection timed out
[1738795062.595509] [ohm:2977016:0]        ib_iface.c:1059 UCX  ERROR ibv_create_cq(cqe=256) failed: Connection timed out
[1738795062.630646] [ohm:2977023:0]        ib_iface.c:1059 UCX  ERROR ibv_create_cq(cqe=256) failed: Connection timed out
[1738795062.645216] [ohm:2977014:0]        ib_iface.c:1059 UCX  ERROR ibv_create_cq(cqe=256) failed: Connection timed out
[1738795062.672331] [ohm:2977031:0]        ib_iface.c:1059 UCX  ERROR ibv_create_cq(cqe=256) failed: Connection timed out
[1738795062.678711] [ohm:2977009:0]        ib_iface.c:1059 UCX  ERROR ibv_create_cq(cqe=256) failed: Connection timed out
[1738795062.690131] [ohm:2976944:0]        ib_iface.c:1059 UCX  ERROR ibv_create_cq(cqe=256) failed: Connection timed out
[1738795062.690606] [ohm:2977000:0]        ib_iface.c:1059 UCX  ERROR ibv_create_cq(cqe=256) failed: Connection timed out
[1738795062.691060] [ohm:2977038:0]        ib_iface.c:1059 UCX  ERROR ibv_create_cq(cqe=256) failed: Connection timed out
[1738795062.692490] [ohm:2976993:0]        ib_iface.c:1059 UCX  ERROR ibv_create_cq(cqe=256) failed: Connection timed out
[1738795062.694049] [ohm:2977030:0]        ib_iface.c:1059 UCX  ERROR ibv_create_cq(cqe=256) failed: Connection timed out
[1738795062.694672] [ohm:2976961:0]        ib_iface.c:1059 UCX  ERROR ibv_create_cq(cqe=256) failed: Connection timed out
[1738795062.703981] [ohm:2977025:0]        ib_iface.c:1059 UCX  ERROR ibv_create_cq(cqe=256) failed: Connection timed out
[1738795062.706666] [ohm:2976947:0]        ib_iface.c:1059 UCX  ERROR ibv_create_cq(cqe=256) failed: Connection timed out
[1738795062.711622] [ohm:2976980:0]        ib_iface.c:1059 UCX  ERROR ibv_create_cq(cqe=256) failed: Connection timed out
[1738795062.717104] [ohm:2976984:0]        ib_iface.c:1059 UCX  ERROR ibv_create_cq(cqe=256) failed: Connection timed out
[1738795062.722812] [ohm:2977008:0]        ib_iface.c:1059 UCX  ERROR ibv_create_cq(cqe=256) failed: Connection timed out
[1738795062.726696] [ohm:2976996:0]        ib_iface.c:1059 UCX  ERROR ibv_create_cq(cqe=256) failed: Connection timed out
[1738795062.729014] [ohm:2977035:0]        ib_iface.c:1059 UCX  ERROR ibv_create_cq(cqe=256) failed: Connection timed out
[1738795062.731379] [ohm:2976943:0]        ib_iface.c:1059 UCX  ERROR ibv_create_cq(cqe=256) failed: Connection timed out
[1738795062.734974] [ohm:2976900:0]        ib_iface.c:1059 UCX  ERROR ibv_create_cq(cqe=256) failed: Connection timed out
[1738795062.735718] [ohm:2976934:0]        ib_iface.c:1059 UCX  ERROR ibv_create_cq(cqe=256) failed: Connection timed out
[1738795062.745100] [ohm:2976967:0]        ib_iface.c:1059 UCX  ERROR ibv_create_cq(cqe=256) failed: Connection timed out
[1738795062.746469] [ohm:2976938:0]        ib_iface.c:1059 UCX  ERROR ibv_create_cq(cqe=256) failed: Connection timed out
[1738795062.748889] [ohm:2976901:0]        ib_iface.c:1059 UCX  ERROR ibv_create_cq(cqe=256) failed: Connection timed out
[1738795062.753530] [ohm:2976949:0]        ib_iface.c:1059 UCX  ERROR ibv_create_cq(cqe=256) failed: Connection timed out
[1738795062.757362] [ohm:2976916:0]        ib_iface.c:1059 UCX  ERROR ibv_create_cq(cqe=256) failed: Connection timed out
[1738795062.758327] [ohm:2976896:0]        ib_iface.c:1059 UCX  ERROR ibv_create_cq(cqe=256) failed: Connection timed out
[1738795062.761154] [ohm:2976899:0]        ib_iface.c:1059 UCX  ERROR ibv_create_cq(cqe=256) failed: Connection timed out
[1738795062.764112] [ohm:2976917:0]        ib_iface.c:1059 UCX  ERROR ibv_create_cq(cqe=256) failed: Connection timed out
[1738795062.769873] [ohm:2976895:0]        ib_iface.c:1059 UCX  ERROR ibv_create_cq(cqe=256) failed: Connection timed out
[1738795062.776426] [ohm:2976976:0]        ib_iface.c:1059 UCX  ERROR ibv_create_cq(cqe=256) failed: Connection timed out
[1738795062.786299] [ohm:2976925:0]        ib_iface.c:1059 UCX  ERROR ibv_create_cq(cqe=256) failed: Connection timed out
[1738795062.786319] [ohm:2976951:0]        ib_iface.c:1059 UCX  ERROR ibv_create_cq(cqe=256) failed: Connection timed out
[1738795062.786721] [ohm:2976954:0]        ib_iface.c:1059 UCX  ERROR ibv_create_cq(cqe=256) failed: Connection timed out
[1738795062.788917] [ohm:2976914:0]        ib_iface.c:1059 UCX  ERROR ibv_create_cq(cqe=256) failed: Connection timed out
[1738795062.790457] [ohm:2976893:0]        ib_iface.c:1059 UCX  ERROR ibv_create_cq(cqe=256) failed: Connection timed out
[1738795062.791140] [ohm:2976918:0]        ib_iface.c:1059 UCX  ERROR ibv_create_cq(cqe=256) failed: Connection timed out
[1738795062.793070] [ohm:2976945:0]        ib_iface.c:1059 UCX  ERROR ibv_create_cq(cqe=256) failed: Connection timed out
[1738795062.797365] [ohm:2976950:0]        ib_iface.c:1059 UCX  ERROR ibv_create_cq(cqe=256) failed: Connection timed out
[1738795062.801064] [ohm:2976940:0]        ib_iface.c:1059 UCX  ERROR ibv_create_cq(cqe=256) failed: Connection timed out
[1738795062.801819] [ohm:2976897:0]        ib_iface.c:1059 UCX  ERROR ibv_create_cq(cqe=256) failed: Connection timed out
[1738795062.804660] [ohm:2976948:0]        ib_iface.c:1059 UCX  ERROR ibv_create_cq(cqe=256) failed: Connection timed out
[1738795062.804827] [ohm:2976898:0]        ib_iface.c:1059 UCX  ERROR ibv_create_cq(cqe=256) failed: Connection timed out
[1738795062.804929] [ohm:2976969:0]        ib_iface.c:1059 UCX  ERROR ibv_create_cq(cqe=256) failed: Connection timed out
[1738795062.808638] [ohm:2976958:0]        ib_iface.c:1059 UCX  ERROR ibv_create_cq(cqe=256) failed: Connection timed out
[1738795062.809536] [ohm:2976931:0]        ib_iface.c:1059 UCX  ERROR ibv_create_cq(cqe=256) failed: Connection timed out

--------------------------------
SUGGESTED CITATIONS FOR THIS RUN
--------------------------------

Below you find a list of papers that are relevant to this ORCA run
We neither can nor want to force you to cite these papers, but we appreciate if you do
You receive ORCA, which is the product of decades of hard work by many enthusiastic individuals, for free
The only thing we kindly ask in return is that you cite our papers,
We deeply appreciate it, if you show your appreciation for ORCA by not just citing the generic ORCA reference.

Please note that relegating all ORCA citations to the supporting information does *not* help us.
SI sections are not indexed - citations you put there will not count into any citation statistics
But we need these citations in order to attract the funding resources that allow us to do what we are doing

Therefore, if you are a happy ORCA user, please consider citing a few of the papers listed below in the main body of your paper

In addition to the list printed below, the program has created the file orca.bibtex that contains the list in bibtex format
You can import this file easily into all common literature databanks and citation aid programs


List of essential papers. We consider these as the minimum necessary citations

  1. Neese,F.
     Software update: the ORCA program system, version 5.0
     WIRES Comput. Molec. Sci., 2022 12(1)e1606
     doi.org/10.1002/wcms.1606

List of papers to cite with high priority. The work reported in these papers was absolutely
necessary for this run to complete.
Our perspective: the developers of density functionals and basis sets usually get cited in chemistry papers
Good! But without the algorithms to do something with them, the functionals or basis sets would not do anything.
Hence, in our opinion, the algorithm design and method developments papers are equally worthy of getting cited

  1. Neese,F.; Olbrich,G.
     Efficient use of the resolution of the identity approximation in time-dependent density functional calculations with hybrid density functionals
     Chem. Phys. Lett., 2002 362 170-178
     doi.org/10.1016/s0009-2614(02)01053-9
  2. Neese,F.
     An improvement of the resolution of the identity approximation for the formation of the Coulomb matrix
     J. Comp. Chem., 2003 24(14)1740-1747
     doi.org/10.1002/jcc.10318
  3. Neese,F.; Wennmohs,F.; Hansen,A.; Becker,U.
     Efficient, approximate and parallel Hartree-Fock and hybrid DFT calculations. A 'chain-of-spheres' algorithm for the Hartree-Fock exchange
     Chem. Phys., 2009 356(1-3)98-109
     doi.org/10.1016/j.chemphys.2008.10.036
  4. Petrenko,T.; Kossmann,S.; Neese,F.
     Efficient time-dependent density functional theory approximations for hybrid density functionals: Analytical gradients and parallelization
     J. Chem. Phys., 2011 134 054116
     doi.org/10.1063/1.3533441
  5. Helmich-Paris,B.; de Souza,B.; Neese,F.; Izsák,R.
     An improved chain of spheres for exchange algorithm
     J. Chem. Phys., 2021 155 104109
     doi.org/doi: 10.1063/5.0058766.
  6. Neese,F.
     The SHARK Integral Generation and Digestion System
     J. Comp. Chem., 2022  1-16
     doi.org/10.1002/jcc.26942
  7. Lehtola,S.; Steigemann,C.; Oliveira,M.; Marques,M.
     Recent developments in Libxc - A comprehensive library of functionals for density functional theory
     Software X, 2018 7 
     doi.org/10.1016/j.softx.2017.11.002
  8. Grimme,S.; Antony,J.; Ehrlich,S.; Krieg,H.
     A consistent and accurate ab initio parametrization of density functional dispersion correction (DFT-D) for the 94 elements H-Pu
     J. Chem. Phys., 2010 132 154104-XXXX
     doi.org/10.1063/1.3382344
  9. Grimme,S.; Ehrlich,S.; Goerigk,L.
     Effect of the damping function in dispersion corrected density functional theory
     J. Comput. Chem., 2011 32(7)1456-1465
     doi.org/10.1002/jcc.21759

List of suggested additional citations. These are papers that are important in the 'surrounding' of 
of this run, or papers that preceded the highly important papers. If you like your results we are grateful for a citation.

  1. Izsak,R.; Neese,F.
     An overlap fitted chain of spheres exchange method
     J. Chem. Phys., 2011 135 144105
     doi.org/10.1063/1.3646921
  2. Izsak,R.; Hansen,A.; Neese,F.
     The resolution of identity and chain of spheres approximations for the LPNO-CCSD singles Fock term
     Molec. Phys., 2012 110 2413-2417
     doi.org/10.1080/00268976.2012.687466
  3. Neese,F.
     The ORCA program system
     WIRES Comput. Molec. Sci., 2012 2(1)73-78
     doi.org/10.1002/wcms.81
  4. Izsak,R.; Neese,F.; Klopper,W.
     Robust fitting techniques in the chain of spheres approximation to the Fock exchange: The role of the complementary space
     J. Chem. Phys., 2013 139 
     doi.org/10.1063/1.4819264
  5. Neese,F.
     Software update: the ORCA program system, version 4.0
     WIRES Comput. Molec. Sci., 2018 8(1)1-6
     doi.org/10.1002/wcms.1327
  6. Neese,F.; Wennmohs,F.; Becker,U.; Riplinger,C.
     The ORCA quantum chemistry program package
     J. Chem. Phys., 2020 152 Art. No. L224108
     doi.org/10.1063/5.0004608

List of optional additional citations

  1. Neese,F.
     Approximate second-order SCF convergence for spin unrestricted wavefunctions
     Chem. Phys. Lett., 2000 325(1-3)93-98
     doi.org/10.1016/s0009-2614(00)00662-x

Timings for individual modules:

Sum of individual times          ...      348.694 sec (=   5.812 min)
Startup calculation              ...        6.350 sec (=   0.106 min)   1.8 %
SCF iterations                   ...      186.226 sec (=   3.104 min)  53.4 %
Property integrals               ...        4.137 sec (=   0.069 min)   1.2 %
Property calculations            ...        2.823 sec (=   0.047 min)   0.8 %
CIS module                       ...      149.157 sec (=   2.486 min)  42.8 %
                             ****ORCA TERMINATED NORMALLY****
TOTAL RUN TIME: 0 days 0 hours 5 minutes 50 seconds 719 msec
