
                                 *****************
                                 * O   R   C   A *
                                 *****************

                                            #,                                       
                                            ###                                      
                                            ####                                     
                                            #####                                    
                                            ######                                   
                                           ########,                                 
                                     ,,################,,,,,                         
                               ,,#################################,,                 
                          ,,##########################################,,             
                       ,#########################################, ''#####,          
                    ,#############################################,,   '####,        
                  ,##################################################,,,,####,       
                ,###########''''           ''''###############################       
              ,#####''   ,,,,##########,,,,          '''####'''          '####       
            ,##' ,,,,###########################,,,                        '##       
           ' ,,###''''                  '''############,,,                           
         ,,##''                                '''############,,,,        ,,,,,,###''
      ,#''                                            '''#######################'''  
     '                                                          ''''####''''         
             ,#######,   #######,   ,#######,      ##                                
            ,#'     '#,  ##    ##  ,#'     '#,    #''#        ,####,   ,####,        
            ##       ##  ##   ,#'  ##            #'  '#       #'       #'  '#        
            ##       ##  #######   ##           ,######,      #####,   #    #        
            '#,     ,#'  ##    ##  '#,     ,#' ,#      #,     #,   #   #,  ,#        
             '#######'   ##     ##  '#######'  #'      '#     '####' # '####'        



                #########################################################
                #                        -***-                          #
                #          Department of theory and spectroscopy        #
                #                                                       #
                #                      Frank Neese                      #
                #                                                       #
                #     Directorship, Architecture, Infrastructure        #
                #                    SHARK, DRIVERS                     #
                #        Core code/Algorithms in most modules           #
                #                                                       #
                #        Max Planck Institute fuer Kohlenforschung      #
                #                Kaiser Wilhelm Platz 1                 #
                #                 D-45470 Muelheim/Ruhr                 #
                #                      Germany                          #
                #                                                       #
                #                  All rights reserved                  #
                #                        -***-                          #
                #########################################################


                         Program Version 6.0.0  -   RELEASE  -


 With contributions from (in alphabetic order):
   Daniel Aravena         : Magnetic Suceptibility
   Michael Atanasov       : Ab Initio Ligand Field Theory (pilot matlab implementation)
   Alexander A. Auer      : GIAO ZORA, VPT2 properties, NMR spectrum
   Ute Becker             : All parallelization in ORCA, NUMFREQ, NUMCALC
   Giovanni Bistoni       : ED, misc. LED, open-shell LED, HFLD
   Martin Brehm           : Molecular dynamics
   Dmytro Bykov           : pre 5.0 version of the SCF Hessian
   Marcos Casanova-Páez   : Triplet and SCS-CIS(D). UHF-(DLPNO)-IP/EA/STEOM-CCSD. UHF-CVS-IP/STEOM-CCSD
   Vijay G. Chilkuri      : MRCI spin determinant printing, contributions to CSF-ICE
   Pauline Colinet        : FMM embedding
   Dipayan Datta          : RHF DLPNO-CCSD density
   Achintya Kumar Dutta   : EOM-CC, STEOM-CC
   Nicolas Foglia         : Exact transition moments, OPA infrastructure, MCD improvements
   Dmitry Ganyushin       : Spin-Orbit,Spin-Spin,Magnetic field MRCI
   Miquel Garcia          : C-PCM and meta-GGA Hessian, CCSD/C-PCM, Gaussian charge scheme
   Tiago L. C. Gouveia    : GS-ROHF, GS-ROCIS
   Yang Guo               : DLPNO-NEVPT2, F12-NEVPT2, CIM, IAO-localization
   Andreas Hansen         : Spin unrestricted coupled pair/coupled cluster methods
   Ingolf Harden          : AUTO-CI MPn and infrastructure 
   Benjamin Helmich-Paris : MC-RPA, TRAH-(SCF,CASSCF), AVAS, COSX integrals, SCF dyn. polar.
   Lee Huntington         : MR-EOM, pCC
   Robert Izsak           : Overlap fitted RIJCOSX, COSX-SCS-MP3, EOM
   Riya Kayal             : Wick's Theorem for AUTO-CI, AUTO-CI UHF-CCSDT
   Emily Kempfer          : AUTO-CI, RHF CISDT and CCSDT
   Christian Kollmar      : KDIIS, OOCD, Brueckner-CCSD(T), CCSD density, CASPT2, CASPT2-K, improved NEVPT2
   Axel Koslowski         : Symmetry handling
   Simone Kossmann        : Meta GGA functionals, TD-DFT gradient, OOMP2, (MP2 Hessian; deprecated post 5.0)
   Lucas Lang             : DCDCAS
   Marvin Lechner         : AUTO-CI (C++ implementation), FIC-MRCC
   Spencer Leger          : CASSCF response
   Dagmar Lenk            : GEPOL surface, SMD, ORCA-2-JSON
   Dimitrios Liakos       : Extrapolation schemes; Compound Job, initial MDCI parallelization
   Dimitrios Manganas     : Further ROCIS development; embedding schemes. LFT, Crystal Embedding
   Dimitrios Pantazis     : SARC Basis sets
   Anastasios Papadopoulos: AUTO-CI, single reference methods and gradients
   Taras Petrenko         : pre 6.0 DFT Hessian and TD-DFT gradient, (ASA, deprecated), ECA, 1-Electron XAS/XES, NRVS
   Peter Pinski           : DLPNO-MP2, DLPNO-MP2 Gradient
   Christoph Reimann      : Effective Core Potentials
   Marius Retegan         : Local ZFS, SOC
   Christoph Riplinger    : Optimizer, TS searches, QM/MM, DLPNO-CCSD(T), (RO)-DLPNO pert. Triples
   Michael Roemelt        : Original ROCIS implementation
   Masaaki Saitow         : Open-shell DLPNO-CCSD energy and density
   Barbara Sandhoefer     : DKH picture change effects
   Kantharuban Sivalingam : CASSCF convergence/infrastructure, NEVPT2 and variants, FIC-MRCI
   Bernardo de Souza      : ESD, SOC TD-DFT
   Georgi Stoychev        : AutoAux, RI-MP2 NMR, DLPNO-MP2 response, X2C
   Van Anh Tran           : RI-MP2 g-tensors
   Willem Van den Heuvel  : Paramagnetic NMR
   Zikuan Wang            : NOTCH, Electric field optimization 
   Frank Wennmohs         : Technical directorship and infrastructure
   Hang Xu                : AUTO-CI-Response properties 


 We gratefully acknowledge several colleagues who have allowed us to
 interface, adapt or use parts of their codes:
   Stefan Grimme, W. Hujo, H. Kruse, P. Pracht,  : VdW corrections, initial TS optimization,
                  C. Bannwarth, S. Ehlert,         DFT functionals, gCP, sTDA/sTD-DF
                  L. Wittmann, M. Mueller
   Ed Valeev, F. Pavosevic, A. Kumar             : LibInt (2-el integral package), F12 methods
   Garnet Chan, S. Sharma, J. Yang, R. Olivares  : DMRG
   Ulf Ekstrom                                   : XCFun DFT Library
   Mihaly Kallay                                 : mrcc  (arbitrary order and MRCC methods)
   Frank Weinhold                                : gennbo (NPA and NBO analysis)
   Simon Mueller                                 : openCOSMO-RS
   Christopher J. Cramer and Donald G. Truhlar   : smd solvation model
   Lars Goerigk                                  : TD-DFT with DH, B97 family of functionals
   V. Asgeirsson, H. Jonsson                     : NEB implementation
   FAccTs GmbH                                   : IRC, NEB, NEB-TS, DLPNO-Multilevel, CI-OPT
                                                   MM, QMMM, 2- and 3-layer-ONIOM, Crystal-QMMM,
                                                   LR-CPCM, SF, NACMEs, symmetry and pop. for TD-DFT,
                                                   nearIR, NL-DFT gradient (VV10), updates on ESD,
                                                   ML-optimized integration grids, MBIS, APM,
                                                   GOAT, DOCKER, SOLVATOR, interface openCOSMO-RS
   S Lehtola, MJT Oliveira, MAL Marques          : LibXC Library
   Liviu Ungur et al                             : ANISO software


 Your calculation uses the libint2 library for the computation of 2-el integrals
 For citations please refer to: http://libint.valeyev.net

 Your ORCA version has been built with support for libXC version: 6.2.2
 For citations please refer to: https://libxc.gitlab.io

 This ORCA versions uses:
   CBLAS   interface :  Fast vector & matrix operations
   LAPACKE interface :  Fast linear algebra routines
   SCALAPACK package :  Parallel linear algebra routines
   Shared memory     :  Shared parallel matrices
   BLAS/LAPACK       :  OpenBLAS 0.3.27  USE64BITINT DYNAMIC_ARCH NO_AFFINITY Zen SINGLE_THREADED
        Core in use  :  Zen
   Copyright (c) 2011-2014, The OpenBLAS Project


Your calculation utilizes the atom-pairwise dispersion correction
with the Becke-Johnson damping scheme (D3BJ)


Warning: RI is on but no J-basis has been assigned. Assigning Def2/J (nothing to worry about!)
================================================================================

----- Orbital basis set information -----
Your calculation utilizes the basis: def2-TZVPPD
   F. Weigend and R. Ahlrichs, Phys. Chem. Chem. Phys. 7, 3297 (2005).
   D. Rappoport and F. Furche, J. Chem. Phys. 133, 134105 (2010)
   D. Rappoport, J. Chem. Phys. 155, 124102 (2021).

----- AuxJ basis set information -----
Your calculation utilizes the auxiliary basis: def2/J
   F. Weigend, Phys. Chem. Chem. Phys. 8, 1057 (2006).

================================================================================
                                        WARNINGS
                       Please study these warnings very carefully!
================================================================================

Using LibXC functional ID 531 : wB97M-V exchange-correlation functional
[ 1]  N. Mardirossian and M. Head-Gordon.,  J. Chem. Phys. 144, 214110 (2016)
Using LibXC functional ID 531 : wB97M-V exchange-correlation functional
[ 1]  N. Mardirossian and M. Head-Gordon.,  J. Chem. Phys. 144, 214110 (2016)

WARNING: B97M-V or wB97M-V functional requested.
  ===> : libXC variant has now been activated.
         Any manually given DFX/HFX/RangeSep scaling parameters are IGNORED!

Your calculation utilizes LibXC
 by S Lehtola, C Steigemann, MJT Oliveira & MAL Marques
Please cite in your paper:
 S Lehtola, C Steigemann, MJT Oliveira & MAL Marques, SoftwareX, 7, (2018), 1.
   


WARNING: your system is open-shell and RHF/RKS was chosen
  ===> : WILL SWITCH to UHF/UKS

INFO   : Checking CIS options ...

WARNING: CIS/ROCIS methods need fully converged wavefunctions
  ===> : Setting SCFConvForced true
         You can overwrite this default with %scf ConvForced false 


================================================================================
                                       INPUT FILE
================================================================================
NAME = orca.inp
|  1> ! Engrad def2-TZVPPD wB97M-D3BJ 
|  2> %pal nprocs 8 end%pal nprocs 64 end 
|  3> %tddft 
|  4>  Iroot 1 Nroots 3 
|  5> sf true 
|  6> end 
|  7> *xyz 0 3 
|  8> O   0.57594808 0.81824419 1.0182273
|  9> C   -0.04261213 0.05213883 0.0278231
| 10> C   0.79986791 -0.6990265 -0.93280789
| 11> H   -0.86046345 0.67313423 -0.35911148
| 12> H   -0.50668011 -0.72062451 0.46475248
| 13> H   0.23836989 -0.95758613 -1.82609011
| 14> H   1.48216169 -1.35700697 -0.41201466
| 15> *
| 16> 
| 17>                          ****END OF INPUT****
================================================================================

                     *******************************
                     * Energy+Gradient Calculation *
                     *******************************

---------------------------------
CARTESIAN COORDINATES (ANGSTROEM)
---------------------------------
  O      0.575948    0.818244    1.018227
  C     -0.042612    0.052139    0.027823
  C      0.799868   -0.699026   -0.932808
  H     -0.860463    0.673134   -0.359111
  H     -0.506680   -0.720625    0.464752
  H      0.238370   -0.957586   -1.826090
  H      1.482162   -1.357007   -0.412015

----------------------------
CARTESIAN COORDINATES (A.U.)
----------------------------
  NO LB      ZA    FRAG     MASS         X           Y           Z
   0 O     8.0000    0    15.999    1.088384    1.546257    1.924171
   1 C     6.0000    0    12.011   -0.080525    0.098528    0.052578
   2 C     6.0000    0    12.011    1.511531   -1.320969   -1.762751
   3 H     1.0000    0     1.008   -1.626040    1.272039   -0.678622
   4 H     1.0000    0     1.008   -0.957487   -1.361783    0.878255
   5 H     1.0000    0     1.008    0.450454   -1.809576   -3.450810
   6 H     1.0000    0     1.008    2.800880   -2.564372   -0.778595

--------------------------------
INTERNAL COORDINATES (ANGSTROEM)
--------------------------------
 O      0   0   0     0.000000000000     0.00000000     0.00000000
 C      1   0   0     1.396579620141     0.00000000     0.00000000
 C      2   1   0     1.482172010848   119.07022301     0.00000000
 H      2   1   3     1.097376160506   105.64754279   223.25801159
 H      2   1   3     1.001713308695   108.60519264   111.98328062
 H      3   2   1     1.086317740487   111.08666483   199.68582903
 H      3   2   1     1.081521469755   110.78257088    55.77760881

---------------------------
INTERNAL COORDINATES (A.U.)
---------------------------
 O      0   0   0     0.000000000000     0.00000000     0.00000000
 C      1   0   0     2.639153006283     0.00000000     0.00000000
 C      2   1   0     2.800899183866   119.07022301     0.00000000
 H      2   1   3     2.073740409250   105.64754279   223.25801159
 H      2   1   3     1.892963818137   108.60519264   111.98328062
 H      3   2   1     2.052843023941   111.08666483   199.68582903
 H      3   2   1     2.043779385794   110.78257088    55.77760881

---------------------
BASIS SET INFORMATION
---------------------
There are 3 groups of distinct atoms

 Group   1 Type O   : 12s7p3d1f contracted to 6s4p3d1f pattern {621111/4111/111/1}
 Group   2 Type C   : 12s6p3d1f contracted to 6s3p3d1f pattern {621111/411/111/1}
 Group   3 Type H   : 5s3p1d contracted to 3s3p1d pattern {311/111/1}

Atom   0O    basis set group =>   1
Atom   1C    basis set group =>   2
Atom   2C    basis set group =>   2
Atom   3H    basis set group =>   3
Atom   4H    basis set group =>   3
Atom   5H    basis set group =>   3
Atom   6H    basis set group =>   3
---------------------------------
AUXILIARY/J BASIS SET INFORMATION
---------------------------------
There are 3 groups of distinct atoms

 Group   1 Type O   : 12s5p4d2f1g contracted to 6s4p3d1f1g pattern {711111/2111/211/2/1}
 Group   2 Type C   : 12s5p4d2f1g contracted to 6s4p3d1f1g pattern {711111/2111/211/2/1}
 Group   3 Type H   : 5s2p1d contracted to 3s1p1d pattern {311/2/1}

Atom   0O    basis set group =>   1
Atom   1C    basis set group =>   2
Atom   2C    basis set group =>   2
Atom   3H    basis set group =>   3
Atom   4H    basis set group =>   3
Atom   5H    basis set group =>   3
Atom   6H    basis set group =>   3
[1741607318.267311] [ohm:3124820:0]        ib_iface.c:1059 UCX  ERROR ibv_create_cq(cqe=256) failed: Connection timed out
[1741607318.269110] [ohm:3124817:0]        ib_iface.c:1059 UCX  ERROR ibv_create_cq(cqe=256) failed: Connection timed out
[1741607318.299707] [ohm:3124877:0]        ib_iface.c:1059 UCX  ERROR ibv_create_cq(cqe=256) failed: Connection timed out
[1741607318.304062] [ohm:3124818:0]        ib_iface.c:1059 UCX  ERROR ibv_create_cq(cqe=256) failed: Connection timed out
[1741607318.308763] [ohm:3124815:0]        ib_iface.c:1059 UCX  ERROR ibv_create_cq(cqe=256) failed: Connection timed out
[1741607318.311598] [ohm:3124823:0]        ib_iface.c:1059 UCX  ERROR ibv_create_cq(cqe=256) failed: Connection timed out
[1741607318.326610] [ohm:3124902:0]        ib_iface.c:1059 UCX  ERROR ibv_create_cq(cqe=256) failed: Connection timed out
[1741607318.331211] [ohm:3124816:0]        ib_iface.c:1059 UCX  ERROR ibv_create_cq(cqe=256) failed: Connection timed out
[1741607318.335029] [ohm:3124819:0]        ib_iface.c:1059 UCX  ERROR ibv_create_cq(cqe=256) failed: Connection timed out
[1741607318.335089] [ohm:3124868:0]        ib_iface.c:1059 UCX  ERROR ibv_create_cq(cqe=256) failed: Connection timed out
[1741607318.341034] [ohm:3124898:0]        ib_iface.c:1059 UCX  ERROR ibv_create_cq(cqe=256) failed: Connection timed out
[1741607318.347065] [ohm:3124836:0]        ib_iface.c:1059 UCX  ERROR ibv_create_cq(cqe=256) failed: Connection timed out
[1741607318.351961] [ohm:3124886:0]        ib_iface.c:1059 UCX  ERROR ibv_create_cq(cqe=256) failed: Connection timed out
[1741607318.353694] [ohm:3124844:0]        ib_iface.c:1059 UCX  ERROR ibv_create_cq(cqe=256) failed: Connection timed out
[1741607318.372786] [ohm:3124838:0]        ib_iface.c:1059 UCX  ERROR ibv_create_cq(cqe=256) failed: Connection timed out
[1741607318.384031] [ohm:3124892:0]        ib_iface.c:1059 UCX  ERROR ibv_create_cq(cqe=256) failed: Connection timed out
[1741607318.394453] [ohm:3124822:0]        ib_iface.c:1059 UCX  ERROR ibv_create_cq(cqe=256) failed: Connection timed out
[1741607318.400322] [ohm:3124912:0]        ib_iface.c:1059 UCX  ERROR ibv_create_cq(cqe=256) failed: Connection timed out
[1741607318.401057] [ohm:3124850:0]        ib_iface.c:1059 UCX  ERROR ibv_create_cq(cqe=256) failed: Connection timed out
[1741607318.405623] [ohm:3124833:0]        ib_iface.c:1059 UCX  ERROR ibv_create_cq(cqe=256) failed: Connection timed out
[1741607318.409247] [ohm:3124834:0]        ib_iface.c:1059 UCX  ERROR ibv_create_cq(cqe=256) failed: Connection timed out
[1741607318.414420] [ohm:3124882:0]        ib_iface.c:1059 UCX  ERROR ibv_create_cq(cqe=256) failed: Connection timed out
[1741607318.417277] [ohm:3124835:0]        ib_iface.c:1059 UCX  ERROR ibv_create_cq(cqe=256) failed: Connection timed out
[1741607318.421810] [ohm:3124937:0]        ib_iface.c:1059 UCX  ERROR ibv_create_cq(cqe=256) failed: Connection timed out
[1741607318.427417] [ohm:3124843:0]        ib_iface.c:1059 UCX  ERROR ibv_create_cq(cqe=256) failed: Connection timed out
[1741607318.427865] [ohm:3124907:0]        ib_iface.c:1059 UCX  ERROR ibv_create_cq(cqe=256) failed: Connection timed out
[1741607318.450109] [ohm:3124841:0]        ib_iface.c:1059 UCX  ERROR ibv_create_cq(cqe=256) failed: Connection timed out
[1741607318.472816] [ohm:3124839:0]        ib_iface.c:1059 UCX  ERROR ibv_create_cq(cqe=256) failed: Connection timed out
[1741607318.473148] [ohm:3124926:0]        ib_iface.c:1059 UCX  ERROR ibv_create_cq(cqe=256) failed: Connection timed out
[1741607318.476727] [ohm:3124874:0]        ib_iface.c:1059 UCX  ERROR ibv_create_cq(cqe=256) failed: Connection timed out
[1741607318.478489] [ohm:3124904:0]        ib_iface.c:1059 UCX  ERROR ibv_create_cq(cqe=256) failed: Connection timed out
[1741607318.483693] [ohm:3124840:0]        ib_iface.c:1059 UCX  ERROR ibv_create_cq(cqe=256) failed: Connection timed out
[1741607318.484999] [ohm:3124939:0]        ib_iface.c:1059 UCX  ERROR ibv_create_cq(cqe=256) failed: Connection timed out
[1741607318.485160] [ohm:3124830:0]        ib_iface.c:1059 UCX  ERROR ibv_create_cq(cqe=256) failed: Connection timed out
[1741607318.485805] [ohm:3124941:0]        ib_iface.c:1059 UCX  ERROR ibv_create_cq(cqe=256) failed: Connection timed out
[1741607318.488477] [ohm:3124864:0]        ib_iface.c:1059 UCX  ERROR ibv_create_cq(cqe=256) failed: Connection timed out
[1741607318.489863] [ohm:3124917:0]        ib_iface.c:1059 UCX  ERROR ibv_create_cq(cqe=256) failed: Connection timed out
[1741607318.501331] [ohm:3124853:0]        ib_iface.c:1059 UCX  ERROR ibv_create_cq(cqe=256) failed: Connection timed out
[1741607318.508750] [ohm:3124955:0]        ib_iface.c:1059 UCX  ERROR ibv_create_cq(cqe=256) failed: Connection timed out
[1741607318.514391] [ohm:3124928:0]        ib_iface.c:1059 UCX  ERROR ibv_create_cq(cqe=256) failed: Connection timed out
[1741607318.521888] [ohm:3124951:0]        ib_iface.c:1059 UCX  ERROR ibv_create_cq(cqe=256) failed: Connection timed out
[1741607318.527379] [ohm:3124827:0]        ib_iface.c:1059 UCX  ERROR ibv_create_cq(cqe=256) failed: Connection timed out
[1741607318.528857] [ohm:3124934:0]        ib_iface.c:1059 UCX  ERROR ibv_create_cq(cqe=256) failed: Connection timed out
[1741607318.532711] [ohm:3124829:0]        ib_iface.c:1059 UCX  ERROR ibv_create_cq(cqe=256) failed: Connection timed out
[1741607318.537496] [ohm:3124957:0]        ib_iface.c:1059 UCX  ERROR ibv_create_cq(cqe=256) failed: Connection timed out
[1741607318.537919] [ohm:3124918:0]        ib_iface.c:1059 UCX  ERROR ibv_create_cq(cqe=256) failed: Connection timed out
[1741607318.547994] [ohm:3124949:0]        ib_iface.c:1059 UCX  ERROR ibv_create_cq(cqe=256) failed: Connection timed out
[1741607318.550302] [ohm:3124863:0]        ib_iface.c:1059 UCX  ERROR ibv_create_cq(cqe=256) failed: Connection timed out
[1741607318.555453] [ohm:3124966:0]        ib_iface.c:1059 UCX  ERROR ibv_create_cq(cqe=256) failed: Connection timed out
[1741607318.557690] [ohm:3124842:0]        ib_iface.c:1059 UCX  ERROR ibv_create_cq(cqe=256) failed: Connection timed out
[1741607318.557791] [ohm:3124832:0]        ib_iface.c:1059 UCX  ERROR ibv_create_cq(cqe=256) failed: Connection timed out
[1741607318.561092] [ohm:3124825:0]        ib_iface.c:1059 UCX  ERROR ibv_create_cq(cqe=256) failed: Connection timed out
[1741607318.566246] [ohm:3124932:0]        ib_iface.c:1059 UCX  ERROR ibv_create_cq(cqe=256) failed: Connection timed out
[1741607318.570448] [ohm:3124854:0]        ib_iface.c:1059 UCX  ERROR ibv_create_cq(cqe=256) failed: Connection timed out
[1741607318.571202] [ohm:3124831:0]        ib_iface.c:1059 UCX  ERROR ibv_create_cq(cqe=256) failed: Connection timed out
[1741607318.571431] [ohm:3124961:0]        ib_iface.c:1059 UCX  ERROR ibv_create_cq(cqe=256) failed: Connection timed out
[1741607318.571659] [ohm:3124896:0]        ib_iface.c:1059 UCX  ERROR ibv_create_cq(cqe=256) failed: Connection timed out
[1741607318.572654] [ohm:3124943:0]        ib_iface.c:1059 UCX  ERROR ibv_create_cq(cqe=256) failed: Connection timed out
[1741607318.572952] [ohm:3124826:0]        ib_iface.c:1059 UCX  ERROR ibv_create_cq(cqe=256) failed: Connection timed out
[1741607318.574313] [ohm:3124821:0]        ib_iface.c:1059 UCX  ERROR ibv_create_cq(cqe=256) failed: Connection timed out
[1741607318.574554] [ohm:3124837:0]        ib_iface.c:1059 UCX  ERROR ibv_create_cq(cqe=256) failed: Connection timed out
[1741607318.575596] [ohm:3124888:0]        ib_iface.c:1059 UCX  ERROR ibv_create_cq(cqe=256) failed: Connection timed out
[1741607318.575859] [ohm:3124824:0]        ib_iface.c:1059 UCX  ERROR ibv_create_cq(cqe=256) failed: Connection timed out
[1741607318.575870] [ohm:3124828:0]        ib_iface.c:1059 UCX  ERROR ibv_create_cq(cqe=256) failed: Connection timed out


           ************************************************************
           *        Program running with 64 parallel MPI-processes    *
           *              working on a common directory               *
           ************************************************************
------------------------------------------------------------------------------
                             ORCA STARTUP CALCULATIONS
                           -- RI-GTO INTEGRALS CHOSEN --
------------------------------------------------------------------------------
------------------------------------------------------------------------------
                   ___                                                        
                  /   \      - P O W E R E D   B Y -                         
                 /     \                                                     
                 |  |  |   _    _      __       _____    __    __             
                 |  |  |  | |  | |    /  \     |  _  \  |  |  /  |          
                  \  \/   | |  | |   /    \    | | | |  |  | /  /          
                 / \  \   | |__| |  /  /\  \   | |_| |  |  |/  /          
                |  |  |   |  __  | /  /__\  \  |    /   |      \           
                |  |  |   | |  | | |   __   |  |    \   |  |\   \          
                \     /   | |  | | |  |  |  |  | |\  \  |  | \   \       
                 \___/    |_|  |_| |__|  |__|  |_| \__\ |__|  \__/        
                                                                              
                      - O R C A' S   B I G   F R I E N D -                    
                                      &                                       
                       - I N T E G R A L  F E E D E R -                       
                                                                              
 v1 FN, 2020, v2 2021, v3 2022-2024                                           
------------------------------------------------------------------------------


----------------------
SHARK INTEGRAL PACKAGE
----------------------

Number of atoms                             ...      7
Number of basis functions                   ...    182
Number of shells                            ...     68
Maximum angular momentum                    ...      3
Integral batch strategy                     ... SHARK/LIBINT Hybrid
RI-J (if used) integral strategy            ... SPLIT-RIJ (Revised 2003 algorithm where possible)
Printlevel                                  ...      1
Contraction scheme used                     ... SEGMENTED contraction
Prescreening option                         ... SCHWARTZ
   Thresh                                   ... 2.500e-11
   Tcut                                     ... 2.500e-12
   Tpresel                                  ... 2.500e-12 
Coulomb Range Separation                    ... NOT USED
Exchange Range Separation                   ... Long Range
   Mu parameter                             ... 3.000e-01
   Scaling (regular/separated)              ... 1.500e-01 8.500e-01
Multipole approximations                    ... NOT USED
Finite Nucleus Model                        ... NOT USED
CABS basis                                  ... NOT available
Auxiliary Coulomb fitting basis             ... AVAILABLE
   # of basis functions in Aux-J            ...    191
   # of shells in Aux-J                     ...     65
   Maximum angular momentum in Aux-J        ...      4
Auxiliary J/K fitting basis                 ... NOT available
Auxiliary Correlation fitting basis         ... NOT available
Auxiliary 'external' fitting basis          ... NOT available

Checking pre-screening integrals            ... done (  0.0 sec) Dimension = 68
Check shell pair data                       ... done (  0.0 sec)
Shell pair information
Shell pair cut-off parameter TPreSel        ...   2.5e-12
Total number of shell pairs                 ...      2346
Shell pairs after pre-screening             ...      2326
Total number of primitive shell pairs       ...      5434
Primitive shell pairs kept                  ...      4828
          la=0 lb=0:    455 shell pairs
          la=1 lb=0:    655 shell pairs
          la=1 lb=1:    253 shell pairs
          la=2 lb=0:    386 shell pairs
          la=2 lb=1:    285 shell pairs
          la=2 lb=2:     91 shell pairs
          la=3 lb=0:     90 shell pairs
          la=3 lb=1:     66 shell pairs
          la=3 lb=2:     39 shell pairs
          la=3 lb=3:      6 shell pairs

Calculating one electron integrals          ... done (  0.0 sec)
Calculating RI/J V-Matrix + Cholesky decomp.... done (  0.0 sec)
Calculating Nuclear repulsion               ... done (  0.0 sec) ENN=     67.773051937288 Eh

Diagonalization of the overlap matrix:
Smallest eigenvalue                        ... 1.539e-05
Time for diagonalization                   ...    0.004 sec
Threshold for overlap eigenvalues          ... 1.000e-07
Number of eigenvalues below threshold      ... 0
Time for construction of square roots      ...    0.003 sec
Total time needed                          ...    0.009 sec

-------------------
DFT GRID GENERATION
-------------------

General Integration Accuracy     IntAcc      ... 4.388
Radial Grid Type                 RadialGrid  ... OptM3 with GC (2021)
Angular Grid (max. ang.)         AngularGrid ... 4 (Lebedev-302)
Angular grid pruning method      GridPruning ... 4 (adaptive)
Weight generation scheme         WeightScheme... mBecke (2022)
Basis function cutoff            BFCut       ... 1.0000e-11
Integration weight cutoff        WCut        ... 1.0000e-14
Partially contracted basis set               ... off
Rotationally invariant grid construction     ... off
Angular grids for H and He will be reduced by one unit
Diffuse basis detected: some atoms will have their outermost
                        angular grid increased by 1.

Total number of grid points                  ...    33147
Total number of batches                      ...      521
Average number of points per batch           ...       63
Average number of grid points per atom       ...     4735

--------------------
COSX GRID GENERATION
--------------------

GRIDX 1
-------
General Integration Accuracy     IntAcc      ... 3.816
Radial Grid Type                 RadialGrid  ... OptM3 with GC (2021)
Angular Grid (max. ang.)         AngularGrid ... 1 (Lebedev-50)
Angular grid pruning method      GridPruning ... 4 (adaptive)
Weight generation scheme         WeightScheme... mBecke (2022)
Basis function cutoff            BFCut       ... 1.0000e-11
Integration weight cutoff        WCut        ... 1.0000e-14
Partially contracted basis set               ... on
Rotationally invariant grid construction     ... off
Angular grids for H and He will be reduced by one unit
Diffuse basis detected: some atoms will have their outermost
                        angular grid increased by 1.

Total number of grid points                  ...     4170
Total number of batches                      ...       36
Average number of points per batch           ...      115
Average number of grid points per atom       ...      596
UseSFitting                                  ... on

GRIDX 2
-------
General Integration Accuracy     IntAcc      ... 4.020
Radial Grid Type                 RadialGrid  ... OptM3 with GC (2021)
Angular Grid (max. ang.)         AngularGrid ... 2 (Lebedev-110)
Angular grid pruning method      GridPruning ... 4 (adaptive)
Weight generation scheme         WeightScheme... mBecke (2022)
Basis function cutoff            BFCut       ... 1.0000e-11
Integration weight cutoff        WCut        ... 1.0000e-14
Partially contracted basis set               ... on
Rotationally invariant grid construction     ... off
Angular grids for H and He will be reduced by one unit
Diffuse basis detected: some atoms will have their outermost
                        angular grid increased by 1.

Total number of grid points                  ...    10296
Total number of batches                      ...       84
Average number of points per batch           ...      122
Average number of grid points per atom       ...     1471
UseSFitting                                  ... on

GRIDX 3
-------
General Integration Accuracy     IntAcc      ... 4.338
Radial Grid Type                 RadialGrid  ... OptM3 with GC (2021)
Angular Grid (max. ang.)         AngularGrid ... 3 (Lebedev-194)
Angular grid pruning method      GridPruning ... 4 (adaptive)
Weight generation scheme         WeightScheme... mBecke (2022)
Basis function cutoff            BFCut       ... 1.0000e-11
Integration weight cutoff        WCut        ... 1.0000e-14
Partially contracted basis set               ... on
Rotationally invariant grid construction     ... off
Angular grids for H and He will be reduced by one unit
Diffuse basis detected: some atoms will have their outermost
                        angular grid increased by 1.

Total number of grid points                  ...    23146
Total number of batches                      ...      185
Average number of points per batch           ...      125
Average number of grid points per atom       ...     3307
UseSFitting                                  ... on
Initializing property integral containers    ... done (  0.0 sec)

SHARK setup successfully completed in   0.4 seconds

Maximum memory used throughout the entire STARTUP-calculation: 13.8 MB
[1741607320.679232] [ohm:3125145:0]        ib_iface.c:1059 UCX  ERROR ibv_create_cq(cqe=256) failed: Connection timed out
[1741607320.685646] [ohm:3125150:0]        ib_iface.c:1059 UCX  ERROR ibv_create_cq(cqe=256) failed: Connection timed out
[1741607320.686678] [ohm:3125158:0]        ib_iface.c:1059 UCX  ERROR ibv_create_cq(cqe=256) failed: Connection timed out
[1741607320.694383] [ohm:3125147:0]        ib_iface.c:1059 UCX  ERROR ibv_create_cq(cqe=256) failed: Connection timed out
[1741607320.695585] [ohm:3125146:0]        ib_iface.c:1059 UCX  ERROR ibv_create_cq(cqe=256) failed: Connection timed out
[1741607320.703136] [ohm:3125154:0]        ib_iface.c:1059 UCX  ERROR ibv_create_cq(cqe=256) failed: Connection timed out
[1741607320.707559] [ohm:3125149:0]        ib_iface.c:1059 UCX  ERROR ibv_create_cq(cqe=256) failed: Connection timed out
[1741607320.713495] [ohm:3125148:0]        ib_iface.c:1059 UCX  ERROR ibv_create_cq(cqe=256) failed: Connection timed out
[1741607320.719238] [ohm:3125179:0]        ib_iface.c:1059 UCX  ERROR ibv_create_cq(cqe=256) failed: Connection timed out
[1741607320.720207] [ohm:3125198:0]        ib_iface.c:1059 UCX  ERROR ibv_create_cq(cqe=256) failed: Connection timed out
[1741607320.721584] [ohm:3125153:0]        ib_iface.c:1059 UCX  ERROR ibv_create_cq(cqe=256) failed: Connection timed out
[1741607320.730459] [ohm:3125176:0]        ib_iface.c:1059 UCX  ERROR ibv_create_cq(cqe=256) failed: Connection timed out
[1741607320.732095] [ohm:3125201:0]        ib_iface.c:1059 UCX  ERROR ibv_create_cq(cqe=256) failed: Connection timed out
[1741607320.732299] [ohm:3125173:0]        ib_iface.c:1059 UCX  ERROR ibv_create_cq(cqe=256) failed: Connection timed out
[1741607320.736022] [ohm:3125211:0]        ib_iface.c:1059 UCX  ERROR ibv_create_cq(cqe=256) failed: Connection timed out
[1741607320.774528] [ohm:3125250:0]        ib_iface.c:1059 UCX  ERROR ibv_create_cq(cqe=256) failed: Connection timed out
[1741607320.779176] [ohm:3125275:0]        ib_iface.c:1059 UCX  ERROR ibv_create_cq(cqe=256) failed: Connection timed out
[1741607320.785792] [ohm:3125294:0]        ib_iface.c:1059 UCX  ERROR ibv_create_cq(cqe=256) failed: Connection timed out
[1741607320.795280] [ohm:3125253:0]        ib_iface.c:1059 UCX  ERROR ibv_create_cq(cqe=256) failed: Connection timed out
[1741607320.801255] [ohm:3125269:0]        ib_iface.c:1059 UCX  ERROR ibv_create_cq(cqe=256) failed: Connection timed out
[1741607320.806447] [ohm:3125290:0]        ib_iface.c:1059 UCX  ERROR ibv_create_cq(cqe=256) failed: Connection timed out
[1741607320.809447] [ohm:3125278:0]        ib_iface.c:1059 UCX  ERROR ibv_create_cq(cqe=256) failed: Connection timed out
[1741607320.814886] [ohm:3125203:0]        ib_iface.c:1059 UCX  ERROR ibv_create_cq(cqe=256) failed: Connection timed out
[1741607320.817151] [ohm:3125177:0]        ib_iface.c:1059 UCX  ERROR ibv_create_cq(cqe=256) failed: Connection timed out
[1741607320.828745] [ohm:3125178:0]        ib_iface.c:1059 UCX  ERROR ibv_create_cq(cqe=256) failed: Connection timed out
[1741607320.831609] [ohm:3125200:0]        ib_iface.c:1059 UCX  ERROR ibv_create_cq(cqe=256) failed: Connection timed out
[1741607320.838251] [ohm:3125288:0]        ib_iface.c:1059 UCX  ERROR ibv_create_cq(cqe=256) failed: Connection timed out
[1741607320.838561] [ohm:3125231:0]        ib_iface.c:1059 UCX  ERROR ibv_create_cq(cqe=256) failed: Connection timed out
[1741607320.847335] [ohm:3125209:0]        ib_iface.c:1059 UCX  ERROR ibv_create_cq(cqe=256) failed: Connection timed out
[1741607320.848940] [ohm:3125151:0]        ib_iface.c:1059 UCX  ERROR ibv_create_cq(cqe=256) failed: Connection timed out
[1741607320.849521] [ohm:3125157:0]        ib_iface.c:1059 UCX  ERROR ibv_create_cq(cqe=256) failed: Connection timed out
[1741607320.850024] [ohm:3125281:0]        ib_iface.c:1059 UCX  ERROR ibv_create_cq(cqe=256) failed: Connection timed out
[1741607320.850585] [ohm:3125207:0]        ib_iface.c:1059 UCX  ERROR ibv_create_cq(cqe=256) failed: Connection timed out
[1741607320.860674] [ohm:3125212:0]        ib_iface.c:1059 UCX  ERROR ibv_create_cq(cqe=256) failed: Connection timed out
[1741607320.875507] [ohm:3125265:0]        ib_iface.c:1059 UCX  ERROR ibv_create_cq(cqe=256) failed: Connection timed out
[1741607320.882544] [ohm:3125190:0]        ib_iface.c:1059 UCX  ERROR ibv_create_cq(cqe=256) failed: Connection timed out
[1741607320.889221] [ohm:3125210:0]        ib_iface.c:1059 UCX  ERROR ibv_create_cq(cqe=256) failed: Connection timed out
[1741607320.891917] [ohm:3125241:0]        ib_iface.c:1059 UCX  ERROR ibv_create_cq(cqe=256) failed: Connection timed out
[1741607320.896634] [ohm:3125206:0]        ib_iface.c:1059 UCX  ERROR ibv_create_cq(cqe=256) failed: Connection timed out
[1741607320.897623] [ohm:3125227:0]        ib_iface.c:1059 UCX  ERROR ibv_create_cq(cqe=256) failed: Connection timed out
[1741607320.905651] [ohm:3125301:0]        ib_iface.c:1059 UCX  ERROR ibv_create_cq(cqe=256) failed: Connection timed out
[1741607320.909872] [ohm:3125204:0]        ib_iface.c:1059 UCX  ERROR ibv_create_cq(cqe=256) failed: Connection timed out
[1741607320.911233] [ohm:3125156:0]        ib_iface.c:1059 UCX  ERROR ibv_create_cq(cqe=256) failed: Connection timed out
[1741607320.915027] [ohm:3125175:0]        ib_iface.c:1059 UCX  ERROR ibv_create_cq(cqe=256) failed: Connection timed out
[1741607320.921791] [ohm:3125237:0]        ib_iface.c:1059 UCX  ERROR ibv_create_cq(cqe=256) failed: Connection timed out
[1741607320.927855] [ohm:3125152:0]        ib_iface.c:1059 UCX  ERROR ibv_create_cq(cqe=256) failed: Connection timed out
[1741607320.936077] [ohm:3125219:0]        ib_iface.c:1059 UCX  ERROR ibv_create_cq(cqe=256) failed: Connection timed out
[1741607320.936077] [ohm:3125215:0]        ib_iface.c:1059 UCX  ERROR ibv_create_cq(cqe=256) failed: Connection timed out
[1741607320.938156] [ohm:3125244:0]        ib_iface.c:1059 UCX  ERROR ibv_create_cq(cqe=256) failed: Connection timed out
[1741607320.947580] [ohm:3125273:0]        ib_iface.c:1059 UCX  ERROR ibv_create_cq(cqe=256) failed: Connection timed out
[1741607320.950944] [ohm:3125208:0]        ib_iface.c:1059 UCX  ERROR ibv_create_cq(cqe=256) failed: Connection timed out
[1741607320.950975] [ohm:3125181:0]        ib_iface.c:1059 UCX  ERROR ibv_create_cq(cqe=256) failed: Connection timed out
[1741607320.956345] [ohm:3125183:0]        ib_iface.c:1059 UCX  ERROR ibv_create_cq(cqe=256) failed: Connection timed out
[1741607320.959352] [ohm:3125285:0]        ib_iface.c:1059 UCX  ERROR ibv_create_cq(cqe=256) failed: Connection timed out
[1741607320.960345] [ohm:3125260:0]        ib_iface.c:1059 UCX  ERROR ibv_create_cq(cqe=256) failed: Connection timed out
[1741607320.969435] [ohm:3125246:0]        ib_iface.c:1059 UCX  ERROR ibv_create_cq(cqe=256) failed: Connection timed out
[1741607320.970686] [ohm:3125180:0]        ib_iface.c:1059 UCX  ERROR ibv_create_cq(cqe=256) failed: Connection timed out
[1741607320.971397] [ohm:3125202:0]        ib_iface.c:1059 UCX  ERROR ibv_create_cq(cqe=256) failed: Connection timed out
[1741607320.972075] [ohm:3125258:0]        ib_iface.c:1059 UCX  ERROR ibv_create_cq(cqe=256) failed: Connection timed out
[1741607320.972261] [ohm:3125155:0]        ib_iface.c:1059 UCX  ERROR ibv_create_cq(cqe=256) failed: Connection timed out
[1741607320.972600] [ohm:3125174:0]        ib_iface.c:1059 UCX  ERROR ibv_create_cq(cqe=256) failed: Connection timed out
[1741607320.974443] [ohm:3125213:0]        ib_iface.c:1059 UCX  ERROR ibv_create_cq(cqe=256) failed: Connection timed out
[1741607320.975727] [ohm:3125191:0]        ib_iface.c:1059 UCX  ERROR ibv_create_cq(cqe=256) failed: Connection timed out
[1741607320.976091] [ohm:3125205:0]        ib_iface.c:1059 UCX  ERROR ibv_create_cq(cqe=256) failed: Connection timed out


           ************************************************************
           *        Program running with 64 parallel MPI-processes    *
           *              working on a common directory               *
           ************************************************************
-------------------------------------------------------------------------------
                                 ORCA GUESS
                   Start orbitals & Density for SCF / CASSCF
-------------------------------------------------------------------------------

------------
SCF SETTINGS
------------
Hamiltonian:
 Density Functional     Method          .... DFT(GTOs)
  Functional kind                       .... Exchange-Correlation
  Functional name                       .... wB97M-V exchange-correlation functional
  Functional family                     .... Hybrid MGGA
  Functional refs                              
    [ 0] N. Mardirossian and M. Head-Gordon.,  J. Chem. Phys. 144, 214110 (2016), doi: 10.1063/1.4952647
  Fraction of HF Exchange (short range) .... 0.1500
  Fraction of HF Exchange (long range)  .... 1.0000
  Range separation parameter mu         .... 0.3000
  Functional external parameters        .... 17
    Parameter  0 _cx00      =  8.500000e-01 : u^00 coefficient for exchange
    Parameter  1 _cx01      =  1.007000e+00 : u^01 coefficient for exchange
    Parameter  2 _cx10      =  2.590000e-01 : u^10 coefficient for exchange
    Parameter  3 _css00     =  4.430000e-01 : u^00 coefficient for same-spin correlation
    Parameter  4 _css04     = -1.437000e+00 : u^04 coefficient for same-spin correlation
    Parameter  5 _css10     = -4.535000e+00 : u^10 coefficient for same-spin correlation
    Parameter  6 _css20     = -3.390000e+00 : u^20 coefficient for same-spin correlation
    Parameter  7 _css43     =  4.278000e+00 : u^43 coefficient for same-spin correlation
    Parameter  8 _cos00     =  1.000000e+00 : u^00 coefficient for opposite-spin correlation
    Parameter  9 _cos10     =  1.358000e+00 : u^10 coefficient for opposite-spin correlation
    Parameter 10 _cos20     =  2.924000e+00 : u^20 coefficient for opposite-spin correlation
    Parameter 11 _cos21     = -8.812000e+00 : u^21 coefficient for opposite-spin correlation
    Parameter 12 _cos60     = -1.390000e+00 : u^60 coefficient for opposite-spin correlation
    Parameter 13 _cos61     =  9.142000e+00 : u^61 coefficient for opposite-spin correlation
    Parameter 14 _alpha     =  1.000000e+00 : fraction of HF exchange
    Parameter 15 _beta      = -8.500000e-01 : fraction of short-range exchange
    Parameter 16 _omega     =  3.000000e-01 : range-separation constant
 Long-range corrected/Screened/Range-Separated Hybrid DFT is turned on
   Amount of maximum screened exact exchange              ....  0.850000
   Range separation parameter mu (erf(mu*r12)/r12)        ....  0.300000
 RI-approximation to the Coulomb term is turned on
   Number of AuxJ basis functions       .... 191
   RIJ-COSX (HFX calculated with COS-X)).... on


General Settings:
 Integral files         IntName         .... orca
 Hartree-Fock type      HFTyp           .... UHF
 Total Charge           Charge          ....    0
 Multiplicity           Mult            ....    3
 Number of Electrons    NEL             ....   24
 Basis Dimension        Dim             ....  182
 Nuclear Repulsion      ENuc            ....     67.7730519373 Eh

Convergence Acceleration:
 AO-DIIS                CNVDIIS         .... on
   Start iteration      DIISMaxIt       ....    12
   Startup error        DIISStart       ....  0.200000
   # of expansion vecs  DIISMaxEq       ....     5
   Bias factor          DIISBfac        ....   1.050
   Max. coefficient     DIISMaxC        ....  10.000
 MO-DIIS                CNVKDIIS        .... off
 Trust-Rad. Augm. Hess. CNVTRAH         .... auto
   Auto Start mean grad. ratio tolernc. ....  1.125000
   Auto Start start iteration           ....    50
   Auto Start num. interpolation iter.  ....    10
   Max. Number of Micro iterations      ....    24
   Max. Number of Macro iterations      .... Maxiter - #DIIS iter
   Number of Davidson start vectors     ....     2
   Converg. threshold    (grad. norm)   ....   1.000e-05
   Grad. Scal. Fac. for Micro threshold ....   0.100
   Minimum threshold for Micro iter.    ....   1.000e-02
   NR start threshold (gradient norm)   ....   1.000e-04
   Initial trust radius                 ....   0.400
   Minimum AH scaling param. (alpha)    ....   1.000
   Maximum AH scaling param. (alpha)    .... 1000.000
   Quad. conv. algorithm                .... NR
   White noise on init. David. guess    .... on
   Maximum white noise                  ....   0.010
   Pseudo random numbers                .... off
   Inactive MOs                         .... canonical
   Orbital update algorithm             .... Taylor
   Preconditioner                       .... Diag
   Full preconditioner red. dimension   ....   250
 SOSCF                  CNVSOSCF        .... on
   Start iteration      SOSCFMaxIt      ....   150
   Startup grad/error   SOSCFStart      ....  0.003300
   Hessian update       SOSCFHessUp     .... L-BFGS
 Level Shifting         CNVShift        .... on
   Level shift para.    LevelShift      ....    0.2500
   Turn off err/grad.   ShiftErr        ....    0.0010
 Zerner damping         CNVZerner       .... off
 Static damping         CNVDamp         .... on
   Fraction old density DampFac         ....    0.7000
   Max. Damping (<1)    DampMax         ....    0.9800
   Min. Damping (>=0)   DampMin         ....    0.0000
   Turn off err/grad.   DampErr         ....    0.1000

SCF Procedure:
 Maximum # iterations   MaxIter         ....   125
 SCF integral mode      SCFMode         .... Direct
   Integral package                     .... SHARK and LIBINT hybrid scheme
 Reset frequency        DirectResetFreq ....    20
 Integral Threshold     Thresh          ....  2.500e-11 Eh
 Primitive CutOff       TCut            ....  2.500e-12 Eh

Convergence Tolerance:
 Convergence Check Mode ConvCheckMode   .... Total+1el-Energy
 Convergence forced     ConvForced      .... 1
 Energy Change          TolE            ....  1.000e-08 Eh
 1-El. energy change                    ....  1.000e-05 Eh
 Orbital Gradient       TolG            ....  1.000e-05
 Orbital Rotation angle TolX            ....  1.000e-05
 DIIS Error             TolErr          ....  5.000e-07

------------------------------
INITIAL GUESS: MODEL POTENTIAL
------------------------------
Loading Hartree-Fock densities                     ... done
Calculating cut-offs                               ... done
Initializing the effective Hamiltonian             ... done
Setting up the integral package (SHARK)            ... done
Starting the Coulomb interaction                   ... done (   0.0 sec)
Making the grid                                    ... done (   0.0 sec)
Mapping shells                                     ... done
Starting the XC term evaluation                    ... done (   0.0 sec)
  promolecular density results
     # of electrons  =     23.997274292
     EX              =    -19.473166166
     EC              =     -0.766916890
     EX+EC           =    -20.240083055
Transforming the Hamiltonian                       ... done (   0.0 sec)
Diagonalizing the Hamiltonian                      ... done (   0.0 sec)
Back transforming the eigenvectors                 ... done (   0.0 sec)
Now organizing SCF variables                       ... done
                      ------------------
                      INITIAL GUESS DONE (   0.1 sec)
                      ------------------
             **** ENERGY FILE WAS UPDATED (orca.en.tmp) ****
Finished Guess after   1.7 sec
Maximum memory used throughout the entire GUESS-calculation: 9.5 MB
[1741607322.827571] [ohm:3125509:0]        ib_iface.c:1059 UCX  ERROR ibv_create_cq(cqe=256) failed: Connection timed out
[1741607322.835225] [ohm:3125487:0]        ib_iface.c:1059 UCX  ERROR ibv_create_cq(cqe=256) failed: Connection timed out
[1741607322.837850] [ohm:3125488:0]        ib_iface.c:1059 UCX  ERROR ibv_create_cq(cqe=256) failed: Connection timed out
[1741607322.843594] [ohm:3125489:0]        ib_iface.c:1059 UCX  ERROR ibv_create_cq(cqe=256) failed: Connection timed out
[1741607322.846086] [ohm:3125486:0]        ib_iface.c:1059 UCX  ERROR ibv_create_cq(cqe=256) failed: Connection timed out
[1741607322.848106] [ohm:3125490:0]        ib_iface.c:1059 UCX  ERROR ibv_create_cq(cqe=256) failed: Connection timed out
[1741607322.850740] [ohm:3125492:0]        ib_iface.c:1059 UCX  ERROR ibv_create_cq(cqe=256) failed: Connection timed out
[1741607322.850875] [ohm:3125510:0]        ib_iface.c:1059 UCX  ERROR ibv_create_cq(cqe=256) failed: Connection timed out
[1741607322.855074] [ohm:3125494:0]        ib_iface.c:1059 UCX  ERROR ibv_create_cq(cqe=256) failed: Connection timed out
[1741607322.856376] [ohm:3125491:0]        ib_iface.c:1059 UCX  ERROR ibv_create_cq(cqe=256) failed: Connection timed out
[1741607322.864933] [ohm:3125485:0]        ib_iface.c:1059 UCX  ERROR ibv_create_cq(cqe=256) failed: Connection timed out
[1741607322.867074] [ohm:3125507:0]        ib_iface.c:1059 UCX  ERROR ibv_create_cq(cqe=256) failed: Connection timed out
[1741607322.869482] [ohm:3125495:0]        ib_iface.c:1059 UCX  ERROR ibv_create_cq(cqe=256) failed: Connection timed out
[1741607322.869615] [ohm:3125535:0]        ib_iface.c:1059 UCX  ERROR ibv_create_cq(cqe=256) failed: Connection timed out
[1741607322.875852] [ohm:3125508:0]        ib_iface.c:1059 UCX  ERROR ibv_create_cq(cqe=256) failed: Connection timed out
[1741607322.876952] [ohm:3125516:0]        ib_iface.c:1059 UCX  ERROR ibv_create_cq(cqe=256) failed: Connection timed out
[1741607322.888553] [ohm:3125512:0]        ib_iface.c:1059 UCX  ERROR ibv_create_cq(cqe=256) failed: Connection timed out
[1741607322.919682] [ohm:3125528:0]        ib_iface.c:1059 UCX  ERROR ibv_create_cq(cqe=256) failed: Connection timed out
[1741607322.919949] [ohm:3125559:0]        ib_iface.c:1059 UCX  ERROR ibv_create_cq(cqe=256) failed: Connection timed out
[1741607322.927912] [ohm:3125551:0]        ib_iface.c:1059 UCX  ERROR ibv_create_cq(cqe=256) failed: Connection timed out
[1741607322.933164] [ohm:3125537:0]        ib_iface.c:1059 UCX  ERROR ibv_create_cq(cqe=256) failed: Connection timed out
[1741607322.933350] [ohm:3125506:0]        ib_iface.c:1059 UCX  ERROR ibv_create_cq(cqe=256) failed: Connection timed out
[1741607322.957260] [ohm:3125511:0]        ib_iface.c:1059 UCX  ERROR ibv_create_cq(cqe=256) failed: Connection timed out
[1741607322.979916] [ohm:3125493:0]        ib_iface.c:1059 UCX  ERROR ibv_create_cq(cqe=256) failed: Connection timed out
[1741607322.983545] [ohm:3125514:0]        ib_iface.c:1059 UCX  ERROR ibv_create_cq(cqe=256) failed: Connection timed out
[1741607322.983521] [ohm:3125536:0]        ib_iface.c:1059 UCX  ERROR ibv_create_cq(cqe=256) failed: Connection timed out
[1741607322.983575] [ohm:3125539:0]        ib_iface.c:1059 UCX  ERROR ibv_create_cq(cqe=256) failed: Connection timed out
[1741607322.992707] [ohm:3125554:0]        ib_iface.c:1059 UCX  ERROR ibv_create_cq(cqe=256) failed: Connection timed out
[1741607322.998964] [ohm:3125603:0]        ib_iface.c:1059 UCX  ERROR ibv_create_cq(cqe=256) failed: Connection timed out
[1741607322.999593] [ohm:3125520:0]        ib_iface.c:1059 UCX  ERROR ibv_create_cq(cqe=256) failed: Connection timed out
[1741607323.006971] [ohm:3125534:0]        ib_iface.c:1059 UCX  ERROR ibv_create_cq(cqe=256) failed: Connection timed out
[1741607323.016800] [ohm:3125563:0]        ib_iface.c:1059 UCX  ERROR ibv_create_cq(cqe=256) failed: Connection timed out
[1741607323.026345] [ohm:3125526:0]        ib_iface.c:1059 UCX  ERROR ibv_create_cq(cqe=256) failed: Connection timed out
[1741607323.027776] [ohm:3125545:0]        ib_iface.c:1059 UCX  ERROR ibv_create_cq(cqe=256) failed: Connection timed out
[1741607323.031327] [ohm:3125523:0]        ib_iface.c:1059 UCX  ERROR ibv_create_cq(cqe=256) failed: Connection timed out
[1741607323.031422] [ohm:3125541:0]        ib_iface.c:1059 UCX  ERROR ibv_create_cq(cqe=256) failed: Connection timed out
[1741607323.035399] [ohm:3125540:0]        ib_iface.c:1059 UCX  ERROR ibv_create_cq(cqe=256) failed: Connection timed out
[1741607323.037219] [ohm:3125546:0]        ib_iface.c:1059 UCX  ERROR ibv_create_cq(cqe=256) failed: Connection timed out
[1741607323.041839] [ohm:3125530:0]        ib_iface.c:1059 UCX  ERROR ibv_create_cq(cqe=256) failed: Connection timed out
[1741607323.042102] [ohm:3125572:0]        ib_iface.c:1059 UCX  ERROR ibv_create_cq(cqe=256) failed: Connection timed out
[1741607323.045193] [ohm:3125533:0]        ib_iface.c:1059 UCX  ERROR ibv_create_cq(cqe=256) failed: Connection timed out
[1741607323.045287] [ohm:3125566:0]        ib_iface.c:1059 UCX  ERROR ibv_create_cq(cqe=256) failed: Connection timed out
[1741607323.046314] [ohm:3125532:0]        ib_iface.c:1059 UCX  ERROR ibv_create_cq(cqe=256) failed: Connection timed out
[1741607323.052006] [ohm:3125624:0]        ib_iface.c:1059 UCX  ERROR ibv_create_cq(cqe=256) failed: Connection timed out
[1741607323.052651] [ohm:3125604:0]        ib_iface.c:1059 UCX  ERROR ibv_create_cq(cqe=256) failed: Connection timed out
[1741607323.052668] [ohm:3125629:0]        ib_iface.c:1059 UCX  ERROR ibv_create_cq(cqe=256) failed: Connection timed out
[1741607323.052880] [ohm:3125538:0]        ib_iface.c:1059 UCX  ERROR ibv_create_cq(cqe=256) failed: Connection timed out
[1741607323.065280] [ohm:3125627:0]        ib_iface.c:1059 UCX  ERROR ibv_create_cq(cqe=256) failed: Connection timed out
[1741607323.065441] [ohm:3125595:0]        ib_iface.c:1059 UCX  ERROR ibv_create_cq(cqe=256) failed: Connection timed out
[1741607323.072979] [ohm:3125578:0]        ib_iface.c:1059 UCX  ERROR ibv_create_cq(cqe=256) failed: Connection timed out
[1741607323.073103] [ohm:3125620:0]        ib_iface.c:1059 UCX  ERROR ibv_create_cq(cqe=256) failed: Connection timed out
[1741607323.078837] [ohm:3125619:0]        ib_iface.c:1059 UCX  ERROR ibv_create_cq(cqe=256) failed: Connection timed out
[1741607323.086878] [ohm:3125634:0]        ib_iface.c:1059 UCX  ERROR ibv_create_cq(cqe=256) failed: Connection timed out
[1741607323.087029] [ohm:3125610:0]        ib_iface.c:1059 UCX  ERROR ibv_create_cq(cqe=256) failed: Connection timed out
[1741607323.092707] [ohm:3125599:0]        ib_iface.c:1059 UCX  ERROR ibv_create_cq(cqe=256) failed: Connection timed out
[1741607323.093489] [ohm:3125574:0]        ib_iface.c:1059 UCX  ERROR ibv_create_cq(cqe=256) failed: Connection timed out
[1741607323.096097] [ohm:3125581:0]        ib_iface.c:1059 UCX  ERROR ibv_create_cq(cqe=256) failed: Connection timed out
[1741607323.098317] [ohm:3125588:0]        ib_iface.c:1059 UCX  ERROR ibv_create_cq(cqe=256) failed: Connection timed out
[1741607323.099673] [ohm:3125568:0]        ib_iface.c:1059 UCX  ERROR ibv_create_cq(cqe=256) failed: Connection timed out
[1741607323.100784] [ohm:3125612:0]        ib_iface.c:1059 UCX  ERROR ibv_create_cq(cqe=256) failed: Connection timed out
[1741607323.100877] [ohm:3125585:0]        ib_iface.c:1059 UCX  ERROR ibv_create_cq(cqe=256) failed: Connection timed out
[1741607323.100929] [ohm:3125623:0]        ib_iface.c:1059 UCX  ERROR ibv_create_cq(cqe=256) failed: Connection timed out
[1741607323.104513] [ohm:3125592:0]        ib_iface.c:1059 UCX  ERROR ibv_create_cq(cqe=256) failed: Connection timed out
[1741607323.104501] [ohm:3125631:0]        ib_iface.c:1059 UCX  ERROR ibv_create_cq(cqe=256) failed: Connection timed out


           ************************************************************
           *        Program running with 64 parallel MPI-processes    *
           *              working on a common directory               *
           ************************************************************

-------------------------------------------------------------------------------------------
                                      ORCA LEAN-SCF
                              memory conserving SCF solver
-------------------------------------------------------------------------------------------

----------------------------------------D-I-I-S--------------------------------------------
Iteration    Energy (Eh)           Delta-E    RMSDP     MaxDP     DIISErr   Damp  Time(sec)
-------------------------------------------------------------------------------------------
               ***  Starting incremental Fock matrix formation  ***
    1    -153.6988765839606685     0.00e+00  8.51e-04  2.12e-02  6.52e-02  0.700   0.3
    2    -153.7228391110778034    -2.40e-02  7.66e-04  1.80e-02  3.80e-02  0.700   0.3
                               ***Turning on AO-DIIS***
    3    -153.7366071315565819    -1.38e-02  5.97e-04  1.89e-02  2.12e-02  0.700   0.3
    4    -153.7452300932474714    -8.62e-03  1.46e-03  4.85e-02  1.49e-02  0.000   0.3
    5    -153.7653266977538351    -2.01e-02  1.35e-04  5.01e-03  4.80e-03  0.000   0.3
                              *** Initializing SOSCF ***
---------------------------------------S-O-S-C-F--------------------------------------
Iteration    Energy (Eh)           Delta-E    RMSDP     MaxDP     MaxGrad    Time(sec)
--------------------------------------------------------------------------------------
    6    -153.7657337357150027    -4.07e-04  8.42e-05  1.79e-03  2.90e-03     0.3
               *** Restarting incremental Fock matrix formation ***
    7    -153.7659157726730541    -1.82e-04  5.74e-05  1.62e-03  3.32e-03     0.3
    8    -153.7659833672070704    -6.76e-05  7.38e-05  1.93e-03  1.43e-03     0.3
    9    -153.7660322353465858    -4.89e-05  2.43e-05  8.37e-04  1.01e-03     0.3
   10    -153.7660438813175574    -1.16e-05  1.50e-04  5.91e-03  1.01e-03     0.3
   11    -153.7660990034412976    -5.51e-05  1.52e-04  6.45e-03  9.83e-04     0.3
   12    -153.7661492011859536    -5.02e-05  3.27e-04  1.32e-02  1.24e-03     0.3
   13    -153.7662432537748600    -9.41e-05  3.80e-04  1.32e-02  1.87e-03     0.3
   14    -153.7663406436455489    -9.74e-05  3.22e-04  1.24e-02  2.08e-03     0.3
   15    -153.7664194766381343    -7.88e-05  9.92e-05  3.52e-03  1.38e-03     0.3
   16    -153.7664457500895878    -2.63e-05  2.17e-05  9.36e-04  4.75e-04     0.3
   17    -153.7664492349261423    -3.48e-06  1.96e-05  7.06e-04  1.21e-04     0.3
   18    -153.7664497471627669    -5.12e-07  7.15e-06  2.36e-04  4.12e-05     0.3
   19    -153.7664498154609305    -6.83e-08  1.12e-06  3.00e-05  1.35e-05     0.3
   20    -153.7664498218724702    -6.41e-09  5.31e-07  2.26e-05  4.11e-06     0.3
                 **** Energy Check signals convergence ****

               *****************************************************
               *                     SUCCESS                       *
               *           SCF CONVERGED AFTER  20 CYCLES          *
               *****************************************************

Recomputing exchange energy using gridx3       ... done (    0.174 sec)
Old exchange energy                            :     -6.206412483 Eh
New exchange energy                            :     -6.206424135 Eh
Exchange energy change after final integration :     -0.000011652 Eh
Total energy after final integration           :   -153.766461474 Eh
             **** ENERGY FILE WAS UPDATED (orca.en.tmp) ****

----------------
TOTAL SCF ENERGY
----------------

Total Energy       :       -153.76646147373890 Eh           -4184.19814 eV

Components:
Nuclear Repulsion  :         67.77305193728797 Eh            1844.19850 eV
Electronic Energy  :       -221.53950175916049 Eh           -6028.39632 eV
One Electron Energy:       -342.02500838142868 Eh           -9306.97364 eV
Two Electron Energy:        120.48550662226820 Eh            3278.57731 eV

Virial components:
Potential Energy   :       -307.19639072552252 Eh           -8359.23877 eV
Kinetic Energy     :        153.42992925178359 Eh            4175.04063 eV
Virial Ratio       :          2.00219339358101

DFT components:
N(Alpha)           :       12.999994532543 electrons
N(Beta)            :       10.999986913596 electrons
N(Total)           :       23.999981446139 electrons
E(XC)              :      -14.721522801861 Eh       

---------------
SCF CONVERGENCE
---------------

  Last Energy change         ...    6.4115e-09  Tolerance :   1.0000e-08
  Last MAX-Density change    ...    2.2643e-05  Tolerance :   1.0000e-07
  Last RMS-Density change    ...    5.3094e-07  Tolerance :   5.0000e-09
  Last DIIS Error            ...    2.9045e-03  Tolerance :   5.0000e-07
  Last Orbital Gradient      ...    4.1088e-06  Tolerance :   1.0000e-05
  Last Orbital Rotation      ...    6.3349e-05  Tolerance :   1.0000e-05


----------------------
UHF SPIN CONTAMINATION
----------------------

Warning: in a DFT calculation there is little theoretical justification to 
         calculate <S**2> as in Hartree-Fock theory. We will do it anyways
         but you should keep in mind that the values have only limited relevance

Expectation value of <S**2>     :     2.006901
Ideal value S*(S+1) for S=1.0   :     2.000000
Deviation                       :     0.006901

----------------
ORBITAL ENERGIES
----------------
                 SPIN UP ORBITALS
  NO   OCC          E(Eh)            E(eV) 
   0   1.0000     -19.389633      -527.6187 
   1   1.0000     -10.400373      -283.0085 
   2   1.0000     -10.372843      -282.2594 
   3   1.0000      -1.158859       -31.5342 
   4   1.0000      -0.896630       -24.3985 
   5   1.0000      -0.737161       -20.0592 
   6   1.0000      -0.621197       -16.9036 
   7   1.0000      -0.588473       -16.0132 
   8   1.0000      -0.545857       -14.8535 
   9   1.0000      -0.520960       -14.1760 
  10   1.0000      -0.451779       -12.2935 
  11   1.0000      -0.411529       -11.1983 
  12   1.0000      -0.330305        -8.9881 
  13   0.0000       0.038498         1.0476 
  14   0.0000       0.062832         1.7098 
  15   0.0000       0.077947         2.1211 
  16   0.0000       0.086193         2.3454 
  17   0.0000       0.111298         3.0286 
  18   0.0000       0.119413         3.2494 
  19   0.0000       0.131039         3.5658 
  20   0.0000       0.152129         4.1396 
  21   0.0000       0.165477         4.5029 
  22   0.0000       0.182194         4.9578 
  23   0.0000       0.190454         5.1825 

                 SPIN DOWN ORBITALS
  NO   OCC          E(Eh)            E(eV) 
   0   1.0000     -19.365911      -526.9732 
   1   1.0000     -10.401128      -283.0291 
   2   1.0000     -10.359153      -281.8869 
   3   1.0000      -1.104160       -30.0457 
   4   1.0000      -0.865849       -23.5609 
   5   1.0000      -0.708303       -19.2739 
   6   1.0000      -0.592195       -16.1144 
   7   1.0000      -0.552365       -15.0306 
   8   1.0000      -0.526040       -14.3143 
   9   1.0000      -0.493439       -13.4271 
  10   1.0000      -0.383663       -10.4400 
  11   0.0000      -0.054464        -1.4821 
  12   0.0000      -0.000155        -0.0042 
  13   0.0000       0.038872         1.0578 
  14   0.0000       0.062672         1.7054 
  15   0.0000       0.078673         2.1408 
  16   0.0000       0.088892         2.4189 
  17   0.0000       0.111925         3.0456 
  18   0.0000       0.121036         3.2936 
  19   0.0000       0.136088         3.7031 
  20   0.0000       0.153262         4.1705 
  21   0.0000       0.173048         4.7089 
*Only the first 10 virtual orbitals were printed.

                    ********************************
                    * MULLIKEN POPULATION ANALYSIS *
                    ********************************

--------------------------------------------
MULLIKEN ATOMIC CHARGES AND SPIN POPULATIONS
--------------------------------------------
   0 O :   -0.335807    0.930602
   1 C :   -0.011648   -0.005083
   2 C :   -0.648383    0.861722
   3 H :    0.262330    0.033611
   4 H :    0.223819    0.108699
   5 H :    0.268957    0.030054
   6 H :    0.240731    0.040395
Sum of atomic charges         :   -0.0000000
Sum of atomic spin populations:    2.0000000

-----------------------------------------------------
MULLIKEN REDUCED ORBITAL CHARGES AND SPIN POPULATIONS
-----------------------------------------------------
CHARGE
  0 O s       :     4.001672  s :     4.001672
      pz      :     1.210254  p :     4.312828
      px      :     1.778386
      py      :     1.324188
      dz2     :     0.006583  d :     0.020164
      dxz     :     0.002944
      dyz     :     0.004959
      dx2y2   :     0.001765
      dxy     :     0.003913
      f0      :     0.000108  f :     0.001143
      f+1     :     0.000181
      f-1     :     0.000196
      f+2     :     0.000167
      f-2     :     0.000285
      f+3     :     0.000122
      f-3     :     0.000084

  1 C s       :     3.211766  s :     3.211766
      pz      :     0.806294  p :     2.643036
      px      :     0.905779
      py      :     0.930963
      dz2     :     0.018530  d :     0.147248
      dxz     :     0.045205
      dyz     :     0.029426
      dx2y2   :     0.030651
      dxy     :     0.023437
      f0      :     0.000903  f :     0.009598
      f+1     :     0.001139
      f-1     :     0.001644
      f+2     :     0.002414
      f-2     :     0.001874
      f+3     :     0.000666
      f-3     :     0.000958

  2 C s       :     3.537930  s :     3.537930
      pz      :     1.054407  p :     3.061722
      px      :     1.027425
      py      :     0.979890
      dz2     :    -0.001961  d :     0.045408
      dxz     :     0.016884
      dyz     :     0.022101
      dx2y2   :     0.001975
      dxy     :     0.006408
      f0      :     0.000282  f :     0.003322
      f+1     :     0.000695
      f-1     :     0.000437
      f+2     :     0.000659
      f-2     :     0.000620
      f+3     :     0.000322
      f-3     :     0.000306

  3 H s       :     0.699328  s :     0.699328
      pz      :     0.012665  p :     0.035712
      px      :     0.013720
      py      :     0.009328
      dz2     :     0.000359  d :     0.002630
      dxz     :     0.000699
      dyz     :     0.000419
      dx2y2   :     0.000689
      dxy     :     0.000464

  4 H s       :     0.740111  s :     0.740111
      pz      :     0.014371  p :     0.032880
      px      :     0.004329
      py      :     0.014180
      dz2     :     0.000511  d :     0.003190
      dxz     :     0.000509
      dyz     :     0.000726
      dx2y2   :     0.000789
      dxy     :     0.000654

  5 H s       :     0.676325  s :     0.676325
      pz      :     0.017009  p :     0.052366
      px      :     0.016013
      py      :     0.019344
      dz2     :     0.000782  d :     0.002352
      dxz     :     0.000519
      dyz     :     0.000581
      dx2y2   :     0.000222
      dxy     :     0.000248

  6 H s       :     0.705046  s :     0.705046
      pz      :     0.009361  p :     0.051865
      px      :     0.015770
      py      :     0.026733
      dz2     :     0.000449  d :     0.002358
      dxz     :     0.000394
      dyz     :     0.000382
      dx2y2   :     0.000675
      dxy     :     0.000459


SPIN
  0 O s       :     0.000209  s :     0.000209
      pz      :     0.444408  p :     0.934050
      px      :     0.046471
      py      :     0.443170
      dz2     :    -0.002223  d :    -0.003502
      dxz     :    -0.000543
      dyz     :     0.000421
      dx2y2   :    -0.000193
      dxy     :    -0.000964
      f0      :    -0.000028  f :    -0.000155
      f+1     :    -0.000005
      f-1     :    -0.000097
      f+2     :    -0.000024
      f-2     :    -0.000058
      f+3     :     0.000034
      f-3     :     0.000024

  1 C s       :    -0.012566  s :    -0.012566
      pz      :    -0.007462  p :    -0.051832
      px      :    -0.019183
      py      :    -0.025187
      dz2     :     0.013183  d :     0.056900
      dxz     :     0.012226
      dyz     :     0.005528
      dx2y2   :     0.010194
      dxy     :     0.015768
      f0      :     0.000690  f :     0.002416
      f+1     :     0.000360
      f-1     :     0.000153
      f+2     :     0.000548
      f-2     :     0.000160
      f+3     :     0.000447
      f-3     :     0.000059

  2 C s       :    -0.020983  s :    -0.020983
      pz      :     0.118079  p :     0.890491
      px      :     0.332173
      py      :     0.440239
      dz2     :    -0.001692  d :    -0.006966
      dxz     :     0.001470
      dyz     :    -0.001435
      dx2y2   :    -0.001979
      dxy     :    -0.003330
      f0      :    -0.000038  f :    -0.000821
      f+1     :    -0.000161
      f-1     :    -0.000129
      f+2     :    -0.000028
      f-2     :    -0.000152
      f+3     :    -0.000154
      f-3     :    -0.000159

  3 H s       :     0.032443  s :     0.032443
      pz      :     0.000383  p :     0.001127
      px      :     0.001180
      py      :    -0.000435
      dz2     :    -0.000004  d :     0.000041
      dxz     :    -0.000005
      dyz     :     0.000019
      dx2y2   :    -0.000007
      dxy     :     0.000037

  4 H s       :     0.094339  s :     0.094339
      pz      :     0.001642  p :     0.014219
      px      :     0.001301
      py      :     0.011277
      dz2     :     0.000017  d :     0.000141
      dxz     :     0.000064
      dyz     :     0.000021
      dx2y2   :     0.000026
      dxy     :     0.000013

  5 H s       :     0.003601  s :     0.003601
      pz      :     0.000342  p :     0.025479
      px      :     0.011650
      py      :     0.013487
      dz2     :     0.000465  d :     0.000974
      dxz     :     0.000035
      dyz     :     0.000208
      dx2y2   :     0.000063
      dxy     :     0.000203

  6 H s       :     0.012853  s :     0.012853
      pz      :     0.002159  p :     0.026550
      px      :     0.005551
      py      :     0.018840
      dz2     :     0.000139  d :     0.000993
      dxz     :     0.000060
      dyz     :     0.000182
      dx2y2   :     0.000596
      dxy     :     0.000016



                     *******************************
                     * LOEWDIN POPULATION ANALYSIS *
                     *******************************

-------------------------------------------
LOEWDIN ATOMIC CHARGES AND SPIN POPULATIONS
-------------------------------------------
   0 O :    0.060998    0.868244
   1 C :   -0.206220    0.198412
   2 C :    0.265860    0.693277
   3 H :    0.031882    0.016710
   4 H :   -0.057814    0.067416
   5 H :   -0.048263    0.078768
   6 H :   -0.046444    0.077171

----------------------------------------------------
LOEWDIN REDUCED ORBITAL CHARGES AND SPIN POPULATIONS
----------------------------------------------------
CHARGE
  0 O s       :     3.494064  s :     3.494064
      pz      :     1.236742  p :     4.197885
      px      :     1.666985
      py      :     1.294158
      dz2     :     0.056357  d :     0.243484
      dxz     :     0.057740
      dyz     :     0.053136
      dx2y2   :     0.036986
      dxy     :     0.039265
      f0      :     0.000418  f :     0.003568
      f+1     :     0.000530
      f-1     :     0.000679
      f+2     :     0.000719
      f-2     :     0.000719
      f+3     :     0.000297
      f-3     :     0.000206

  1 C s       :     2.632702  s :     2.632702
      pz      :     0.846505  p :     2.597349
      px      :     0.867296
      py      :     0.883549
      dz2     :     0.158528  d :     0.895144
      dxz     :     0.213316
      dyz     :     0.226877
      dx2y2   :     0.114117
      dxy     :     0.182305
      f0      :     0.010062  f :     0.081025
      f+1     :     0.009189
      f-1     :     0.013742
      f+2     :     0.015415
      f-2     :     0.013564
      f+3     :     0.008604
      f-3     :     0.010449

  2 C s       :     2.736650  s :     2.736650
      pz      :     0.916486  p :     2.595219
      px      :     0.861310
      py      :     0.817424
      dz2     :     0.076501  d :     0.377765
      dxz     :     0.111243
      dyz     :     0.074522
      dx2y2   :     0.036719
      dxy     :     0.078780
      f0      :     0.002841  f :     0.024506
      f+1     :     0.005531
      f-1     :     0.003046
      f+2     :     0.004170
      f-2     :     0.004474
      f+3     :     0.002457
      f-3     :     0.001987

  3 H s       :     0.684511  s :     0.684511
      pz      :     0.074427  p :     0.253805
      px      :     0.098068
      py      :     0.081310
      dz2     :     0.003659  d :     0.029802
      dxz     :     0.006164
      dyz     :     0.004527
      dx2y2   :     0.008296
      dxy     :     0.007156

  4 H s       :     0.677867  s :     0.677867
      pz      :     0.103129  p :     0.334954
      px      :     0.107694
      py      :     0.124130
      dz2     :     0.006223  d :     0.044993
      dxz     :     0.007019
      dyz     :     0.009436
      dx2y2   :     0.011296
      dxy     :     0.011019

  5 H s       :     0.724639  s :     0.724639
      pz      :     0.113970  p :     0.292641
      px      :     0.096886
      py      :     0.081785
      dz2     :     0.009197  d :     0.030983
      dxz     :     0.008745
      dyz     :     0.007031
      dx2y2   :     0.002739
      dxy     :     0.003272

  6 H s       :     0.722879  s :     0.722879
      pz      :     0.092296  p :     0.292005
      px      :     0.097679
      py      :     0.102029
      dz2     :     0.005270  d :     0.031560
      dxz     :     0.005820
      dyz     :     0.006040
      dx2y2   :     0.007221
      dxy     :     0.007209


SPIN
  0 O s       :     0.011942  s :     0.011942
      pz      :     0.399750  p :     0.846578
      px      :     0.046362
      py      :     0.400466
      dz2     :     0.004635  d :     0.009710
      dxz     :     0.001680
      dyz     :     0.000086
      dx2y2   :     0.000648
      dxy     :     0.002661
      f0      :     0.000019  f :     0.000014
      f+1     :     0.000010
      f-1     :    -0.000063
      f+2     :     0.000038
      f-2     :    -0.000036
      f+3     :     0.000049
      f-3     :    -0.000004

  1 C s       :    -0.002960  s :    -0.002960
      pz      :     0.003643  p :    -0.006397
      px      :    -0.007325
      py      :    -0.002714
      dz2     :     0.044004  d :     0.187851
      dxz     :     0.041800
      dyz     :     0.019124
      dx2y2   :     0.037757
      dxy     :     0.045167
      f0      :     0.006434  f :     0.019918
      f+1     :     0.002870
      f-1     :     0.001276
      f+2     :     0.004204
      f-2     :     0.001208
      f+3     :     0.003375
      f-3     :     0.000553

  2 C s       :     0.032294  s :     0.032294
      pz      :     0.096877  p :     0.654302
      px      :     0.247362
      py      :     0.310063
      dz2     :    -0.000408  d :     0.006904
      dxz     :     0.004577
      dyz     :    -0.001363
      dx2y2   :     0.000943
      dxy     :     0.003155
      f0      :     0.000408  f :    -0.000222
      f+1     :    -0.000131
      f-1     :    -0.000205
      f+2     :    -0.000023
      f-2     :    -0.000275
      f+3     :     0.000096
      f-3     :    -0.000093

  3 H s       :     0.017119  s :     0.017119
      pz      :     0.000877  p :    -0.000416
      px      :    -0.000227
      py      :    -0.001067
      dz2     :    -0.000048  d :     0.000008
      dxz     :    -0.000125
      dyz     :     0.000136
      dx2y2   :    -0.000034
      dxy     :     0.000079

  4 H s       :     0.052692  s :     0.052692
      pz      :     0.007914  p :     0.014578
      px      :     0.001752
      py      :     0.004913
      dz2     :     0.000071  d :     0.000146
      dxz     :     0.000195
      dyz     :    -0.000061
      dx2y2   :    -0.000007
      dxy     :    -0.000053

  5 H s       :    -0.010034  s :    -0.010034
      pz      :     0.011580  p :     0.078750
      px      :     0.031462
      py      :     0.035707
      dz2     :     0.005109  d :     0.010052
      dxz     :     0.000694
      dyz     :     0.001735
      dx2y2   :     0.000335
      dxy     :     0.002178

  6 H s       :    -0.007364  s :    -0.007364
      pz      :     0.009925  p :     0.074580
      px      :     0.025697
      py      :     0.038959
      dz2     :     0.000773  d :     0.009955
      dxz     :     0.000588
      dyz     :     0.002116
      dx2y2   :     0.006163
      dxy     :     0.000314



                      *****************************
                      * MAYER POPULATION ANALYSIS *
                      *****************************

  NA   - Mulliken gross atomic population
  ZA   - Total nuclear charge
  QA   - Mulliken gross atomic charge
  VA   - Mayer's total valence
  BVA  - Mayer's bonded valence
  FA   - Mayer's free valence

  ATOM       NA         ZA         QA         VA         BVA        FA
  0 O      8.3358     8.0000    -0.3358     1.7991     0.9885     0.8106
  1 C      6.0116     6.0000    -0.0116     3.4346     3.4271     0.0075
  2 C      6.6484     6.0000    -0.6484     3.5974     2.8335     0.7639
  3 H      0.7377     1.0000     0.2623     0.9857     0.9849     0.0008
  4 H      0.7762     1.0000     0.2238     0.9428     0.9342     0.0085
  5 H      0.7310     1.0000     0.2690     0.9929     0.9919     0.0010
  6 H      0.7593     1.0000     0.2407     1.0257     1.0249     0.0007

  Mayer bond orders larger than 0.100000
B(  0-O ,  1-C ) :   0.8516 B(  1-C ,  2-C ) :   0.7449 B(  1-C ,  3-H ) :   0.9694 
B(  1-C ,  4-H ) :   0.9232 B(  2-C ,  5-H ) :   1.0137 B(  2-C ,  6-H ) :   1.0110 


-------
TIMINGS
-------

Total SCF time: 0 days 0 hours 0 min 7 sec 

Total time                  ....       7.415 sec
Sum of individual times     ....       7.378 sec  ( 99.5%)

SCF preparation             ....       1.588 sec  ( 21.4%)
Fock matrix formation       ....       4.601 sec  ( 62.1%)
  Startup                   ....       0.085 sec  (  1.9% of F)
  Split-RI-J                ....       0.514 sec  ( 11.2% of F)
  Chain of spheres X        ....       2.540 sec  ( 55.2% of F)
  XC integration            ....       1.169 sec  ( 25.4% of F)
    XC Preparation          ....       0.000 sec  (  0.0% of XC)
    Basis function eval.    ....       0.064 sec  (  5.4% of XC)
    Density eval.           ....       0.230 sec  ( 19.7% of XC)
    XC-Functional eval.     ....       0.015 sec  (  1.3% of XC)
    XC-Potential eval.      ....       0.282 sec  ( 24.1% of XC)
Diagonalization             ....       0.000 sec  (  0.0%)
Density matrix formation    ....       0.158 sec  (  2.1%)
Total Energy calculation    ....       0.137 sec  (  1.8%)
Population analysis         ....       0.036 sec  (  0.5%)
Orbital Transformation      ....       0.079 sec  (  1.1%)
[...]
[1741607341.068372] [ohm:3126651:0]        ib_iface.c:1059 UCX  ERROR ibv_create_cq(cqe=256) failed: Connection timed out
[1741607341.069039] [ohm:3126658:0]        ib_iface.c:1059 UCX  ERROR ibv_create_cq(cqe=256) failed: Connection timed out
[1741607341.072679] [ohm:3126669:0]        ib_iface.c:1059 UCX  ERROR ibv_create_cq(cqe=256) failed: Connection timed out
[1741607341.075850] [ohm:3126664:0]        ib_iface.c:1059 UCX  ERROR ibv_create_cq(cqe=256) failed: Connection timed out
[1741607341.077297] [ohm:3126647:0]        ib_iface.c:1059 UCX  ERROR ibv_create_cq(cqe=256) failed: Connection timed out
[1741607341.077963] [ohm:3126638:0]        ib_iface.c:1059 UCX  ERROR ibv_create_cq(cqe=256) failed: Connection timed out
[1741607341.077970] [ohm:3126677:0]        ib_iface.c:1059 UCX  ERROR ibv_create_cq(cqe=256) failed: Connection timed out
[1741607341.079198] [ohm:3126637:0]        ib_iface.c:1059 UCX  ERROR ibv_create_cq(cqe=256) failed: Connection timed out
[1741607341.079196] [ohm:3126681:0]        ib_iface.c:1059 UCX  ERROR ibv_create_cq(cqe=256) failed: Connection timed out
[1741607341.079643] [ohm:3126690:0]        ib_iface.c:1059 UCX  ERROR ibv_create_cq(cqe=256) failed: Connection timed out


           ************************************************************
           *        Program running with 64 parallel MPI-processes    *
           *              working on a common directory               *
           ************************************************************

------------------------------------------------------------------------------
                              ORCA PROPERTY CALCULATIONS
------------------------------------------------------------------------------

GBWName                                 ... orca.gbw
Number of atoms                         ...      7
Number of basis functions               ...    182
Max core memory                         ...   1024 MB

Electric properties:
Dipole moment                           ... YES
Quadrupole moment                       ...  NO
Static polarizability (Dipole/Dipole)   ...  NO
Static polarizability (Dipole/Quad.)    ...  NO
Static polarizability (Quad./Quad.)     ...  NO
Static polarizability (Velocity)        ...  NO

Atomic electric properties:
Dipole moment                           ...  NO
Quadrupole moment                       ...  NO
Static polarizability                   ...  NO

Choice of electric origin               ... Center of mass
Position of electric origin             ...     0.800718     0.126131     0.140329

General magnetic properties:
Magnetizability                         ...  NO

EPR properties:
g-Tensor (aka g-matrix)                 ...  NO
Zero-Field splitting spin-orbit         ...  NO
Zero-field splitting spin-spin          ...  NO
Hyperfine couplings                     ...  NO (   0 nuclei)
Quadrupole couplings                    ...  NO (   0 nuclei)
Contact density                         ...  NO (   0 nuclei)

NMR properties:
Chemical shifts                         ...  NO (   0 nuclei)
Spin-rotation constants                 ...  NO (   0 nuclei)
Spin-spin couplings                     ...  NO (   0 nuclei,    0 pairs)

Choice of magnetic origin               ... GIAO
Position of magnetic origin             ...     0.000000     0.000000     0.000000

Properties with geometric perturbations:
SCF Hessian                             ...  NO
IR spectrum                             ...  NO
VCD spectrum                            ...  NO
X-ray spectroscopy properties:
SCF XES/XAS/RIXS spectra                ...  NO


-------------
DIPOLE MOMENT
-------------

Method             : SCF
Type of density    : Electron Density
Multiplicity       :   3
Irrep              :   0
Energy             :  -153.7664614737389002 Eh
Relativity type    : 
Basis              : AO
                                X                 Y                 Z
Electronic contribution:      0.739523766       1.841584991       1.831592269
Nuclear contribution   :     -1.256310819      -2.455413121      -2.265337994
                        -----------------------------------------
Total Dipole Moment    :     -0.516787052      -0.613828130      -0.433745725
                        -----------------------------------------
Magnitude (a.u.)       :      0.912134412
Magnitude (Debye)      :      2.318461424



--------------------
Rotational spectrum 
--------------------
 
Rotational constants in cm-1:             1.647830             0.330828             0.294191 
Rotational constants in MHz :         49400.689362          9917.975022          8819.621709 

Dipole components along the rotational axes: 
x,y,z [a.u.] :    -0.676949     0.530418     0.303950 
x,y,z [Debye]:    -1.720668     1.348216     0.772579 

 

-------------
DIPOLE MOMENT
-------------

Method             : TDA/CIS
Type of density    : Electron Density
Level              : Relaxed density
State              :   1
Multiplicity       :   3
Irrep              :   0
Energy             :     0.0000000000000000 Eh
Relativity type    : 
Basis              : AO
                                X                 Y                 Z
Electronic contribution:      0.654109814       1.648523100       1.577793894
Nuclear contribution   :     -1.256310819      -2.455413121      -2.265337994
                        -----------------------------------------
Total Dipole Moment    :     -0.602201005      -0.806890021      -0.687544100
                        -----------------------------------------
Magnitude (a.u.)       :      1.219194179
Magnitude (Debye)      :      3.098945325



--------------------
Rotational spectrum 
--------------------
 
Rotational constants in cm-1:             1.647830             0.330828             0.294191 
Rotational constants in MHz :         49400.689362          9917.975022          8819.621709 

Dipole components along the rotational axes: 
x,y,z [a.u.] :    -0.987638     0.641408     0.315596 
x,y,z [Debye]:    -2.510377     1.630330     0.802182 

 

Dipole moment calculation done in   0.0 sec 

Maximum memory used throughout the entire PROP-calculation: 7.4 MB
[1741607342.771084] [ohm:3126893:0]        ib_iface.c:1059 UCX  ERROR ibv_create_cq(cqe=256) failed: Connection timed out
[1741607342.777131] [ohm:3126887:0]        ib_iface.c:1059 UCX  ERROR ibv_create_cq(cqe=256) failed: Connection timed out
[1741607342.782461] [ohm:3126888:0]        ib_iface.c:1059 UCX  ERROR ibv_create_cq(cqe=256) failed: Connection timed out
[1741607342.842601] [ohm:3126895:0]        ib_iface.c:1059 UCX  ERROR ibv_create_cq(cqe=256) failed: Connection timed out
[1741607342.855549] [ohm:3126903:0]        ib_iface.c:1059 UCX  ERROR ibv_create_cq(cqe=256) failed: Connection timed out
[1741607342.876918] [ohm:3126897:0]        ib_iface.c:1059 UCX  ERROR ibv_create_cq(cqe=256) failed: Connection timed out
[1741607342.879478] [ohm:3126899:0]        ib_iface.c:1059 UCX  ERROR ibv_create_cq(cqe=256) failed: Connection timed out
[1741607342.880267] [ohm:3126949:0]        ib_iface.c:1059 UCX  ERROR ibv_create_cq(cqe=256) failed: Connection timed out
[1741607342.896760] [ohm:3126889:0]        ib_iface.c:1059 UCX  ERROR ibv_create_cq(cqe=256) failed: Connection timed out
[1741607342.896969] [ohm:3127034:0]        ib_iface.c:1059 UCX  ERROR ibv_create_cq(cqe=256) failed: Connection timed out
[1741607342.901150] [ohm:3126892:0]        ib_iface.c:1059 UCX  ERROR ibv_create_cq(cqe=256) failed: Connection timed out
[1741607342.906057] [ohm:3127017:0]        ib_iface.c:1059 UCX  ERROR ibv_create_cq(cqe=256) failed: Connection timed out
[1741607342.907003] [ohm:3126902:0]        ib_iface.c:1059 UCX  ERROR ibv_create_cq(cqe=256) failed: Connection timed out
[1741607342.933345] [ohm:3126953:0]        ib_iface.c:1059 UCX  ERROR ibv_create_cq(cqe=256) failed: Connection timed out
[1741607342.959662] [ohm:3126972:0]        ib_iface.c:1059 UCX  ERROR ibv_create_cq(cqe=256) failed: Connection timed out
[1741607342.990399] [ohm:3126964:0]        ib_iface.c:1059 UCX  ERROR ibv_create_cq(cqe=256) failed: Connection timed out
[1741607342.998066] [ohm:3126952:0]        ib_iface.c:1059 UCX  ERROR ibv_create_cq(cqe=256) failed: Connection timed out
[1741607343.007747] [ohm:3126894:0]        ib_iface.c:1059 UCX  ERROR ibv_create_cq(cqe=256) failed: Connection timed out
[1741607343.011750] [ohm:3126960:0]        ib_iface.c:1059 UCX  ERROR ibv_create_cq(cqe=256) failed: Connection timed out
[1741607343.015966] [ohm:3126977:0]        ib_iface.c:1059 UCX  ERROR ibv_create_cq(cqe=256) failed: Connection timed out
[1741607343.017451] [ohm:3126958:0]        ib_iface.c:1059 UCX  ERROR ibv_create_cq(cqe=256) failed: Connection timed out
[1741607343.024037] [ohm:3126896:0]        ib_iface.c:1059 UCX  ERROR ibv_create_cq(cqe=256) failed: Connection timed out
[1741607343.032901] [ohm:3126950:0]        ib_iface.c:1059 UCX  ERROR ibv_create_cq(cqe=256) failed: Connection timed out
[1741607343.036262] [ohm:3126933:0]        ib_iface.c:1059 UCX  ERROR ibv_create_cq(cqe=256) failed: Connection timed out
[1741607343.036310] [ohm:3126935:0]        ib_iface.c:1059 UCX  ERROR ibv_create_cq(cqe=256) failed: Connection timed out
[1741607343.039139] [ohm:3126947:0]        ib_iface.c:1059 UCX  ERROR ibv_create_cq(cqe=256) failed: Connection timed out
[1741607343.040177] [ohm:3126976:0]        ib_iface.c:1059 UCX  ERROR ibv_create_cq(cqe=256) failed: Connection timed out
[1741607343.045903] [ohm:3126959:0]        ib_iface.c:1059 UCX  ERROR ibv_create_cq(cqe=256) failed: Connection timed out
[1741607343.047377] [ohm:3126916:0]        ib_iface.c:1059 UCX  ERROR ibv_create_cq(cqe=256) failed: Connection timed out
[1741607343.049132] [ohm:3126955:0]        ib_iface.c:1059 UCX  ERROR ibv_create_cq(cqe=256) failed: Connection timed out
[1741607343.051349] [ohm:3127013:0]        ib_iface.c:1059 UCX  ERROR ibv_create_cq(cqe=256) failed: Connection timed out
[1741607343.064288] [ohm:3126982:0]        ib_iface.c:1059 UCX  ERROR ibv_create_cq(cqe=256) failed: Connection timed out
[1741607343.066567] [ohm:3126922:0]        ib_iface.c:1059 UCX  ERROR ibv_create_cq(cqe=256) failed: Connection timed out
[1741607343.071249] [ohm:3126954:0]        ib_iface.c:1059 UCX  ERROR ibv_create_cq(cqe=256) failed: Connection timed out
[1741607343.077389] [ohm:3126965:0]        ib_iface.c:1059 UCX  ERROR ibv_create_cq(cqe=256) failed: Connection timed out
[1741607343.079158] [ohm:3127000:0]        ib_iface.c:1059 UCX  ERROR ibv_create_cq(cqe=256) failed: Connection timed out
[1741607343.079614] [ohm:3126956:0]        ib_iface.c:1059 UCX  ERROR ibv_create_cq(cqe=256) failed: Connection timed out
[1741607343.083950] [ohm:3126898:0]        ib_iface.c:1059 UCX  ERROR ibv_create_cq(cqe=256) failed: Connection timed out
[1741607343.084028] [ohm:3126927:0]        ib_iface.c:1059 UCX  ERROR ibv_create_cq(cqe=256) failed: Connection timed out
[1741607343.084892] [ohm:3126945:0]        ib_iface.c:1059 UCX  ERROR ibv_create_cq(cqe=256) failed: Connection timed out
[1741607343.086081] [ohm:3126988:0]        ib_iface.c:1059 UCX  ERROR ibv_create_cq(cqe=256) failed: Connection timed out
[1741607343.095504] [ohm:3126957:0]        ib_iface.c:1059 UCX  ERROR ibv_create_cq(cqe=256) failed: Connection timed out
[1741607343.098102] [ohm:3126948:0]        ib_iface.c:1059 UCX  ERROR ibv_create_cq(cqe=256) failed: Connection timed out
[1741607343.100488] [ohm:3126920:0]        ib_iface.c:1059 UCX  ERROR ibv_create_cq(cqe=256) failed: Connection timed out
[1741607343.101355] [ohm:3126944:0]        ib_iface.c:1059 UCX  ERROR ibv_create_cq(cqe=256) failed: Connection timed out
[1741607343.106275] [ohm:3126992:0]        ib_iface.c:1059 UCX  ERROR ibv_create_cq(cqe=256) failed: Connection timed out
[1741607343.107794] [ohm:3126906:0]        ib_iface.c:1059 UCX  ERROR ibv_create_cq(cqe=256) failed: Connection timed out
[1741607343.112187] [ohm:3126985:0]        ib_iface.c:1059 UCX  ERROR ibv_create_cq(cqe=256) failed: Connection timed out
[1741607343.121936] [ohm:3126891:0]        ib_iface.c:1059 UCX  ERROR ibv_create_cq(cqe=256) failed: Connection timed out
[1741607343.135954] [ohm:3126939:0]        ib_iface.c:1059 UCX  ERROR ibv_create_cq(cqe=256) failed: Connection timed out
[1741607343.136208] [ohm:3126941:0]        ib_iface.c:1059 UCX  ERROR ibv_create_cq(cqe=256) failed: Connection timed out
[1741607343.137283] [ohm:3126943:0]        ib_iface.c:1059 UCX  ERROR ibv_create_cq(cqe=256) failed: Connection timed out
[1741607343.137279] [ohm:3127029:0]        ib_iface.c:1059 UCX  ERROR ibv_create_cq(cqe=256) failed: Connection timed out
[1741607343.139359] [ohm:3127026:0]        ib_iface.c:1059 UCX  ERROR ibv_create_cq(cqe=256) failed: Connection timed out
[1741607343.140510] [ohm:3127006:0]        ib_iface.c:1059 UCX  ERROR ibv_create_cq(cqe=256) failed: Connection timed out
[1741607343.141166] [ohm:3126997:0]        ib_iface.c:1059 UCX  ERROR ibv_create_cq(cqe=256) failed: Connection timed out
[1741607343.142886] [ohm:3127019:0]        ib_iface.c:1059 UCX  ERROR ibv_create_cq(cqe=256) failed: Connection timed out
[1741607343.143524] [ohm:3127038:0]        ib_iface.c:1059 UCX  ERROR ibv_create_cq(cqe=256) failed: Connection timed out
[1741607343.149629] [ohm:3126970:0]        ib_iface.c:1059 UCX  ERROR ibv_create_cq(cqe=256) failed: Connection timed out
[1741607343.150456] [ohm:3127025:0]        ib_iface.c:1059 UCX  ERROR ibv_create_cq(cqe=256) failed: Connection timed out
[1741607343.150444] [ohm:3126951:0]        ib_iface.c:1059 UCX  ERROR ibv_create_cq(cqe=256) failed: Connection timed out
[1741607343.151215] [ohm:3127004:0]        ib_iface.c:1059 UCX  ERROR ibv_create_cq(cqe=256) failed: Connection timed out
[1741607343.152771] [ohm:3127010:0]        ib_iface.c:1059 UCX  ERROR ibv_create_cq(cqe=256) failed: Connection timed out
[1741607343.153044] [ohm:3126910:0]        ib_iface.c:1059 UCX  ERROR ibv_create_cq(cqe=256) failed: Connection timed out

--------------------------------
SUGGESTED CITATIONS FOR THIS RUN
--------------------------------

Below you find a list of papers that are relevant to this ORCA run
We neither can nor want to force you to cite these papers, but we appreciate if you do
You receive ORCA, which is the product of decades of hard work by many enthusiastic individuals, for free
The only thing we kindly ask in return is that you cite our papers,
We deeply appreciate it, if you show your appreciation for ORCA by not just citing the generic ORCA reference.

Please note that relegating all ORCA citations to the supporting information does *not* help us.
SI sections are not indexed - citations you put there will not count into any citation statistics
But we need these citations in order to attract the funding resources that allow us to do what we are doing

Therefore, if you are a happy ORCA user, please consider citing a few of the papers listed below in the main body of your paper

In addition to the list printed below, the program has created the file orca.bibtex that contains the list in bibtex format
You can import this file easily into all common literature databanks and citation aid programs


List of essential papers. We consider these as the minimum necessary citations

  1. Neese,F.
     Software update: the ORCA program system, version 5.0
     WIRES Comput. Molec. Sci., 2022 12(1)e1606
     doi.org/10.1002/wcms.1606

List of papers to cite with high priority. The work reported in these papers was absolutely
necessary for this run to complete.
Our perspective: the developers of density functionals and basis sets usually get cited in chemistry papers
Good! But without the algorithms to do something with them, the functionals or basis sets would not do anything.
Hence, in our opinion, the algorithm design and method developments papers are equally worthy of getting cited

  1. Neese,F.; Olbrich,G.
     Efficient use of the resolution of the identity approximation in time-dependent density functional calculations with hybrid density functionals
     Chem. Phys. Lett., 2002 362 170-178
     doi.org/10.1016/s0009-2614(02)01053-9
  2. Neese,F.
     An improvement of the resolution of the identity approximation for the formation of the Coulomb matrix
     J. Comp. Chem., 2003 24(14)1740-1747
     doi.org/10.1002/jcc.10318
  3. Neese,F.; Wennmohs,F.; Hansen,A.; Becker,U.
     Efficient, approximate and parallel Hartree-Fock and hybrid DFT calculations. A 'chain-of-spheres' algorithm for the Hartree-Fock exchange
     Chem. Phys., 2009 356(1-3)98-109
     doi.org/10.1016/j.chemphys.2008.10.036
  4. Petrenko,T.; Kossmann,S.; Neese,F.
     Efficient time-dependent density functional theory approximations for hybrid density functionals: Analytical gradients and parallelization
     J. Chem. Phys., 2011 134 054116
     doi.org/10.1063/1.3533441
  5. Helmich-Paris,B.; de Souza,B.; Neese,F.; Izsák,R.
     An improved chain of spheres for exchange algorithm
     J. Chem. Phys., 2021 155 104109
     doi.org/doi: 10.1063/5.0058766.
  6. Neese,F.
     The SHARK Integral Generation and Digestion System
     J. Comp. Chem., 2022  1-16
     doi.org/10.1002/jcc.26942
  7. Lehtola,S.; Steigemann,C.; Oliveira,M.; Marques,M.
     Recent developments in Libxc - A comprehensive library of functionals for density functional theory
     Software X, 2018 7 
     doi.org/10.1016/j.softx.2017.11.002
  8. Grimme,S.; Antony,J.; Ehrlich,S.; Krieg,H.
     A consistent and accurate ab initio parametrization of density functional dispersion correction (DFT-D) for the 94 elements H-Pu
     J. Chem. Phys., 2010 132 154104-XXXX
     doi.org/10.1063/1.3382344
  9. Grimme,S.; Ehrlich,S.; Goerigk,L.
     Effect of the damping function in dispersion corrected density functional theory
     J. Comput. Chem., 2011 32(7)1456-1465
     doi.org/10.1002/jcc.21759

List of suggested additional citations. These are papers that are important in the 'surrounding' of 
of this run, or papers that preceded the highly important papers. If you like your results we are grateful for a citation.

  1. Izsak,R.; Neese,F.
     An overlap fitted chain of spheres exchange method
     J. Chem. Phys., 2011 135 144105
     doi.org/10.1063/1.3646921
  2. Izsak,R.; Hansen,A.; Neese,F.
     The resolution of identity and chain of spheres approximations for the LPNO-CCSD singles Fock term
     Molec. Phys., 2012 110 2413-2417
     doi.org/10.1080/00268976.2012.687466
  3. Neese,F.
     The ORCA program system
     WIRES Comput. Molec. Sci., 2012 2(1)73-78
     doi.org/10.1002/wcms.81
  4. Izsak,R.; Neese,F.; Klopper,W.
     Robust fitting techniques in the chain of spheres approximation to the Fock exchange: The role of the complementary space
     J. Chem. Phys., 2013 139 
     doi.org/10.1063/1.4819264
  5. Neese,F.
     Software update: the ORCA program system, version 4.0
     WIRES Comput. Molec. Sci., 2018 8(1)1-6
     doi.org/10.1002/wcms.1327
  6. Neese,F.; Wennmohs,F.; Becker,U.; Riplinger,C.
     The ORCA quantum chemistry program package
     J. Chem. Phys., 2020 152 Art. No. L224108
     doi.org/10.1063/5.0004608

List of optional additional citations

  1. Neese,F.
     Approximate second-order SCF convergence for spin unrestricted wavefunctions
     Chem. Phys. Lett., 2000 325(1-3)93-98
     doi.org/10.1016/s0009-2614(00)00662-x

Timings for individual modules:

Sum of individual times          ...       24.669 sec (=   0.411 min)
Startup calculation              ...        2.614 sec (=   0.044 min)  10.6 %
SCF iterations                   ...       10.011 sec (=   0.167 min)  40.6 %
Property integrals               ...        2.133 sec (=   0.036 min)   8.6 %
Property calculations            ...        2.000 sec (=   0.033 min)   8.1 %
CIS module                       ...        7.910 sec (=   0.132 min)  32.1 %
                             ****ORCA TERMINATED NORMALLY****
TOTAL RUN TIME: 0 days 0 hours 0 minutes 26 seconds 827 msec
