30
Properties=species:S:1:pos:R:3:momenta:R:3:forces:R:3 Coordinates=T from=T ORCA-job=T orca=T E=T -908.743926975486=T energy=-24728.723471079724 free_energy=-24728.723471079724 stress="4.9781820531452815e-06 -2.1306920207739603e-07 -1.2515886243050892e-06 -2.1306920207739603e-07 -5.901114310460243e-07 3.475330641751441e-08 -1.2515886243050892e-06 3.475330641751441e-08 7.273144455126903e-07" pbc="F F F"
O        3.27219929       0.28496953      -0.91831515       0.12880551      -0.24055693      -0.09428561      -0.08461694       0.15362006       0.16705036
O       -0.77124338       1.63096625      -2.32466978      -0.10993857       0.09919994      -0.02900843       0.00625186      -0.01290825      -0.07275957
O        0.39948712      -3.07290238      -0.22204893       0.08600866       0.10677944      -0.08361571       0.02243659      -0.14927194      -0.15211678
O       -2.95527346      -1.85005052      -0.50185953      -0.16635819       0.11487796      -0.01584457      -0.00080265      -0.03264637       0.05511778
N        0.37546952      -1.37734776       1.28188431      -0.11678288      -0.14660176      -0.06268140      -0.03010371      -0.53809837      -0.47518478
N       -2.15925608      -0.25844815       0.91323374       0.12375989      -0.22255655      -0.06584775       0.23525212      -0.05037061       0.33708612
N        1.53130166      -1.16779343      -0.73422628       0.16843266       0.03038953       0.10181690       0.24004188       0.16541069      -0.06101750
N       -1.53359776      -0.26441608      -1.31346906      -0.00174833      -0.13327506       0.13998899      -0.05980072      -0.15616321      -0.21901672
C        1.85362236       0.49958567       0.95249745      -0.57310140       0.07850526       0.23578782      -3.35710225       0.24348341       0.86190265
C       -0.98664867       1.63821862       0.02997069      -0.10551996      -0.20650149      -0.22383565      -0.20776595      -0.41092330      -0.11410402
C        0.40600222       0.02399152       1.54554319       0.47653396       0.03791418       0.11790101       1.24489472       0.26165090      -0.45712493
C       -1.16459714       0.72836836       1.19151290       0.44217249      -0.04073276      -0.22561766       1.71238966       0.18124251      -0.63487203
C        2.59081660       1.55446555       1.65478193       0.04245174       0.10066563      -0.07337638       0.03313425      -0.09330885      -0.31184579
C       -0.74439595       3.07825241       0.20758745      -0.25553833       0.31503178       0.25404595       0.15300934      -0.02183257      -0.11397459
C        2.29628325      -0.08181850      -0.28275581       0.07967916       0.01674396      -0.03051764       0.13906442      -0.44704480      -0.21571243
C       -1.07115382       1.05088425      -1.29872243      -0.08226765       0.16776901       0.25831545      -0.04554021       0.19264054       0.38955280
C        0.73690088      -1.95395400       0.07710786      -0.12437628      -0.01428764       0.08424478      -0.23933510       0.07920305       0.47640414
C       -2.26787863      -0.87791453      -0.30354068       0.23210012       0.00670270       0.00504858      -0.05733555      -0.00937149      -0.22377700
H        0.47135439       0.16011625       2.61716640      -0.02717416       0.05336378      -0.05194443       0.11998448       0.09138277       0.13887296
H       -1.44640759       1.28162762       2.07862795      -0.02393009      -0.01702839      -0.02973803       0.08098557      -0.01188527       0.09481868
H        3.58358444       1.67425241       1.23706393      -0.05042405      -0.02107014       0.01337504       0.05679878      -0.00061246      -0.01364351
H        2.06799611       2.50958502       1.57085346       0.04889487      -0.06629135       0.02550987      -0.03038003       0.06123579      -0.01703154
H        2.64490402       1.33864404       2.71621141       0.01081874      -0.03385578      -0.07636493       0.05132297      -0.04305142       0.19924656
H       -1.59990022       3.55093780       0.68323116      -0.03364095       0.01067176      -0.04988429      -0.15271020       0.07581886       0.04018338
H        0.09896806       3.25222706       0.86605205      -0.06639637       0.05344229      -0.08873568       0.17121209       0.07688688       0.09225170
H       -0.55497946       3.54896285      -0.74986331      -0.02244556      -0.01045330       0.00229703       0.01877692       0.04793937      -0.02913852
H       -0.22209272      -1.98647438       1.81393381       0.00696030       0.00003130      -0.00076451      -0.05692830       0.09725200      -0.00754860
H       -2.67148001      -0.70249325       1.65867765      -0.03106199      -0.03883217      -0.01555523       0.11270216       0.02612627      -0.08544403
H        1.86742219      -1.63002155      -1.57351790      -0.05794619      -0.00141483      -0.02549386      -0.07120667       0.14963239       0.19771861
H       -1.62401823      -0.69730645      -2.22428738       0.00203284       0.00136963       0.00478036      -0.00462951       0.07396342       0.15410660
