30
Properties=species:S:1:pos:R:3:momenta:R:3:forces:R:3 Coordinates=T from=T ORCA-job=T orca=T E=T -908.748819972294=T energy=-24726.458813501533 free_energy=-24726.458813501533 stress="1.8841805907667158e-06 7.119571760191549e-07 1.1433397116802094e-08 7.119571760191549e-07 -7.705841233405925e-07 7.212269910723883e-07 1.1433397116802094e-08 7.212269910723883e-07 -1.6193263912998266e-06" pbc="F F F"
O        2.25284510      -0.19026282      -1.17699318       0.10145137      -0.35893948       0.07878693       0.14319896       0.15795507      -0.16108536
O       -0.19304368       2.73267989      -2.30417676      -0.02378304      -0.04127426      -0.68414106      -0.17703055      -0.42546526      -1.10890386
O        0.24785985      -3.76657847       0.69279989      -0.13376443      -0.03287305      -0.21069185       0.04207679       0.11571680      -0.01339731
O       -2.20515794      -1.10876919      -1.32785294       0.02975143      -0.07296035      -0.08103127       0.06788405       0.08453199       0.05255192
N        0.38326346      -1.87778955       1.95239935      -0.03838369       0.09598006       0.22073951       0.10264361      -0.12711778      -0.10531186
N       -1.38745002      -0.15021193       0.55377759       0.37967993      -0.14814340       0.29429915      -0.00160194      -0.09426320      -0.32265301
N        1.07310999      -1.87892699      -0.27149883       0.21384736       0.20852240      -0.10017468       0.05714769      -0.24660219      -0.26252517
N       -0.83825980       0.66565030      -1.61914101      -0.36720756       0.26895764      -0.05423047       0.01695457       0.17575379       0.23791005
C        1.24300129       0.22378655       0.93827038      -1.20059412      -0.00511712      -0.26728949      -1.10266792       0.14802064       0.20554103
C       -0.26211381       2.58136898      -0.10754594      -0.99438584      -0.62343056       0.40846295      -2.05479971      -0.31090736       0.73077367
C        0.57950446      -0.47103502       2.06724032      -0.07837754       0.24603514       0.22927390      -0.14626785      -0.49039649       0.28659801
C       -0.33318093       0.44263396       1.29508616       1.15515449      -0.33145712      -0.15631122       1.54899538      -0.69224676      -0.23140688
C        2.21113593       1.34104956       1.23722226      -0.22068074      -0.13330008      -0.09371916      -0.37075205       0.23851035      -0.42108160
C       -1.42229497       3.33667894       0.37337332       0.15767697       0.45163347      -0.08632938       0.43826061       0.99712509       0.17787357
C        1.58002170      -0.59791987      -0.26655670       0.08499796      -0.15234561       0.07123458      -0.24322318       0.06127125       0.33015940
C       -0.42514726       1.97264879      -1.38782134       0.65266593       0.63420071      -0.33210427       1.36378317       0.27185958      -0.79409737
C        0.53730891      -2.59575307       0.79473154      -0.00465969       0.07316859      -0.04349530      -0.12280095      -0.09682828       0.24422704
C       -1.51981227      -0.25278204      -0.81434157       0.18882104       0.01765860       0.47934482       0.04872808       0.08014516       0.08805103
H        0.86176956      -0.17156109       3.06612726       0.05492569      -0.04877374      -0.02059401       0.01073766       0.05197074      -0.01433688
H       -0.54136964       1.38256831       1.74265153      -0.00615906       0.00775037      -0.03248793       0.01521764       0.28724565       0.28931663
H        2.38576797       1.94229483       0.33929517      -0.01375970      -0.01914387       0.02001488      -0.09320488      -0.07427790       0.19114727
H        1.81077404       1.97954455       2.02172335       0.04171598       0.02185463       0.01129454       0.05999099       0.03069474      -0.00406119
H        3.16744923       0.94821244       1.54681398       0.04774837       0.07721499      -0.03195917       0.19400652      -0.16856894       0.15277757
H       -2.36087032       2.75013025       0.29113998       0.13171773      -0.09230127       0.09055382       0.38684885      -0.04874191       0.24019351
H       -1.33048596       3.77988261       1.37349185      -0.08413801       0.02974497       0.11346014      -0.02879426      -0.28553234      -0.13114951
H       -1.53372238       4.17870846      -0.32858862      -0.11716101       0.02020673       0.13458141      -0.20962843       0.08965764       0.16425075
H       -0.03983518      -2.37849354       2.71261688      -0.00688088      -0.01779206       0.02656345       0.00210680      -0.04577539      -0.04285111
H       -1.89301736      -0.91536325       0.98433623       0.01474682      -0.02420229      -0.00857986       0.17997330       0.16291109       0.06426301
H        1.27005398      -2.43198102      -1.10050725       0.04540557      -0.01881026       0.01080181      -0.06382619       0.10610797       0.22056580
H       -0.91605213       0.43699394      -2.59707553      -0.01037131      -0.03206378       0.01372720      -0.06395675       0.04724625      -0.06333915
