7
Properties=species:S:1:pos:R:3:momenta:R:3:forces:R:3 Coordinates=T from=T ORCA-job=T orca=T E=T -153.930674962412=T energy=-4184.191322710829 free_energy=-4184.191322710829 stress="-9.618271698468435e-07 -1.2942750158895025e-06 2.4880195802741245e-06 -1.2942750158895025e-06 -7.03445192313356e-06 -9.695928416487652e-07 2.4880195802741245e-06 -9.695928416487652e-07 -9.290914824700503e-07" pbc="F F F"
O        0.71203177       1.38522179       0.08188602       0.40157391       2.06795507       0.73134132      -0.03090564       1.55738376       0.64313838
C        0.55989539       0.15350692      -0.26617171       0.36931545      -1.83017605      -0.72075098       0.07208876      -1.39934888      -0.64326925
C       -0.45347346      -0.81259295       0.22625184      -0.24315514      -0.22362506      -0.05629399      -1.01082309      -0.52505329      -0.41442065
H        0.04568386      -1.68104395       0.66052160      -0.18088662      -0.13135274       0.05787789      -0.13934013       0.00368804       0.14807444
H        1.21719138      -0.21357410      -1.02961001      -0.06839552       0.10579283      -0.07163337       0.45034382       0.09781297      -0.33003435
H       -1.06373502      -1.18057790      -0.63471079      -0.14597756      -0.02532988       0.07930503       0.35685123       0.15270829       0.53892345
H       -1.15748433      -0.38663938       0.93925547      -0.13247452       0.03673583      -0.01984589       0.30178506       0.11280912       0.05758798
