30
Properties=species:S:1:pos:R:3:momenta:R:3:forces:R:3 Coordinates=T from=T ORCA-job=T orca=T E=T -908.934106999543=T energy=-24729.321519909958 free_energy=-24729.321519909958 stress="-1.0221347028720518e-06 -1.9472434747505285e-07 9.769297024511332e-07 -1.9472434747505285e-07 2.972559607871106e-07 -5.8906730730186015e-08 9.769297024511332e-07 -5.8906730730186015e-08 1.2020523020992e-06" pbc="F F F"
O        2.66831999       1.16582403      -0.53717620       0.34909820      -0.18996513      -0.26006487       0.42916267       0.61874116      -0.58481429
O       -0.52753212       0.87735565      -2.29952226       0.63294214       0.31897476      -0.29863732       0.03793389      -0.40965409       0.58977331
O        0.65273419      -2.83798641      -1.47469871       0.25333459       0.12140254       0.42236417      -0.52373434      -0.17226530      -0.32578589
O       -2.57501413      -1.65636845       0.97986665      -0.02743745       0.32115347       0.00746066       0.26849215       1.32001902      -0.19143932
N        0.64269332      -2.10000022       0.65519568      -0.04309443       0.16633532      -0.37653355      -0.62917269       1.11274702       0.33026830
N       -2.10136122       0.56707991       1.45941190      -1.30054123       0.38266812       0.17778727      -0.86225356      -1.05653391      -0.49616510
N        1.71829485      -0.88093903      -0.98924229       0.14711422       0.67923911      -0.34315138      -0.27784529      -0.60308140      -0.47219092
N       -1.65273620      -0.32052186      -0.67635817      -0.27934126      -0.29020712      -0.13753692      -0.57578672      -0.49146612       1.04069500
C        1.43763987       0.11024212       1.21004833       0.08479972       0.39448758      -0.38844275       2.03995380       2.23034237      -3.01786040
C       -0.80651558       1.88222853      -0.13592568      -0.03694429       0.22898145      -0.31145188      -0.01354503      -1.46228175      -2.71373838
C        0.74199026      -1.05908266       1.55925370      -0.08722399      -0.67743080       0.56184127      -0.75638827      -3.06973629       0.72221818
C       -1.44218804       1.70502970       1.09840293      -0.42404042      -0.02336837       1.04756165      -0.19641525       0.54329965       2.68187392
C        1.72021858       1.18189484       2.18060209       0.54800563      -0.26373017      -0.38089290      -0.58483500      -0.92602452       0.44887580
C       -0.12928740       3.09710888      -0.56536334       0.07671896      -0.60172424       0.07133143       0.33153227       0.02565461       0.68833287
C        1.98495005       0.22282054      -0.16167467       0.24729515      -0.19688384      -0.85629307      -1.13758572      -0.29934037       2.42304395
C       -0.94904239       0.81087820      -1.14112938       0.47162265       0.42397876       1.17421668       0.44163538       1.00149036       0.93653450
C        0.93485140      -1.97835485      -0.68635160       0.20924452       0.06844076       0.04239258       1.60161076       0.64124952      -0.39971690
C       -2.15988933      -0.55376955       0.61947137      -0.69942689      -0.35874303      -0.32696931       0.29299306      -0.47499639      -0.92235663
H        0.32155722      -1.25903840       2.50725808       0.00454232       0.12821689      -0.06080157      -0.10922866       0.01660411       0.46812522
H       -1.35885337       2.41201448       1.89335616      -0.06039129      -0.10009053      -0.07706648      -0.13362891       0.50327297      -0.05967472
H        1.61636911       2.14740471       1.72252951       0.14885003      -0.05415808      -0.09548750       0.10603258       0.33694040      -0.19770237
H        1.02353847       1.07442164       3.01938231      -0.07705589      -0.03344225       0.10627510       0.14291138       0.10473708      -0.04448630
H        2.72913537       1.08606787       2.59512219      -0.08970060      -0.16910075       0.10033756      -0.00905952       0.10679741      -0.19781739
H       -0.51602154       3.43649932      -1.52711495       0.05553955      -0.10764032      -0.08309217       0.04017621      -0.06104258       0.02459028
H       -0.19191203       3.88610263       0.19501380      -0.09010891       0.04824296       0.07875571      -0.10711859      -0.14359732      -0.23909873
H        0.93160398       2.84006670      -0.71263236       0.01954076      -0.13370116      -0.01570759      -0.07572006       0.16676382      -0.16154762
H       -0.04217271      -2.81594300       0.81201850       0.05075190      -0.03003956      -0.03013458      -0.04248029      -0.24253777       0.37339678
H       -2.45131449       0.35400937       2.40091957      -0.06026444       0.04423632       0.17147468       0.15953280       0.55856613      -0.46248771
H        1.89179168      -0.77897978      -1.97095080      -0.09904393      -0.09593186       0.04142601       0.09762053       0.15882986      -0.11017803
H       -1.74172260      -1.11315043      -1.28683993       0.07521468      -0.00020084       0.03903905       0.04521044      -0.03349768      -0.13066740
