7
Properties=species:S:1:pos:R:3:momenta:R:3:forces:R:3 Coordinates=T from=T ORCA-job=T orca=T E=T -153.873139603898=T energy=-4180.430028884921 free_energy=-4180.430028884921 stress="3.71056593871152e-06 8.786930002285445e-06 1.2515781820593673e-07 8.786930002285445e-06 -4.546792968225031e-05 5.3864260395083055e-08 1.2515781820593673e-07 5.3864260395083055e-08 3.7669733217836797e-06" pbc="F F F"
O       -0.08961976       0.76997174       0.00096894      -0.18146960       1.84965932       0.15413894      -1.55527162       7.39154343      -0.01817382
C        0.78407554      -0.52240044      -0.00295693      -0.17526636      -0.95239827      -0.13033912       0.62587261      -4.55114291       0.18438956
C       -0.74019757      -0.38055363      -0.00005437       0.19699341      -1.11327050       0.01812377       1.59862025      -4.08084048      -0.02134823
H        1.31139457      -0.63650043       0.94752383       0.09437421       0.06713948       0.00422946      -0.21440346       0.21276444      -0.37000819
H        1.31646076      -0.63462625      -0.94479421       0.10523145       0.06806474      -0.06338133      -0.18042006       0.20795413       0.22597851
H       -1.27805094      -0.64345092      -0.91993325       0.00817695       0.04427322      -0.02916016      -0.14363946       0.42969409       0.09032248
H       -1.28188925      -0.63352606       0.92009338      -0.04804006       0.03653201       0.04638845      -0.13075826       0.39002730      -0.09116032
