
                                 *****************
                                 * O   R   C   A *
                                 *****************

                                            #,                                       
                                            ###                                      
                                            ####                                     
                                            #####                                    
                                            ######                                   
                                           ########,                                 
                                     ,,################,,,,,                         
                               ,,#################################,,                 
                          ,,##########################################,,             
                       ,#########################################, ''#####,          
                    ,#############################################,,   '####,        
                  ,##################################################,,,,####,       
                ,###########''''           ''''###############################       
              ,#####''   ,,,,##########,,,,          '''####'''          '####       
            ,##' ,,,,###########################,,,                        '##       
           ' ,,###''''                  '''############,,,                           
         ,,##''                                '''############,,,,        ,,,,,,###''
      ,#''                                            '''#######################'''  
     '                                                          ''''####''''         
             ,#######,   #######,   ,#######,      ##                                
            ,#'     '#,  ##    ##  ,#'     '#,    #''#        ,####,   ,####,        
            ##       ##  ##   ,#'  ##            #'  '#       #'       #'  '#        
            ##       ##  #######   ##           ,######,      #####,   #    #        
            '#,     ,#'  ##    ##  '#,     ,#' ,#      #,     #,   #   #,  ,#        
             '#######'   ##     ##  '#######'  #'      '#     '####' # '####'        



                #########################################################
                #                        -***-                          #
                #          Department of theory and spectroscopy        #
                #                                                       #
                #                      Frank Neese                      #
                #                                                       #
                #     Directorship, Architecture, Infrastructure        #
                #                    SHARK, DRIVERS                     #
                #        Core code/Algorithms in most modules           #
                #                                                       #
                #        Max Planck Institute fuer Kohlenforschung      #
                #                Kaiser Wilhelm Platz 1                 #
                #                 D-45470 Muelheim/Ruhr                 #
                #                      Germany                          #
                #                                                       #
                #                  All rights reserved                  #
                #                        -***-                          #
                #########################################################


                         Program Version 6.0.0  -   RELEASE  -


 With contributions from (in alphabetic order):
   Daniel Aravena         : Magnetic Suceptibility
   Michael Atanasov       : Ab Initio Ligand Field Theory (pilot matlab implementation)
   Alexander A. Auer      : GIAO ZORA, VPT2 properties, NMR spectrum
   Ute Becker             : All parallelization in ORCA, NUMFREQ, NUMCALC
   Giovanni Bistoni       : ED, misc. LED, open-shell LED, HFLD
   Martin Brehm           : Molecular dynamics
   Dmytro Bykov           : pre 5.0 version of the SCF Hessian
   Marcos Casanova-Páez   : Triplet and SCS-CIS(D). UHF-(DLPNO)-IP/EA/STEOM-CCSD. UHF-CVS-IP/STEOM-CCSD
   Vijay G. Chilkuri      : MRCI spin determinant printing, contributions to CSF-ICE
   Pauline Colinet        : FMM embedding
   Dipayan Datta          : RHF DLPNO-CCSD density
   Achintya Kumar Dutta   : EOM-CC, STEOM-CC
   Nicolas Foglia         : Exact transition moments, OPA infrastructure, MCD improvements
   Dmitry Ganyushin       : Spin-Orbit,Spin-Spin,Magnetic field MRCI
   Miquel Garcia          : C-PCM and meta-GGA Hessian, CCSD/C-PCM, Gaussian charge scheme
   Tiago L. C. Gouveia    : GS-ROHF, GS-ROCIS
   Yang Guo               : DLPNO-NEVPT2, F12-NEVPT2, CIM, IAO-localization
   Andreas Hansen         : Spin unrestricted coupled pair/coupled cluster methods
   Ingolf Harden          : AUTO-CI MPn and infrastructure 
   Benjamin Helmich-Paris : MC-RPA, TRAH-(SCF,CASSCF), AVAS, COSX integrals, SCF dyn. polar.
   Lee Huntington         : MR-EOM, pCC
   Robert Izsak           : Overlap fitted RIJCOSX, COSX-SCS-MP3, EOM
   Riya Kayal             : Wick's Theorem for AUTO-CI, AUTO-CI UHF-CCSDT
   Emily Kempfer          : AUTO-CI, RHF CISDT and CCSDT
   Christian Kollmar      : KDIIS, OOCD, Brueckner-CCSD(T), CCSD density, CASPT2, CASPT2-K, improved NEVPT2
   Axel Koslowski         : Symmetry handling
   Simone Kossmann        : Meta GGA functionals, TD-DFT gradient, OOMP2, (MP2 Hessian; deprecated post 5.0)
   Lucas Lang             : DCDCAS
   Marvin Lechner         : AUTO-CI (C++ implementation), FIC-MRCC
   Spencer Leger          : CASSCF response
   Dagmar Lenk            : GEPOL surface, SMD, ORCA-2-JSON
   Dimitrios Liakos       : Extrapolation schemes; Compound Job, initial MDCI parallelization
   Dimitrios Manganas     : Further ROCIS development; embedding schemes. LFT, Crystal Embedding
   Dimitrios Pantazis     : SARC Basis sets
   Anastasios Papadopoulos: AUTO-CI, single reference methods and gradients
   Taras Petrenko         : pre 6.0 DFT Hessian and TD-DFT gradient, (ASA, deprecated), ECA, 1-Electron XAS/XES, NRVS
   Peter Pinski           : DLPNO-MP2, DLPNO-MP2 Gradient
   Christoph Reimann      : Effective Core Potentials
   Marius Retegan         : Local ZFS, SOC
   Christoph Riplinger    : Optimizer, TS searches, QM/MM, DLPNO-CCSD(T), (RO)-DLPNO pert. Triples
   Michael Roemelt        : Original ROCIS implementation
   Masaaki Saitow         : Open-shell DLPNO-CCSD energy and density
   Barbara Sandhoefer     : DKH picture change effects
   Kantharuban Sivalingam : CASSCF convergence/infrastructure, NEVPT2 and variants, FIC-MRCI
   Bernardo de Souza      : ESD, SOC TD-DFT
   Georgi Stoychev        : AutoAux, RI-MP2 NMR, DLPNO-MP2 response, X2C
   Van Anh Tran           : RI-MP2 g-tensors
   Willem Van den Heuvel  : Paramagnetic NMR
   Zikuan Wang            : NOTCH, Electric field optimization 
   Frank Wennmohs         : Technical directorship and infrastructure
   Hang Xu                : AUTO-CI-Response properties 


 We gratefully acknowledge several colleagues who have allowed us to
 interface, adapt or use parts of their codes:
   Stefan Grimme, W. Hujo, H. Kruse, P. Pracht,  : VdW corrections, initial TS optimization,
                  C. Bannwarth, S. Ehlert,         DFT functionals, gCP, sTDA/sTD-DF
                  L. Wittmann, M. Mueller
   Ed Valeev, F. Pavosevic, A. Kumar             : LibInt (2-el integral package), F12 methods
   Garnet Chan, S. Sharma, J. Yang, R. Olivares  : DMRG
   Ulf Ekstrom                                   : XCFun DFT Library
   Mihaly Kallay                                 : mrcc  (arbitrary order and MRCC methods)
   Frank Weinhold                                : gennbo (NPA and NBO analysis)
   Simon Mueller                                 : openCOSMO-RS
   Christopher J. Cramer and Donald G. Truhlar   : smd solvation model
   Lars Goerigk                                  : TD-DFT with DH, B97 family of functionals
   V. Asgeirsson, H. Jonsson                     : NEB implementation
   FAccTs GmbH                                   : IRC, NEB, NEB-TS, DLPNO-Multilevel, CI-OPT
                                                   MM, QMMM, 2- and 3-layer-ONIOM, Crystal-QMMM,
                                                   LR-CPCM, SF, NACMEs, symmetry and pop. for TD-DFT,
                                                   nearIR, NL-DFT gradient (VV10), updates on ESD,
                                                   ML-optimized integration grids, MBIS, APM,
                                                   GOAT, DOCKER, SOLVATOR, interface openCOSMO-RS
   S Lehtola, MJT Oliveira, MAL Marques          : LibXC Library
   Liviu Ungur et al                             : ANISO software


 Your calculation uses the libint2 library for the computation of 2-el integrals
 For citations please refer to: http://libint.valeyev.net

 Your ORCA version has been built with support for libXC version: 6.2.2
 For citations please refer to: https://libxc.gitlab.io

 This ORCA versions uses:
   CBLAS   interface :  Fast vector & matrix operations
   LAPACKE interface :  Fast linear algebra routines
   SCALAPACK package :  Parallel linear algebra routines
   Shared memory     :  Shared parallel matrices
   BLAS/LAPACK       :  OpenBLAS 0.3.27  USE64BITINT DYNAMIC_ARCH NO_AFFINITY Zen SINGLE_THREADED
        Core in use  :  Zen
   Copyright (c) 2011-2014, The OpenBLAS Project


Your calculation utilizes the atom-pairwise dispersion correction
with the Becke-Johnson damping scheme (D3BJ)


Warning: RI is on but no J-basis has been assigned. Assigning Def2/J (nothing to worry about!)
================================================================================

----- Orbital basis set information -----
Your calculation utilizes the basis: def2-TZVPPD
   F. Weigend and R. Ahlrichs, Phys. Chem. Chem. Phys. 7, 3297 (2005).
   D. Rappoport and F. Furche, J. Chem. Phys. 133, 134105 (2010)
   D. Rappoport, J. Chem. Phys. 155, 124102 (2021).

----- AuxJ basis set information -----
Your calculation utilizes the auxiliary basis: def2/J
   F. Weigend, Phys. Chem. Chem. Phys. 8, 1057 (2006).

================================================================================
                                        WARNINGS
                       Please study these warnings very carefully!
================================================================================

Using LibXC functional ID 531 : wB97M-V exchange-correlation functional
[ 1]  N. Mardirossian and M. Head-Gordon.,  J. Chem. Phys. 144, 214110 (2016)
Using LibXC functional ID 531 : wB97M-V exchange-correlation functional
[ 1]  N. Mardirossian and M. Head-Gordon.,  J. Chem. Phys. 144, 214110 (2016)

WARNING: B97M-V or wB97M-V functional requested.
  ===> : libXC variant has now been activated.
         Any manually given DFX/HFX/RangeSep scaling parameters are IGNORED!

Your calculation utilizes LibXC
 by S Lehtola, C Steigemann, MJT Oliveira & MAL Marques
Please cite in your paper:
 S Lehtola, C Steigemann, MJT Oliveira & MAL Marques, SoftwareX, 7, (2018), 1.
   


WARNING: your system is open-shell and RHF/RKS was chosen
  ===> : WILL SWITCH to UHF/UKS

INFO   : Checking CIS options ...

WARNING: CIS/ROCIS methods need fully converged wavefunctions
  ===> : Setting SCFConvForced true
         You can overwrite this default with %scf ConvForced false 


================================================================================
                                       INPUT FILE
================================================================================
NAME = orca.inp
|  1> ! Engrad def2-TZVPPD wB97M-D3BJ 
|  2> %pal nprocs 8 end%pal nprocs 64 end 
|  3>  %tddft nroots 2 Iroot 2 
|  4> sf true 
|  5> end 
|  6> *xyz 0 3 
|  7> O   3.16761531494223 0.4418170930476 -0.9096635282554
|  8> O   -0.58697303010902 1.4878896450933 -2.30804891425919
|  9> O   0.41169721148559 -3.07546494164988 -0.40674000119065
| 10> O   -3.03955327717596 -1.73607577233092 -0.37381130877209
| 11> N   0.32691791854486 -1.45803388567895 1.18201169056105
| 12> N   -2.15114292592293 -0.1443452236317 0.98877004390847
| 13> N   1.55194962551424 -1.14760763877325 -0.77834750841504
| 14> N   -1.48434350422087 -0.3028475344918 -1.22822817108048
| 15> C   1.7270902987932 0.51332897345827 0.9479215155581
| 16> C   -0.80366166456574 1.60691008193133 0.04826884729193
| 17> C   0.37781819472413 -0.0688411633853 1.56301997701313
| 18> C   -1.03805383478932 0.71904129431483 1.25012279299346
| 19> C   2.45127923355457 1.56931019820454 1.663699862526
| 20> C   -0.67472517611395 3.06379673343855 0.17367673875549
| 21> C   2.22148240527549 -0.02644819733645 -0.3027402522091
| 22> C   -0.92562691024299 0.97427113986451 -1.26123549007758
| 23> C   0.72778197955208 -1.97127385949821 -0.02871149829249
| 24> C   -2.28464070910031 -0.8109019565831 -0.20521608642636
| 25> H   0.49679609584346 -0.04361798460191 2.64919401589296
| 26> H   -1.26743330234551 1.33240015353037 2.11787225141992
| 27> H   3.4002937401192 1.7793211280518 1.18100563038913
| 28> H   1.86571620461463 2.50022380776786 1.69207040724024
| 29> H   2.61234157360791 1.28804630102746 2.70864027943586
| 30> H   -1.58697942392352 3.49039362947505 0.60558440248904
| 31> H   0.13359672412401 3.32766409379103 0.86761959765161
| 32> H   -0.48497528429066 3.51876118366067 -0.79292774467866
| 33> H   -0.29748147249669 -2.07768535195799 1.66890369129593
| 34> H   -2.70006028571126 -0.52205254414575 1.7402198882169
| 35> H   1.90543055040216 -1.55198403219414 -1.62983541336785
| 36> H   -1.59955627008907 -0.76099537039782 -2.11849571561431
| 37> *
| 38> 
| 39>                          ****END OF INPUT****
================================================================================

                     *******************************
                     * Energy+Gradient Calculation *
                     *******************************

---------------------------------
CARTESIAN COORDINATES (ANGSTROEM)
---------------------------------
  O      3.167615    0.441817   -0.909664
  O     -0.586973    1.487890   -2.308049
  O      0.411697   -3.075465   -0.406740
  O     -3.039553   -1.736076   -0.373811
  N      0.326918   -1.458034    1.182012
  N     -2.151143   -0.144345    0.988770
  N      1.551950   -1.147608   -0.778348
  N     -1.484344   -0.302848   -1.228228
  C      1.727090    0.513329    0.947922
  C     -0.803662    1.606910    0.048269
  C      0.377818   -0.068841    1.563020
  C     -1.038054    0.719041    1.250123
  C      2.451279    1.569310    1.663700
  C     -0.674725    3.063797    0.173677
  C      2.221482   -0.026448   -0.302740
  C     -0.925627    0.974271   -1.261235
  C      0.727782   -1.971274   -0.028711
  C     -2.284641   -0.810902   -0.205216
  H      0.496796   -0.043618    2.649194
  H     -1.267433    1.332400    2.117872
  H      3.400294    1.779321    1.181006
  H      1.865716    2.500224    1.692070
  H      2.612342    1.288046    2.708640
  H     -1.586979    3.490394    0.605584
  H      0.133597    3.327664    0.867620
  H     -0.484975    3.518761   -0.792928
  H     -0.297481   -2.077685    1.668904
  H     -2.700060   -0.522053    1.740220
  H      1.905431   -1.551984   -1.629835
  H     -1.599556   -0.760995   -2.118496

----------------------------
CARTESIAN COORDINATES (A.U.)
----------------------------
  NO LB      ZA    FRAG     MASS         X           Y           Z
   0 O     8.0000    0    15.999    5.985925    0.834913   -1.719015
   1 O     8.0000    0    15.999   -1.109218    2.811704   -4.361580
   2 O     8.0000    0    15.999    0.777995   -5.811786   -0.768627
   3 O     8.0000    0    15.999   -5.743923   -3.280708   -0.706401
   4 N     7.0000    0    14.007    0.617785   -2.755285    2.233678
   5 N     7.0000    0    14.007   -4.065071   -0.272773    1.868505
   6 N     7.0000    0    14.007    2.932760   -2.168664   -1.470864
   7 N     7.0000    0    14.007   -2.805003   -0.572299   -2.321015
   8 C     6.0000    0    12.011    3.263728    0.970051    1.791312
   9 C     6.0000    0    12.011   -1.518700    3.036620    0.091215
  10 C     6.0000    0    12.011    0.713973   -0.130091    2.953680
  11 C     6.0000    0    12.011   -1.961637    1.358791    2.362390
  12 C     6.0000    0    12.011    4.632246    2.965566    3.143937
  13 C     6.0000    0    12.011   -1.275046    5.789737    0.328201
  14 C     6.0000    0    12.011    4.197993   -0.049980   -0.572096
  15 C     6.0000    0    12.011   -1.749181    1.841106   -2.383390
  16 C     6.0000    0    12.011    1.375309   -3.725168   -0.054257
  17 C     6.0000    0    12.011   -4.317345   -1.532383   -0.387802
  18 H     1.0000    0     1.008    0.938809   -0.082426    5.006251
  19 H     1.0000    0     1.008   -2.395102    2.517871    4.002199
  20 H     1.0000    0     1.008    6.425624    3.362430    2.231777
  21 H     1.0000    0     1.008    3.525693    4.724738    3.197550
  22 H     1.0000    0     1.008    4.936610    2.434055    5.118588
  23 H     1.0000    0     1.008   -2.998956    6.595888    1.144389
  24 H     1.0000    0     1.008    0.252461    6.288374    1.639563
  25 H     1.0000    0     1.008   -0.916470    6.649495   -1.498416
  26 H     1.0000    0     1.008   -0.562159   -3.926256    3.153771
  27 H     1.0000    0     1.008   -5.102374   -0.986536    3.288539
  28 H     1.0000    0     1.008    3.600742   -2.932825   -3.079943
  29 H     1.0000    0     1.008   -3.022723   -1.438073   -4.003377

--------------------------------
INTERNAL COORDINATES (ANGSTROEM)
--------------------------------
 O      0   0   0     0.000000000000     0.00000000     0.00000000
 O      1   0   0     4.140855360035     0.00000000     0.00000000
 O      1   2   0     4.496586436247    71.31623377     0.00000000
 O      3   1   2     3.702185514147   106.81921933   338.03526423
 N      3   1   2     2.268788815067    62.84373920   278.43963651
 N      4   3   1     2.275853034479    83.94123550   316.35665810
 N      1   2   3     2.270218160262    63.32737362   359.86748024
 N      2   1   3     2.275527686396    89.91493259    15.95379850
 C      1   2   3     2.351775598604    72.76271574   292.41831854
 C      2   1   3     2.369251616458    76.09911172    77.12148716
 C      5   3   1     1.441393274625   150.55996460    37.17104282
 C      6   4   3     1.432727770243   146.50763913    40.61029941
 C      9   1   2     1.466930333123    96.02188139   240.91986271
 C     10   2   1     1.467947707732    97.28402757   100.33159538
 C      1   2   3     1.217701001042    63.95728272   324.40699258
 C      2   1   3     1.214211169645    81.65600219    46.53729767
 C      3   1   2     1.209153867591    32.90643886   287.76653352
 C      4   3   1     1.205928656174    72.25559915   344.83872473
 H     11   5   3     1.092962026989   106.78480111   193.89011507
 H     12   6   4     1.087112300047   108.76480788   177.20065653
 H     13   9   1     1.085231240825   110.73132139   350.83440766
 H     13   9   1     1.100131399942   111.03560239   111.12109566
 H     13   9   1     1.094052527135   110.71085920   228.25808034
 H     14  10   2     1.095781435482   110.29930897   118.48618278
 H     14  10   2     1.097527662374   110.93531665   235.23716058
 H     14  10   2     1.085044653370   110.81797473   357.08411344
 H      5   3   1     1.005438391735    85.58108037   186.34170490
 H      6   4   3     1.004315665694    88.37139153   247.70481344
 H      7   1   2     1.006727711001    88.99228154    98.12754732
 H      8   2   1     1.007844095986    89.06262887   253.31338861

---------------------------
INTERNAL COORDINATES (A.U.)
---------------------------
 O      0   0   0     0.000000000000     0.00000000     0.00000000
 O      1   0   0     7.825082590645     0.00000000     0.00000000
 O      1   2   0     8.497316902012    71.31623377     0.00000000
 O      3   1   2     6.996116718708   106.81921933   338.03526423
 N      3   1   2     4.287389516181    62.84373920   278.43963651
 N      4   3   1     4.300738956220    83.94123550   316.35665810
 N      1   2   3     4.290090587151    63.32737362   359.86748024
 N      2   1   3     4.300124137444    89.91493259    15.95379850
 C      1   2   3     4.444211809801    72.76271574   292.41831854
 C      2   1   3     4.477236697456    76.09911172    77.12148716
 C      5   3   1     2.723838540317   150.55996460    37.17104282
 C      6   4   3     2.707463110224   146.50763913    40.61029941
 C      9   1   2     2.772096587144    96.02188139   240.91986271
 C     10   2   1     2.774019146531    97.28402757   100.33159538
 C      1   2   3     2.301121404972    63.95728272   324.40699258
 C      2   1   3     2.294526579377    81.65600219    46.53729767
 C      3   1   2     2.284969663519    32.90643886   287.76653352
 C      4   3   1     2.278874897217    72.25559915   344.83872473
 H     11   5   3     2.065398905784   106.78480111   193.89011507
 H     12   6   4     2.054344523906   108.76480788   177.20065653
 H     13   9   1     2.050789837136   110.73132139   350.83440766
 H     13   9   1     2.078947057218   111.03560239   111.12109566
 H     13   9   1     2.067459652410   110.71085920   228.25808034
 H     14  10   2     2.070726815696   110.29930897   118.48618278
 H     14  10   2     2.074026706290   110.93531665   235.23716058
 H     14  10   2     2.050437237946   110.81797473   357.08411344
 H      5   3   1     1.900003204909    85.58108037   186.34170490
 H      6   4   3     1.897881560168    88.37139153   247.70481344
 H      7   1   2     1.902439665221    88.99228154    98.12754732
 H      8   2   1     1.904549327104    89.06262887   253.31338861

---------------------
BASIS SET INFORMATION
---------------------
There are 4 groups of distinct atoms

 Group   1 Type O   : 12s7p3d1f contracted to 6s4p3d1f pattern {621111/4111/111/1}
 Group   2 Type N   : 12s6p3d1f contracted to 6s3p3d1f pattern {621111/411/111/1}
 Group   3 Type C   : 12s6p3d1f contracted to 6s3p3d1f pattern {621111/411/111/1}
 Group   4 Type H   : 5s3p1d contracted to 3s3p1d pattern {311/111/1}

Atom   0O    basis set group =>   1
Atom   1O    basis set group =>   1
Atom   2O    basis set group =>   1
Atom   3O    basis set group =>   1
Atom   4N    basis set group =>   2
Atom   5N    basis set group =>   2
Atom   6N    basis set group =>   2
Atom   7N    basis set group =>   2
Atom   8C    basis set group =>   3
Atom   9C    basis set group =>   3
Atom  10C    basis set group =>   3
Atom  11C    basis set group =>   3
Atom  12C    basis set group =>   3
Atom  13C    basis set group =>   3
Atom  14C    basis set group =>   3
Atom  15C    basis set group =>   3
Atom  16C    basis set group =>   3
Atom  17C    basis set group =>   3
Atom  18H    basis set group =>   4
Atom  19H    basis set group =>   4
Atom  20H    basis set group =>   4
Atom  21H    basis set group =>   4
Atom  22H    basis set group =>   4
Atom  23H    basis set group =>   4
Atom  24H    basis set group =>   4
Atom  25H    basis set group =>   4
Atom  26H    basis set group =>   4
Atom  27H    basis set group =>   4
Atom  28H    basis set group =>   4
Atom  29H    basis set group =>   4
---------------------------------
AUXILIARY/J BASIS SET INFORMATION
---------------------------------
There are 4 groups of distinct atoms

 Group   1 Type O   : 12s5p4d2f1g contracted to 6s4p3d1f1g pattern {711111/2111/211/2/1}
 Group   2 Type N   : 12s5p4d2f1g contracted to 6s4p3d1f1g pattern {711111/2111/211/2/1}
 Group   3 Type C   : 12s5p4d2f1g contracted to 6s4p3d1f1g pattern {711111/2111/211/2/1}
 Group   4 Type H   : 5s2p1d contracted to 3s1p1d pattern {311/2/1}

Atom   0O    basis set group =>   1
Atom   1O    basis set group =>   1
Atom   2O    basis set group =>   1
Atom   3O    basis set group =>   1
Atom   4N    basis set group =>   2
Atom   5N    basis set group =>   2
Atom   6N    basis set group =>   2
Atom   7N    basis set group =>   2
Atom   8C    basis set group =>   3
Atom   9C    basis set group =>   3
Atom  10C    basis set group =>   3
Atom  11C    basis set group =>   3
Atom  12C    basis set group =>   3
Atom  13C    basis set group =>   3
Atom  14C    basis set group =>   3
Atom  15C    basis set group =>   3
Atom  16C    basis set group =>   3
Atom  17C    basis set group =>   3
Atom  18H    basis set group =>   4
Atom  19H    basis set group =>   4
Atom  20H    basis set group =>   4
Atom  21H    basis set group =>   4
Atom  22H    basis set group =>   4
Atom  23H    basis set group =>   4
Atom  24H    basis set group =>   4
Atom  25H    basis set group =>   4
Atom  26H    basis set group =>   4
Atom  27H    basis set group =>   4
Atom  28H    basis set group =>   4
Atom  29H    basis set group =>   4
[1738806103.776274] [ohm:3075382:0]        ib_iface.c:1059 UCX  ERROR ibv_create_cq(cqe=256) failed: Connection timed out
[1738806103.780228] [ohm:3075380:0]        ib_iface.c:1059 UCX  ERROR ibv_create_cq(cqe=256) failed: Connection timed out
[1738806103.792997] [ohm:3075389:0]        ib_iface.c:1059 UCX  ERROR ibv_create_cq(cqe=256) failed: Connection timed out
[1738806103.798834] [ohm:3075386:0]        ib_iface.c:1059 UCX  ERROR ibv_create_cq(cqe=256) failed: Connection timed out
[1738806103.801907] [ohm:3075388:0]        ib_iface.c:1059 UCX  ERROR ibv_create_cq(cqe=256) failed: Connection timed out
[1738806103.803341] [ohm:3075527:0]        ib_iface.c:1059 UCX  ERROR ibv_create_cq(cqe=256) failed: Connection timed out
[1738806103.804564] [ohm:3075398:0]        ib_iface.c:1059 UCX  ERROR ibv_create_cq(cqe=256) failed: Connection timed out
[1738806103.809882] [ohm:3075385:0]        ib_iface.c:1059 UCX  ERROR ibv_create_cq(cqe=256) failed: Connection timed out
[1738806103.825982] [ohm:3075465:0]        ib_iface.c:1059 UCX  ERROR ibv_create_cq(cqe=256) failed: Connection timed out
[1738806103.826669] [ohm:3075383:0]        ib_iface.c:1059 UCX  ERROR ibv_create_cq(cqe=256) failed: Connection timed out
[1738806103.831386] [ohm:3075387:0]        ib_iface.c:1059 UCX  ERROR ibv_create_cq(cqe=256) failed: Connection timed out
[1738806103.852747] [ohm:3075381:0]        ib_iface.c:1059 UCX  ERROR ibv_create_cq(cqe=256) failed: Connection timed out
[1738806103.862891] [ohm:3075393:0]        ib_iface.c:1059 UCX  ERROR ibv_create_cq(cqe=256) failed: Connection timed out
[1738806103.872841] [ohm:3075438:0]        ib_iface.c:1059 UCX  ERROR ibv_create_cq(cqe=256) failed: Connection timed out
[1738806103.874526] [ohm:3075391:0]        ib_iface.c:1059 UCX  ERROR ibv_create_cq(cqe=256) failed: Connection timed out
[1738806103.874584] [ohm:3075420:0]        ib_iface.c:1059 UCX  ERROR ibv_create_cq(cqe=256) failed: Connection timed out
[1738806103.877698] [ohm:3075446:0]        ib_iface.c:1059 UCX  ERROR ibv_create_cq(cqe=256) failed: Connection timed out
[1738806103.882250] [ohm:3075392:0]        ib_iface.c:1059 UCX  ERROR ibv_create_cq(cqe=256) failed: Connection timed out
[1738806103.897961] [ohm:3075476:0]        ib_iface.c:1059 UCX  ERROR ibv_create_cq(cqe=256) failed: Connection timed out
[1738806103.900688] [ohm:3075401:0]        ib_iface.c:1059 UCX  ERROR ibv_create_cq(cqe=256) failed: Connection timed out
[1738806103.903338] [ohm:3075419:0]        ib_iface.c:1059 UCX  ERROR ibv_create_cq(cqe=256) failed: Connection timed out
[1738806103.914859] [ohm:3075510:0]        ib_iface.c:1059 UCX  ERROR ibv_create_cq(cqe=256) failed: Connection timed out
[1738806103.924727] [ohm:3075486:0]        ib_iface.c:1059 UCX  ERROR ibv_create_cq(cqe=256) failed: Connection timed out
[1738806103.928317] [ohm:3075404:0]        ib_iface.c:1059 UCX  ERROR ibv_create_cq(cqe=256) failed: Connection timed out
[1738806103.929290] [ohm:3075455:0]        ib_iface.c:1059 UCX  ERROR ibv_create_cq(cqe=256) failed: Connection timed out
[1738806103.933123] [ohm:3075403:0]        ib_iface.c:1059 UCX  ERROR ibv_create_cq(cqe=256) failed: Connection timed out
[1738806103.933123] [ohm:3075473:0]        ib_iface.c:1059 UCX  ERROR ibv_create_cq(cqe=256) failed: Connection timed out
[1738806103.940798] [ohm:3075540:0]        ib_iface.c:1059 UCX  ERROR ibv_create_cq(cqe=256) failed: Connection timed out
[1738806103.953777] [ohm:3075436:0]        ib_iface.c:1059 UCX  ERROR ibv_create_cq(cqe=256) failed: Connection timed out
[1738806103.968811] [ohm:3075488:0]        ib_iface.c:1059 UCX  ERROR ibv_create_cq(cqe=256) failed: Connection timed out
[1738806103.971473] [ohm:3075395:0]        ib_iface.c:1059 UCX  ERROR ibv_create_cq(cqe=256) failed: Connection timed out
[1738806103.972554] [ohm:3075449:0]        ib_iface.c:1059 UCX  ERROR ibv_create_cq(cqe=256) failed: Connection timed out
[1738806103.972891] [ohm:3075444:0]        ib_iface.c:1059 UCX  ERROR ibv_create_cq(cqe=256) failed: Connection timed out
[1738806103.973227] [ohm:3075432:0]        ib_iface.c:1059 UCX  ERROR ibv_create_cq(cqe=256) failed: Connection timed out
[1738806103.975750] [ohm:3075452:0]        ib_iface.c:1059 UCX  ERROR ibv_create_cq(cqe=256) failed: Connection timed out
[1738806103.983834] [ohm:3075478:0]        ib_iface.c:1059 UCX  ERROR ibv_create_cq(cqe=256) failed: Connection timed out
[1738806103.984333] [ohm:3075384:0]        ib_iface.c:1059 UCX  ERROR ibv_create_cq(cqe=256) failed: Connection timed out
[1738806103.986573] [ohm:3075425:0]        ib_iface.c:1059 UCX  ERROR ibv_create_cq(cqe=256) failed: Connection timed out
[1738806103.989191] [ohm:3075413:0]        ib_iface.c:1059 UCX  ERROR ibv_create_cq(cqe=256) failed: Connection timed out
[1738806103.990903] [ohm:3075418:0]        ib_iface.c:1059 UCX  ERROR ibv_create_cq(cqe=256) failed: Connection timed out
[1738806104.000617] [ohm:3075491:0]        ib_iface.c:1059 UCX  ERROR ibv_create_cq(cqe=256) failed: Connection timed out
[1738806104.009252] [ohm:3075521:0]        ib_iface.c:1059 UCX  ERROR ibv_create_cq(cqe=256) failed: Connection timed out
[1738806104.013422] [ohm:3075426:0]        ib_iface.c:1059 UCX  ERROR ibv_create_cq(cqe=256) failed: Connection timed out
[1738806104.021566] [ohm:3075462:0]        ib_iface.c:1059 UCX  ERROR ibv_create_cq(cqe=256) failed: Connection timed out
[1738806104.023657] [ohm:3075400:0]        ib_iface.c:1059 UCX  ERROR ibv_create_cq(cqe=256) failed: Connection timed out
[1738806104.027131] [ohm:3075514:0]        ib_iface.c:1059 UCX  ERROR ibv_create_cq(cqe=256) failed: Connection timed out
[1738806104.027922] [ohm:3075396:0]        ib_iface.c:1059 UCX  ERROR ibv_create_cq(cqe=256) failed: Connection timed out
[1738806104.029466] [ohm:3075390:0]        ib_iface.c:1059 UCX  ERROR ibv_create_cq(cqe=256) failed: Connection timed out
[1738806104.032416] [ohm:3075506:0]        ib_iface.c:1059 UCX  ERROR ibv_create_cq(cqe=256) failed: Connection timed out
[1738806104.037783] [ohm:3075399:0]        ib_iface.c:1059 UCX  ERROR ibv_create_cq(cqe=256) failed: Connection timed out
[1738806104.039693] [ohm:3075430:0]        ib_iface.c:1059 UCX  ERROR ibv_create_cq(cqe=256) failed: Connection timed out
[1738806104.045707] [ohm:3075471:0]        ib_iface.c:1059 UCX  ERROR ibv_create_cq(cqe=256) failed: Connection timed out
[1738806104.050161] [ohm:3075410:0]        ib_iface.c:1059 UCX  ERROR ibv_create_cq(cqe=256) failed: Connection timed out
[1738806104.050374] [ohm:3075421:0]        ib_iface.c:1059 UCX  ERROR ibv_create_cq(cqe=256) failed: Connection timed out
[1738806104.054785] [ohm:3075482:0]        ib_iface.c:1059 UCX  ERROR ibv_create_cq(cqe=256) failed: Connection timed out
[1738806104.056589] [ohm:3075459:0]        ib_iface.c:1059 UCX  ERROR ibv_create_cq(cqe=256) failed: Connection timed out
[1738806104.057292] [ohm:3075532:0]        ib_iface.c:1059 UCX  ERROR ibv_create_cq(cqe=256) failed: Connection timed out
[1738806104.058892] [ohm:3075501:0]        ib_iface.c:1059 UCX  ERROR ibv_create_cq(cqe=256) failed: Connection timed out
[1738806104.060939] [ohm:3075509:0]        ib_iface.c:1059 UCX  ERROR ibv_create_cq(cqe=256) failed: Connection timed out
[1738806104.063088] [ohm:3075397:0]        ib_iface.c:1059 UCX  ERROR ibv_create_cq(cqe=256) failed: Connection timed out
[1738806104.063878] [ohm:3075394:0]        ib_iface.c:1059 UCX  ERROR ibv_create_cq(cqe=256) failed: Connection timed out
[1738806104.064214] [ohm:3075468:0]        ib_iface.c:1059 UCX  ERROR ibv_create_cq(cqe=256) failed: Connection timed out
[1738806104.064762] [ohm:3075499:0]        ib_iface.c:1059 UCX  ERROR ibv_create_cq(cqe=256) failed: Connection timed out
[1738806104.068455] [ohm:3075493:0]        ib_iface.c:1059 UCX  ERROR ibv_create_cq(cqe=256) failed: Connection timed out


           ************************************************************
           *        Program running with 64 parallel MPI-processes    *
           *              working on a common directory               *
           ************************************************************
------------------------------------------------------------------------------
                             ORCA STARTUP CALCULATIONS
                           -- RI-GTO INTEGRALS CHOSEN --
------------------------------------------------------------------------------
------------------------------------------------------------------------------
                   ___                                                        
                  /   \      - P O W E R E D   B Y -                         
                 /     \                                                     
                 |  |  |   _    _      __       _____    __    __             
                 |  |  |  | |  | |    /  \     |  _  \  |  |  /  |          
                  \  \/   | |  | |   /    \    | | | |  |  | /  /          
                 / \  \   | |__| |  /  /\  \   | |_| |  |  |/  /          
                |  |  |   |  __  | /  /__\  \  |    /   |      \           
                |  |  |   | |  | | |   __   |  |    \   |  |\   \          
                \     /   | |  | | |  |  |  |  | |\  \  |  | \   \       
                 \___/    |_|  |_| |__|  |__|  |_| \__\ |__|  \__/        
                                                                              
                      - O R C A' S   B I G   F R I E N D -                    
                                      &                                       
                       - I N T E G R A L  F E E D E R -                       
                                                                              
 v1 FN, 2020, v2 2021, v3 2022-2024                                           
------------------------------------------------------------------------------


----------------------
SHARK INTEGRAL PACKAGE
----------------------

Number of atoms                             ...     30
Number of basis functions                   ...    882
Number of shells                            ...    322
Maximum angular momentum                    ...      3
Integral batch strategy                     ... SHARK/LIBINT Hybrid
RI-J (if used) integral strategy            ... SPLIT-RIJ (Revised 2003 algorithm where possible)
Printlevel                                  ...      1
Contraction scheme used                     ... SEGMENTED contraction
Prescreening option                         ... SCHWARTZ
   Thresh                                   ... 2.500e-11
   Tcut                                     ... 2.500e-12
   Tpresel                                  ... 2.500e-12 
Coulomb Range Separation                    ... NOT USED
Exchange Range Separation                   ... Long Range
   Mu parameter                             ... 3.000e-01
   Scaling (regular/separated)              ... 1.500e-01 8.500e-01
Multipole approximations                    ... NOT USED
Finite Nucleus Model                        ... NOT USED
CABS basis                                  ... NOT available
Auxiliary Coulomb fitting basis             ... AVAILABLE
   # of basis functions in Aux-J            ...   1014
   # of shells in Aux-J                     ...    330
   Maximum angular momentum in Aux-J        ...      4
Auxiliary J/K fitting basis                 ... NOT available
Auxiliary Correlation fitting basis         ... NOT available
Auxiliary 'external' fitting basis          ... NOT available

Checking pre-screening integrals            ... done (  0.0 sec) Dimension = 322
Check shell pair data                       ... done (  0.0 sec)
Shell pair information
Shell pair cut-off parameter TPreSel        ...   2.5e-12
Total number of shell pairs                 ...     52003
Shell pairs after pre-screening             ...     45142
Total number of primitive shell pairs       ...    129718
Primitive shell pairs kept                  ...     84271
          la=0 lb=0:   8735 shell pairs
          la=1 lb=0:  11921 shell pairs
          la=1 lb=1:   4113 shell pairs
          la=2 lb=0:   8113 shell pairs
          la=2 lb=1:   5608 shell pairs
          la=2 lb=2:   1939 shell pairs
          la=3 lb=0:   2078 shell pairs
          la=3 lb=1:   1478 shell pairs
          la=3 lb=2:   1013 shell pairs
          la=3 lb=3:    144 shell pairs

Calculating one electron integrals          ... done (  0.2 sec)
Calculating RI/J V-Matrix + Cholesky decomp.... done (  0.1 sec)
Calculating Nuclear repulsion               ... done (  0.0 sec) ENN=   1451.745314967309 Eh

Diagonalization of the overlap matrix:
Smallest eigenvalue                        ... 5.175e-07
Time for diagonalization                   ...    0.124 sec
Threshold for overlap eigenvalues          ... 1.000e-07
Number of eigenvalues below threshold      ... 0

IMPORTANT:
Smallest eigenvalue of S below the DiffSThresh (1.000e-06) while
Thresh>1e-12 and/or TCut>1e-13! In order to avoid SCF convergence issues,
Thresh will be set to at least 1e-12 and TCut to at least 1e-13.
This can be turned off by adding %SCF DiffSThresh -1 END to the input.

Time for construction of square roots      ...    0.132 sec
Total time needed                          ...    0.272 sec

-------------------
DFT GRID GENERATION
-------------------

General Integration Accuracy     IntAcc      ... 4.388
Radial Grid Type                 RadialGrid  ... OptM3 with GC (2021)
Angular Grid (max. ang.)         AngularGrid ... 4 (Lebedev-302)
Angular grid pruning method      GridPruning ... 4 (adaptive)
Weight generation scheme         WeightScheme... mBecke (2022)
Basis function cutoff            BFCut       ... 1.0000e-11
Integration weight cutoff        WCut        ... 1.0000e-14
Partially contracted basis set               ... off
Rotationally invariant grid construction     ... off
Angular grids for H and He will be reduced by one unit
Diffuse basis detected: some atoms will have their outermost
                        angular grid increased by 1.

Total number of grid points                  ...   152072
Total number of batches                      ...     2391
Average number of points per batch           ...       63
Average number of grid points per atom       ...     5069

--------------------
COSX GRID GENERATION
--------------------

GRIDX 1
-------
General Integration Accuracy     IntAcc      ... 3.816
Radial Grid Type                 RadialGrid  ... OptM3 with GC (2021)
Angular Grid (max. ang.)         AngularGrid ... 1 (Lebedev-50)
Angular grid pruning method      GridPruning ... 4 (adaptive)
Weight generation scheme         WeightScheme... mBecke (2022)
Basis function cutoff            BFCut       ... 1.0000e-11
Integration weight cutoff        WCut        ... 1.0000e-14
Partially contracted basis set               ... on
Rotationally invariant grid construction     ... off
Angular grids for H and He will be reduced by one unit
Diffuse basis detected: some atoms will have their outermost
                        angular grid increased by 1.

Total number of grid points                  ...    19034
Total number of batches                      ...      166
Average number of points per batch           ...      114
Average number of grid points per atom       ...      634
UseSFitting                                  ... on

GRIDX 2
-------
General Integration Accuracy     IntAcc      ... 4.020
Radial Grid Type                 RadialGrid  ... OptM3 with GC (2021)
Angular Grid (max. ang.)         AngularGrid ... 2 (Lebedev-110)
Angular grid pruning method      GridPruning ... 4 (adaptive)
Weight generation scheme         WeightScheme... mBecke (2022)
Basis function cutoff            BFCut       ... 1.0000e-11
Integration weight cutoff        WCut        ... 1.0000e-14
Partially contracted basis set               ... on
Rotationally invariant grid construction     ... off
Angular grids for H and He will be reduced by one unit
Diffuse basis detected: some atoms will have their outermost
                        angular grid increased by 1.

Total number of grid points                  ...    45856
Total number of batches                      ...      374
Average number of points per batch           ...      122
Average number of grid points per atom       ...     1529
UseSFitting                                  ... on

GRIDX 3
-------
General Integration Accuracy     IntAcc      ... 4.338
Radial Grid Type                 RadialGrid  ... OptM3 with GC (2021)
Angular Grid (max. ang.)         AngularGrid ... 3 (Lebedev-194)
Angular grid pruning method      GridPruning ... 4 (adaptive)
Weight generation scheme         WeightScheme... mBecke (2022)
Basis function cutoff            BFCut       ... 1.0000e-11
Integration weight cutoff        WCut        ... 1.0000e-14
Partially contracted basis set               ... on
Rotationally invariant grid construction     ... off
Angular grids for H and He will be reduced by one unit
Diffuse basis detected: some atoms will have their outermost
                        angular grid increased by 1.

Total number of grid points                  ...   101042
Total number of batches                      ...      804
Average number of points per batch           ...      125
Average number of grid points per atom       ...     3368
UseSFitting                                  ... on
Initializing property integral containers    ... done (  0.0 sec)

SHARK setup successfully completed in   4.2 seconds

Maximum memory used throughout the entire STARTUP-calculation: 80.2 MB
[1738806110.093687] [ohm:3075708:0]        ib_iface.c:1059 UCX  ERROR ibv_create_cq(cqe=256) failed: Connection timed out
[1738806110.097049] [ohm:3075719:0]        ib_iface.c:1059 UCX  ERROR ibv_create_cq(cqe=256) failed: Connection timed out
[1738806110.117562] [ohm:3075715:0]        ib_iface.c:1059 UCX  ERROR ibv_create_cq(cqe=256) failed: Connection timed out
[1738806110.173625] [ohm:3075710:0]        ib_iface.c:1059 UCX  ERROR ibv_create_cq(cqe=256) failed: Connection timed out
[1738806110.189871] [ohm:3075751:0]        ib_iface.c:1059 UCX  ERROR ibv_create_cq(cqe=256) failed: Connection timed out
[1738806110.195223] [ohm:3075856:0]        ib_iface.c:1059 UCX  ERROR ibv_create_cq(cqe=256) failed: Connection timed out
[1738806110.199117] [ohm:3075707:0]        ib_iface.c:1059 UCX  ERROR ibv_create_cq(cqe=256) failed: Connection timed out
[1738806110.200866] [ohm:3075717:0]        ib_iface.c:1059 UCX  ERROR ibv_create_cq(cqe=256) failed: Connection timed out
[1738806110.202659] [ohm:3075756:0]        ib_iface.c:1059 UCX  ERROR ibv_create_cq(cqe=256) failed: Connection timed out
[1738806110.203332] [ohm:3075828:0]        ib_iface.c:1059 UCX  ERROR ibv_create_cq(cqe=256) failed: Connection timed out
[1738806110.222112] [ohm:3075733:0]        ib_iface.c:1059 UCX  ERROR ibv_create_cq(cqe=256) failed: Connection timed out
[1738806110.227000] [ohm:3075727:0]        ib_iface.c:1059 UCX  ERROR ibv_create_cq(cqe=256) failed: Connection timed out
[1738806110.228574] [ohm:3075819:0]        ib_iface.c:1059 UCX  ERROR ibv_create_cq(cqe=256) failed: Connection timed out
[1738806110.238570] [ohm:3075732:0]        ib_iface.c:1059 UCX  ERROR ibv_create_cq(cqe=256) failed: Connection timed out
[1738806110.239446] [ohm:3075810:0]        ib_iface.c:1059 UCX  ERROR ibv_create_cq(cqe=256) failed: Connection timed out
[1738806110.261635] [ohm:3075720:0]        ib_iface.c:1059 UCX  ERROR ibv_create_cq(cqe=256) failed: Connection timed out
[1738806110.261671] [ohm:3075753:0]        ib_iface.c:1059 UCX  ERROR ibv_create_cq(cqe=256) failed: Connection timed out
[1738806110.266548] [ohm:3075762:0]        ib_iface.c:1059 UCX  ERROR ibv_create_cq(cqe=256) failed: Connection timed out
[1738806110.281552] [ohm:3075818:0]        ib_iface.c:1059 UCX  ERROR ibv_create_cq(cqe=256) failed: Connection timed out
[1738806110.286923] [ohm:3075744:0]        ib_iface.c:1059 UCX  ERROR ibv_create_cq(cqe=256) failed: Connection timed out
[1738806110.286917] [ohm:3075831:0]        ib_iface.c:1059 UCX  ERROR ibv_create_cq(cqe=256) failed: Connection timed out
[1738806110.290587] [ohm:3075791:0]        ib_iface.c:1059 UCX  ERROR ibv_create_cq(cqe=256) failed: Connection timed out
[1738806110.291927] [ohm:3075789:0]        ib_iface.c:1059 UCX  ERROR ibv_create_cq(cqe=256) failed: Connection timed out
[1738806110.318169] [ohm:3075834:0]        ib_iface.c:1059 UCX  ERROR ibv_create_cq(cqe=256) failed: Connection timed out
[1738806110.319668] [ohm:3075714:0]        ib_iface.c:1059 UCX  ERROR ibv_create_cq(cqe=256) failed: Connection timed out
[1738806110.342324] [ohm:3075811:0]        ib_iface.c:1059 UCX  ERROR ibv_create_cq(cqe=256) failed: Connection timed out
[1738806110.352576] [ohm:3075825:0]        ib_iface.c:1059 UCX  ERROR ibv_create_cq(cqe=256) failed: Connection timed out
[1738806110.356052] [ohm:3075723:0]        ib_iface.c:1059 UCX  ERROR ibv_create_cq(cqe=256) failed: Connection timed out
[1738806110.361067] [ohm:3075842:0]        ib_iface.c:1059 UCX  ERROR ibv_create_cq(cqe=256) failed: Connection timed out
[1738806110.361071] [ohm:3075836:0]        ib_iface.c:1059 UCX  ERROR ibv_create_cq(cqe=256) failed: Connection timed out
[1738806110.365434] [ohm:3075772:0]        ib_iface.c:1059 UCX  ERROR ibv_create_cq(cqe=256) failed: Connection timed out
[1738806110.365662] [ohm:3075712:0]        ib_iface.c:1059 UCX  ERROR ibv_create_cq(cqe=256) failed: Connection timed out
[1738806110.377004] [ohm:3075709:0]        ib_iface.c:1059 UCX  ERROR ibv_create_cq(cqe=256) failed: Connection timed out
[1738806110.389785] [ohm:3075771:0]        ib_iface.c:1059 UCX  ERROR ibv_create_cq(cqe=256) failed: Connection timed out
[1738806110.399818] [ohm:3075722:0]        ib_iface.c:1059 UCX  ERROR ibv_create_cq(cqe=256) failed: Connection timed out
[1738806110.407933] [ohm:3075746:0]        ib_iface.c:1059 UCX  ERROR ibv_create_cq(cqe=256) failed: Connection timed out
[1738806110.419177] [ohm:3075738:0]        ib_iface.c:1059 UCX  ERROR ibv_create_cq(cqe=256) failed: Connection timed out
[1738806110.419809] [ohm:3075731:0]        ib_iface.c:1059 UCX  ERROR ibv_create_cq(cqe=256) failed: Connection timed out
[1738806110.422459] [ohm:3075735:0]        ib_iface.c:1059 UCX  ERROR ibv_create_cq(cqe=256) failed: Connection timed out
[1738806110.423421] [ohm:3075728:0]        ib_iface.c:1059 UCX  ERROR ibv_create_cq(cqe=256) failed: Connection timed out
[1738806110.427871] [ohm:3075765:0]        ib_iface.c:1059 UCX  ERROR ibv_create_cq(cqe=256) failed: Connection timed out
[1738806110.428669] [ohm:3075766:0]        ib_iface.c:1059 UCX  ERROR ibv_create_cq(cqe=256) failed: Connection timed out
[1738806110.442335] [ohm:3075737:0]        ib_iface.c:1059 UCX  ERROR ibv_create_cq(cqe=256) failed: Connection timed out
[1738806110.442461] [ohm:3075862:0]        ib_iface.c:1059 UCX  ERROR ibv_create_cq(cqe=256) failed: Connection timed out
[1738806110.442440] [ohm:3075721:0]        ib_iface.c:1059 UCX  ERROR ibv_create_cq(cqe=256) failed: Connection timed out
[1738806110.447194] [ohm:3075799:0]        ib_iface.c:1059 UCX  ERROR ibv_create_cq(cqe=256) failed: Connection timed out
[1738806110.454584] [ohm:3075826:0]        ib_iface.c:1059 UCX  ERROR ibv_create_cq(cqe=256) failed: Connection timed out
[1738806110.459096] [ohm:3075711:0]        ib_iface.c:1059 UCX  ERROR ibv_create_cq(cqe=256) failed: Connection timed out
[1738806110.463957] [ohm:3075808:0]        ib_iface.c:1059 UCX  ERROR ibv_create_cq(cqe=256) failed: Connection timed out
[1738806110.464493] [ohm:3075759:0]        ib_iface.c:1059 UCX  ERROR ibv_create_cq(cqe=256) failed: Connection timed out
[1738806110.467708] [ohm:3075796:0]        ib_iface.c:1059 UCX  ERROR ibv_create_cq(cqe=256) failed: Connection timed out
[1738806110.470122] [ohm:3075780:0]        ib_iface.c:1059 UCX  ERROR ibv_create_cq(cqe=256) failed: Connection timed out
[1738806110.471108] [ohm:3075716:0]        ib_iface.c:1059 UCX  ERROR ibv_create_cq(cqe=256) failed: Connection timed out
[1738806110.471543] [ohm:3075718:0]        ib_iface.c:1059 UCX  ERROR ibv_create_cq(cqe=256) failed: Connection timed out
[1738806110.473933] [ohm:3075793:0]        ib_iface.c:1059 UCX  ERROR ibv_create_cq(cqe=256) failed: Connection timed out
[1738806110.474488] [ohm:3075725:0]        ib_iface.c:1059 UCX  ERROR ibv_create_cq(cqe=256) failed: Connection timed out
[1738806110.477990] [ohm:3075724:0]        ib_iface.c:1059 UCX  ERROR ibv_create_cq(cqe=256) failed: Connection timed out
[1738806110.478759] [ohm:3075730:0]        ib_iface.c:1059 UCX  ERROR ibv_create_cq(cqe=256) failed: Connection timed out
[1738806110.479132] [ohm:3075726:0]        ib_iface.c:1059 UCX  ERROR ibv_create_cq(cqe=256) failed: Connection timed out
[1738806110.479612] [ohm:3075729:0]        ib_iface.c:1059 UCX  ERROR ibv_create_cq(cqe=256) failed: Connection timed out
[1738806110.480440] [ohm:3075850:0]        ib_iface.c:1059 UCX  ERROR ibv_create_cq(cqe=256) failed: Connection timed out
[1738806110.482260] [ohm:3075802:0]        ib_iface.c:1059 UCX  ERROR ibv_create_cq(cqe=256) failed: Connection timed out
[1738806110.483619] [ohm:3075782:0]        ib_iface.c:1059 UCX  ERROR ibv_create_cq(cqe=256) failed: Connection timed out
[1738806110.483721] [ohm:3075713:0]        ib_iface.c:1059 UCX  ERROR ibv_create_cq(cqe=256) failed: Connection timed out


           ************************************************************
           *        Program running with 64 parallel MPI-processes    *
           *              working on a common directory               *
           ************************************************************
-------------------------------------------------------------------------------
                                 ORCA GUESS
                   Start orbitals & Density for SCF / CASSCF
-------------------------------------------------------------------------------

------------
SCF SETTINGS
------------
Hamiltonian:
 Density Functional     Method          .... DFT(GTOs)
  Functional kind                       .... Exchange-Correlation
  Functional name                       .... wB97M-V exchange-correlation functional
  Functional family                     .... Hybrid MGGA
  Functional refs                              
    [ 0] N. Mardirossian and M. Head-Gordon.,  J. Chem. Phys. 144, 214110 (2016), doi: 10.1063/1.4952647
  Fraction of HF Exchange (short range) .... 0.1500
  Fraction of HF Exchange (long range)  .... 1.0000
  Range separation parameter mu         .... 0.3000
  Functional external parameters        .... 17
    Parameter  0 _cx00      =  8.500000e-01 : u^00 coefficient for exchange
    Parameter  1 _cx01      =  1.007000e+00 : u^01 coefficient for exchange
    Parameter  2 _cx10      =  2.590000e-01 : u^10 coefficient for exchange
    Parameter  3 _css00     =  4.430000e-01 : u^00 coefficient for same-spin correlation
    Parameter  4 _css04     = -1.437000e+00 : u^04 coefficient for same-spin correlation
    Parameter  5 _css10     = -4.535000e+00 : u^10 coefficient for same-spin correlation
    Parameter  6 _css20     = -3.390000e+00 : u^20 coefficient for same-spin correlation
    Parameter  7 _css43     =  4.278000e+00 : u^43 coefficient for same-spin correlation
    Parameter  8 _cos00     =  1.000000e+00 : u^00 coefficient for opposite-spin correlation
    Parameter  9 _cos10     =  1.358000e+00 : u^10 coefficient for opposite-spin correlation
    Parameter 10 _cos20     =  2.924000e+00 : u^20 coefficient for opposite-spin correlation
    Parameter 11 _cos21     = -8.812000e+00 : u^21 coefficient for opposite-spin correlation
    Parameter 12 _cos60     = -1.390000e+00 : u^60 coefficient for opposite-spin correlation
    Parameter 13 _cos61     =  9.142000e+00 : u^61 coefficient for opposite-spin correlation
    Parameter 14 _alpha     =  1.000000e+00 : fraction of HF exchange
    Parameter 15 _beta      = -8.500000e-01 : fraction of short-range exchange
    Parameter 16 _omega     =  3.000000e-01 : range-separation constant
 Long-range corrected/Screened/Range-Separated Hybrid DFT is turned on
   Amount of maximum screened exact exchange              ....  0.850000
   Range separation parameter mu (erf(mu*r12)/r12)        ....  0.300000
 RI-approximation to the Coulomb term is turned on
   Number of AuxJ basis functions       .... 1014
   RIJ-COSX (HFX calculated with COS-X)).... on


General Settings:
 Integral files         IntName         .... orca
 Hartree-Fock type      HFTyp           .... UHF
 Total Charge           Charge          ....    0
 Multiplicity           Mult            ....    3
 Number of Electrons    NEL             ....  132
 Basis Dimension        Dim             ....  882
 Nuclear Repulsion      ENuc            ....   1451.7453149673 Eh

Convergence Acceleration:
 AO-DIIS                CNVDIIS         .... on
   Start iteration      DIISMaxIt       ....    12
   Startup error        DIISStart       ....  0.200000
   # of expansion vecs  DIISMaxEq       ....     5
   Bias factor          DIISBfac        ....   1.050
   Max. coefficient     DIISMaxC        ....  10.000
 MO-DIIS                CNVKDIIS        .... off
 Trust-Rad. Augm. Hess. CNVTRAH         .... auto
   Auto Start mean grad. ratio tolernc. ....  1.125000
   Auto Start start iteration           ....    50
   Auto Start num. interpolation iter.  ....    10
   Max. Number of Micro iterations      ....    24
   Max. Number of Macro iterations      .... Maxiter - #DIIS iter
   Number of Davidson start vectors     ....     2
   Converg. threshold    (grad. norm)   ....   1.000e-05
   Grad. Scal. Fac. for Micro threshold ....   0.100
   Minimum threshold for Micro iter.    ....   1.000e-02
   NR start threshold (gradient norm)   ....   1.000e-04
   Initial trust radius                 ....   0.400
   Minimum AH scaling param. (alpha)    ....   1.000
   Maximum AH scaling param. (alpha)    .... 1000.000
   Quad. conv. algorithm                .... NR
   White noise on init. David. guess    .... on
   Maximum white noise                  ....   0.010
   Pseudo random numbers                .... off
   Inactive MOs                         .... canonical
   Orbital update algorithm             .... Taylor
   Preconditioner                       .... Diag
   Full preconditioner red. dimension   ....   250
 SOSCF                  CNVSOSCF        .... on
   Start iteration      SOSCFMaxIt      ....   150
   Startup grad/error   SOSCFStart      ....  0.003300
   Hessian update       SOSCFHessUp     .... L-BFGS
 Level Shifting         CNVShift        .... on
   Level shift para.    LevelShift      ....    0.2500
   Turn off err/grad.   ShiftErr        ....    0.0010
 Zerner damping         CNVZerner       .... off
 Static damping         CNVDamp         .... on
   Fraction old density DampFac         ....    0.7000
   Max. Damping (<1)    DampMax         ....    0.9800
   Min. Damping (>=0)   DampMin         ....    0.0000
   Turn off err/grad.   DampErr         ....    0.1000

SCF Procedure:
 Maximum # iterations   MaxIter         ....   125
 SCF integral mode      SCFMode         .... Direct
   Integral package                     .... SHARK and LIBINT hybrid scheme
 Reset frequency        DirectResetFreq ....    20
 Integral Threshold     Thresh          ....  1.000e-12 Eh
 Primitive CutOff       TCut            ....  1.000e-13 Eh

Convergence Tolerance:
 Convergence Check Mode ConvCheckMode   .... Total+1el-Energy
 Convergence forced     ConvForced      .... 1
 Energy Change          TolE            ....  1.000e-08 Eh
 1-El. energy change                    ....  1.000e-05 Eh
 Orbital Gradient       TolG            ....  1.000e-05
 Orbital Rotation angle TolX            ....  1.000e-05
 DIIS Error             TolErr          ....  5.000e-07

------------------------------
INITIAL GUESS: MODEL POTENTIAL
------------------------------
Loading Hartree-Fock densities                     ... done
Calculating cut-offs                               ... done
Initializing the effective Hamiltonian             ... done
Setting up the integral package (SHARK)            ... done
Starting the Coulomb interaction                   ... done (   0.1 sec)
Making the grid                                    ... done (   0.2 sec)
Mapping shells                                     ... done
Starting the XC term evaluation                    ... done (   0.1 sec)
  promolecular density results
     # of electrons  =    132.001377115
     EX              =   -113.536915960
     EC              =     -4.489633984
     EX+EC           =   -118.026549944
Transforming the Hamiltonian                       ... done (   0.1 sec)
Diagonalizing the Hamiltonian                      ... done (   0.1 sec)
Back transforming the eigenvectors                 ... done (   0.1 sec)
Now organizing SCF variables                       ... done
                      ------------------
                      INITIAL GUESS DONE (   1.1 sec)
                      ------------------
             **** ENERGY FILE WAS UPDATED (orca.en.tmp) ****
Finished Guess after   3.7 sec
Maximum memory used throughout the entire GUESS-calculation: 72.6 MB
[1738806114.439141] [ohm:3076036:0]        ib_iface.c:1059 UCX  ERROR ibv_create_cq(cqe=256) failed: Connection timed out
[1738806114.452161] [ohm:3076039:0]        ib_iface.c:1059 UCX  ERROR ibv_create_cq(cqe=256) failed: Connection timed out
[1738806114.457446] [ohm:3076035:0]        ib_iface.c:1059 UCX  ERROR ibv_create_cq(cqe=256) failed: Connection timed out
[1738806114.468869] [ohm:3076037:0]        ib_iface.c:1059 UCX  ERROR ibv_create_cq(cqe=256) failed: Connection timed out
[1738806114.502014] [ohm:3076056:0]        ib_iface.c:1059 UCX  ERROR ibv_create_cq(cqe=256) failed: Connection timed out
[1738806114.504958] [ohm:3076059:0]        ib_iface.c:1059 UCX  ERROR ibv_create_cq(cqe=256) failed: Connection timed out
[1738806114.509863] [ohm:3076051:0]        ib_iface.c:1059 UCX  ERROR ibv_create_cq(cqe=256) failed: Connection timed out
[1738806114.512086] [ohm:3076044:0]        ib_iface.c:1059 UCX  ERROR ibv_create_cq(cqe=256) failed: Connection timed out
[1738806114.515905] [ohm:3076038:0]        ib_iface.c:1059 UCX  ERROR ibv_create_cq(cqe=256) failed: Connection timed out
[1738806114.523286] [ohm:3076041:0]        ib_iface.c:1059 UCX  ERROR ibv_create_cq(cqe=256) failed: Connection timed out
[1738806114.546824] [ohm:3076070:0]        ib_iface.c:1059 UCX  ERROR ibv_create_cq(cqe=256) failed: Connection timed out
[1738806114.559896] [ohm:3076106:0]        ib_iface.c:1059 UCX  ERROR ibv_create_cq(cqe=256) failed: Connection timed out
[1738806114.574952] [ohm:3076060:0]        ib_iface.c:1059 UCX  ERROR ibv_create_cq(cqe=256) failed: Connection timed out
[1738806114.577025] [ohm:3076058:0]        ib_iface.c:1059 UCX  ERROR ibv_create_cq(cqe=256) failed: Connection timed out
[1738806114.587674] [ohm:3076057:0]        ib_iface.c:1059 UCX  ERROR ibv_create_cq(cqe=256) failed: Connection timed out
[1738806114.594705] [ohm:3076053:0]        ib_iface.c:1059 UCX  ERROR ibv_create_cq(cqe=256) failed: Connection timed out
[1738806114.604412] [ohm:3076087:0]        ib_iface.c:1059 UCX  ERROR ibv_create_cq(cqe=256) failed: Connection timed out
[1738806114.604471] [ohm:3076095:0]        ib_iface.c:1059 UCX  ERROR ibv_create_cq(cqe=256) failed: Connection timed out
[1738806114.610575] [ohm:3076045:0]        ib_iface.c:1059 UCX  ERROR ibv_create_cq(cqe=256) failed: Connection timed out
[1738806114.617180] [ohm:3076050:0]        ib_iface.c:1059 UCX  ERROR ibv_create_cq(cqe=256) failed: Connection timed out
[1738806114.629264] [ohm:3076047:0]        ib_iface.c:1059 UCX  ERROR ibv_create_cq(cqe=256) failed: Connection timed out
[1738806114.640809] [ohm:3076063:0]        ib_iface.c:1059 UCX  ERROR ibv_create_cq(cqe=256) failed: Connection timed out
[1738806114.648167] [ohm:3076161:0]        ib_iface.c:1059 UCX  ERROR ibv_create_cq(cqe=256) failed: Connection timed out
[1738806114.663337] [ohm:3076054:0]        ib_iface.c:1059 UCX  ERROR ibv_create_cq(cqe=256) failed: Connection timed out
[1738806114.664252] [ohm:3076102:0]        ib_iface.c:1059 UCX  ERROR ibv_create_cq(cqe=256) failed: Connection timed out
[1738806114.669958] [ohm:3076131:0]        ib_iface.c:1059 UCX  ERROR ibv_create_cq(cqe=256) failed: Connection timed out
[1738806114.670265] [ohm:3076042:0]        ib_iface.c:1059 UCX  ERROR ibv_create_cq(cqe=256) failed: Connection timed out
[1738806114.673030] [ohm:3076156:0]        ib_iface.c:1059 UCX  ERROR ibv_create_cq(cqe=256) failed: Connection timed out
[1738806114.677596] [ohm:3076116:0]        ib_iface.c:1059 UCX  ERROR ibv_create_cq(cqe=256) failed: Connection timed out
[1738806114.678611] [ohm:3076148:0]        ib_iface.c:1059 UCX  ERROR ibv_create_cq(cqe=256) failed: Connection timed out
[1738806114.682297] [ohm:3076040:0]        ib_iface.c:1059 UCX  ERROR ibv_create_cq(cqe=256) failed: Connection timed out
[1738806114.701477] [ohm:3076122:0]        ib_iface.c:1059 UCX  ERROR ibv_create_cq(cqe=256) failed: Connection timed out
[1738806114.702879] [ohm:3076187:0]        ib_iface.c:1059 UCX  ERROR ibv_create_cq(cqe=256) failed: Connection timed out
[1738806114.707292] [ohm:3076160:0]        ib_iface.c:1059 UCX  ERROR ibv_create_cq(cqe=256) failed: Connection timed out
[1738806114.716348] [ohm:3076052:0]        ib_iface.c:1059 UCX  ERROR ibv_create_cq(cqe=256) failed: Connection timed out
[1738806114.719716] [ohm:3076127:0]        ib_iface.c:1059 UCX  ERROR ibv_create_cq(cqe=256) failed: Connection timed out
[1738806114.720075] [ohm:3076173:0]        ib_iface.c:1059 UCX  ERROR ibv_create_cq(cqe=256) failed: Connection timed out
[1738806114.722468] [ohm:3076072:0]        ib_iface.c:1059 UCX  ERROR ibv_create_cq(cqe=256) failed: Connection timed out
[1738806114.724737] [ohm:3076084:0]        ib_iface.c:1059 UCX  ERROR ibv_create_cq(cqe=256) failed: Connection timed out
[1738806114.726794] [ohm:3076125:0]        ib_iface.c:1059 UCX  ERROR ibv_create_cq(cqe=256) failed: Connection timed out
[1738806114.731553] [ohm:3076046:0]        ib_iface.c:1059 UCX  ERROR ibv_create_cq(cqe=256) failed: Connection timed out
[1738806114.741800] [ohm:3076064:0]        ib_iface.c:1059 UCX  ERROR ibv_create_cq(cqe=256) failed: Connection timed out
[1738806114.743642] [ohm:3076061:0]        ib_iface.c:1059 UCX  ERROR ibv_create_cq(cqe=256) failed: Connection timed out
[1738806114.744473] [ohm:3076079:0]        ib_iface.c:1059 UCX  ERROR ibv_create_cq(cqe=256) failed: Connection timed out
[1738806114.749902] [ohm:3076112:0]        ib_iface.c:1059 UCX  ERROR ibv_create_cq(cqe=256) failed: Connection timed out
[1738806114.754432] [ohm:3076151:0]        ib_iface.c:1059 UCX  ERROR ibv_create_cq(cqe=256) failed: Connection timed out
[1738806114.765105] [ohm:3076049:0]        ib_iface.c:1059 UCX  ERROR ibv_create_cq(cqe=256) failed: Connection timed out
[1738806114.766432] [ohm:3076092:0]        ib_iface.c:1059 UCX  ERROR ibv_create_cq(cqe=256) failed: Connection timed out
[1738806114.769442] [ohm:3076142:0]        ib_iface.c:1059 UCX  ERROR ibv_create_cq(cqe=256) failed: Connection timed out
[1738806114.770206] [ohm:3076120:0]        ib_iface.c:1059 UCX  ERROR ibv_create_cq(cqe=256) failed: Connection timed out
[1738806114.772956] [ohm:3076089:0]        ib_iface.c:1059 UCX  ERROR ibv_create_cq(cqe=256) failed: Connection timed out
[1738806114.775010] [ohm:3076136:0]        ib_iface.c:1059 UCX  ERROR ibv_create_cq(cqe=256) failed: Connection timed out
[1738806114.779161] [ohm:3076168:0]        ib_iface.c:1059 UCX  ERROR ibv_create_cq(cqe=256) failed: Connection timed out
[1738806114.779192] [ohm:3076147:0]        ib_iface.c:1059 UCX  ERROR ibv_create_cq(cqe=256) failed: Connection timed out
[1738806114.779847] [ohm:3076043:0]        ib_iface.c:1059 UCX  ERROR ibv_create_cq(cqe=256) failed: Connection timed out
[1738806114.781708] [ohm:3076144:0]        ib_iface.c:1059 UCX  ERROR ibv_create_cq(cqe=256) failed: Connection timed out
[1738806114.782848] [ohm:3076138:0]        ib_iface.c:1059 UCX  ERROR ibv_create_cq(cqe=256) failed: Connection timed out
[1738806114.783253] [ohm:3076181:0]        ib_iface.c:1059 UCX  ERROR ibv_create_cq(cqe=256) failed: Connection timed out
[1738806114.783460] [ohm:3076048:0]        ib_iface.c:1059 UCX  ERROR ibv_create_cq(cqe=256) failed: Connection timed out
[1738806114.783708] [ohm:3076081:0]        ib_iface.c:1059 UCX  ERROR ibv_create_cq(cqe=256) failed: Connection timed out
[1738806114.784195] [ohm:3076154:0]        ib_iface.c:1059 UCX  ERROR ibv_create_cq(cqe=256) failed: Connection timed out
[1738806114.785440] [ohm:3076165:0]        ib_iface.c:1059 UCX  ERROR ibv_create_cq(cqe=256) failed: Connection timed out
[1738806114.785544] [ohm:3076097:0]        ib_iface.c:1059 UCX  ERROR ibv_create_cq(cqe=256) failed: Connection timed out
[1738806114.786396] [ohm:3076055:0]        ib_iface.c:1059 UCX  ERROR ibv_create_cq(cqe=256) failed: Connection timed out


           ************************************************************
           *        Program running with 64 parallel MPI-processes    *
           *              working on a common directory               *
           ************************************************************

-------------------------------------------------------------------------------------------
                                      ORCA LEAN-SCF
                              memory conserving SCF solver
-------------------------------------------------------------------------------------------

----------------------------------------D-I-I-S--------------------------------------------
Iteration    Energy (Eh)           Delta-E    RMSDP     MaxDP     DIISErr   Damp  Time(sec)
-------------------------------------------------------------------------------------------
               ***  Starting incremental Fock matrix formation  ***
    1    -908.1367730006065813     0.00e+00  1.75e-03  3.20e-01  1.46e-01  0.700   7.8
    2    -908.4051276674870223    -2.68e-01  1.37e-03  2.36e-01  6.98e-02  0.700   6.7
                               ***Turning on AO-DIIS***
    3    -908.5234289640945917    -1.18e-01  9.73e-04  1.50e-01  2.96e-02  0.700   5.8
    4    -908.5962948231310747    -7.29e-02  2.27e-03  3.11e-01  1.90e-02  0.000   5.8
    5    -908.7602756771927943    -1.64e-01  3.18e-04  7.02e-02  5.13e-03  0.000   6.0
                              *** Initializing SOSCF ***
---------------------------------------S-O-S-C-F--------------------------------------
Iteration    Energy (Eh)           Delta-E    RMSDP     MaxDP     MaxGrad    Time(sec)
--------------------------------------------------------------------------------------
    6    -908.7616911554325725    -1.42e-03  1.46e-04  3.92e-02  3.09e-03     6.5
               *** Restarting incremental Fock matrix formation ***
    7    -908.7623458027444485    -6.55e-04  2.14e-04  2.92e-02  5.12e-03     7.4
    8    -908.7627776070437449    -4.32e-04  2.43e-04  5.85e-02  2.80e-03     6.6
    9    -908.7629266914675554    -1.49e-04  1.10e-04  9.37e-03  1.02e-03     6.7
   10    -908.7630085111775315    -8.18e-05  3.96e-05  1.15e-02  3.89e-04     6.5
   11    -908.7630190726843011    -1.06e-05  8.01e-06  1.26e-03  1.30e-04     6.3
   12    -908.7630212021770149    -2.13e-06  5.39e-06  6.98e-04  1.59e-04     6.1
   13    -908.7630223344669957    -1.13e-06  4.65e-06  9.91e-04  3.84e-05     6.0
   14    -908.7630224905176419    -1.56e-07  1.43e-06  2.78e-04  2.54e-05     6.0
   15    -908.7630225418417922    -5.13e-08  1.66e-06  2.84e-04  1.68e-05     5.8
   16    -908.7630225645923474    -2.28e-08  1.27e-06  2.35e-04  4.64e-06     5.7
   17    -908.7630225941254594    -2.95e-08  1.43e-06  2.79e-04  2.51e-06     5.5
   18    -908.7630225366799550     5.74e-08  1.81e-06  3.83e-04  8.21e-07     5.4
                  *** Gradient check signals convergence ***

               *****************************************************
               *                     SUCCESS                       *
               *           SCF CONVERGED AFTER  18 CYCLES          *
               *****************************************************

Recomputing exchange energy using gridx3       ... done (    8.903 sec)
Old exchange energy                            :    -35.039131106 Eh
New exchange energy                            :    -35.039117473 Eh
Exchange energy change after final integration :      0.000013634 Eh
Total energy after final integration           :   -908.763008903 Eh
             **** ENERGY FILE WAS UPDATED (orca.en.tmp) ****

----------------
TOTAL SCF ENERGY
----------------

Total Energy       :       -908.76300890312621 Eh          -24728.69866 eV

Components:
Nuclear Repulsion  :       1451.74531496730947 Eh           39503.99836 eV
Electronic Energy  :      -2360.50833750398942 Eh          -64232.69739 eV
One Electron Energy:      -4120.93904122895037 Eh         -112136.45222 eV
Two Electron Energy:       1760.43070372496072 Eh           47903.75483 eV

Virial components:
Potential Energy   :      -1814.47075628967605 Eh          -49374.25942 eV
Kinetic Energy     :        905.70774738654984 Eh           24645.56076 eV
Virial Ratio       :          2.00337334148393

DFT components:
N(Alpha)           :       66.999964841421 electrons
N(Beta)            :       64.999981945802 electrons
N(Total)           :      131.999946787223 electrons
E(XC)              :      -86.254450428912 Eh       

---------------
SCF CONVERGENCE
---------------

  Last Energy change         ...   -5.7446e-08  Tolerance :   1.0000e-08
  Last MAX-Density change    ...    3.8278e-04  Tolerance :   1.0000e-07
  Last RMS-Density change    ...    1.8087e-06  Tolerance :   5.0000e-09
  Last DIIS Error            ...    3.0859e-03  Tolerance :   5.0000e-07
  Last Orbital Gradient      ...    8.2059e-07  Tolerance :   1.0000e-05
  Last Orbital Rotation      ...    5.1366e-06  Tolerance :   1.0000e-05


----------------------
UHF SPIN CONTAMINATION
----------------------

Warning: in a DFT calculation there is little theoretical justification to 
         calculate <S**2> as in Hartree-Fock theory. We will do it anyways
         but you should keep in mind that the values have only limited relevance

Expectation value of <S**2>     :     2.014828
Ideal value S*(S+1) for S=1.0   :     2.000000
Deviation                       :     0.014828

----------------
ORBITAL ENERGIES
----------------
                 SPIN UP ORBITALS
  NO   OCC          E(Eh)            E(eV) 
   0   1.0000     -19.332500      -526.0641 
   1   1.0000     -19.331991      -526.0502 
   2   1.0000     -19.319277      -525.7043 
   3   1.0000     -19.314185      -525.5657 
   4   1.0000     -14.563874      -396.3032 
   5   1.0000     -14.558603      -396.1597 
   6   1.0000     -14.557715      -396.1356 
   7   1.0000     -14.556371      -396.0990 
   8   1.0000     -10.503566      -285.8166 
   9   1.0000     -10.499897      -285.7167 
  10   1.0000     -10.478346      -285.1303 
  11   1.0000     -10.478154      -285.1251 
  12   1.0000     -10.449541      -284.3465 
  13   1.0000     -10.446159      -284.2544 
  14   1.0000     -10.423497      -283.6378 
  15   1.0000     -10.412794      -283.3465 
  16   1.0000     -10.374106      -282.2938 
  17   1.0000     -10.373529      -282.2781 
  18   1.0000      -1.220293       -33.2059 
  19   1.0000      -1.214540       -33.0493 
  20   1.0000      -1.196517       -32.5589 
  21   1.0000      -1.193803       -32.4850 
  22   1.0000      -1.116476       -30.3809 
  23   1.0000      -1.095167       -29.8010 
  24   1.0000      -1.064440       -28.9649 
  25   1.0000      -1.054167       -28.6854 
  26   1.0000      -0.974179       -26.5088 
  27   1.0000      -0.950781       -25.8721 
  28   1.0000      -0.884567       -24.0703 
  29   1.0000      -0.837178       -22.7808 
  30   1.0000      -0.828033       -22.5319 
  31   1.0000      -0.803226       -21.8569 
  32   1.0000      -0.784213       -21.3395 
  33   1.0000      -0.775902       -21.1134 
  34   1.0000      -0.697908       -18.9911 
  35   1.0000      -0.692218       -18.8362 
  36   1.0000      -0.684375       -18.6228 
  37   1.0000      -0.660603       -17.9759 
  38   1.0000      -0.651332       -17.7237 
  39   1.0000      -0.646172       -17.5832 
  40   1.0000      -0.616485       -16.7754 
  41   1.0000      -0.602852       -16.4044 
  42   1.0000      -0.589303       -16.0358 
  43   1.0000      -0.583265       -15.8714 
  44   1.0000      -0.581055       -15.8113 
  45   1.0000      -0.571517       -15.5518 
  46   1.0000      -0.564347       -15.3567 
  47   1.0000      -0.558489       -15.1972 
  48   1.0000      -0.557263       -15.1639 
  49   1.0000      -0.550130       -14.9698 
  50   1.0000      -0.545245       -14.8369 
  51   1.0000      -0.541489       -14.7347 
  52   1.0000      -0.534054       -14.5324 
  53   1.0000      -0.525499       -14.2996 
  54   1.0000      -0.513631       -13.9766 
  55   1.0000      -0.506498       -13.7825 
  56   1.0000      -0.486131       -13.2283 
  57   1.0000      -0.420460       -11.4413 
  58   1.0000      -0.416326       -11.3288 
  59   1.0000      -0.408175       -11.1070 
  60   1.0000      -0.406115       -11.0510 
  61   1.0000      -0.395208       -10.7542 
  62   1.0000      -0.391902       -10.6642 
  63   1.0000      -0.387668       -10.5490 
  64   1.0000      -0.381225       -10.3737 
  65   1.0000      -0.344389        -9.3713 
  66   1.0000      -0.323821        -8.8116 
  67   0.0000       0.006297         0.1713 
  68   0.0000       0.028653         0.7797 
  69   0.0000       0.031408         0.8547 
  70   0.0000       0.039486         1.0745 
  71   0.0000       0.056386         1.5343 
  72   0.0000       0.057374         1.5612 
  73   0.0000       0.059442         1.6175 
  74   0.0000       0.063458         1.7268 
  75   0.0000       0.068057         1.8519 
  76   0.0000       0.072243         1.9658 
  77   0.0000       0.086876         2.3640 

                 SPIN DOWN ORBITALS
  NO   OCC          E(Eh)            E(eV) 
   0   1.0000     -19.328148      -525.9456 
   1   1.0000     -19.327278      -525.9220 
   2   1.0000     -19.319063      -525.6984 
   3   1.0000     -19.313992      -525.5605 
   4   1.0000     -14.563352      -396.2890 
   5   1.0000     -14.558259      -396.1504 
   6   1.0000     -14.557355      -396.1258 
   7   1.0000     -14.556023      -396.0895 
   8   1.0000     -10.503586      -285.8171 
   9   1.0000     -10.499916      -285.7172 
  10   1.0000     -10.479442      -285.1601 
  11   1.0000     -10.479155      -285.1523 
  12   1.0000     -10.449313      -284.3403 
  13   1.0000     -10.446084      -284.2524 
  14   1.0000     -10.411890      -283.3219 
  15   1.0000     -10.401165      -283.0301 
  16   1.0000     -10.374720      -282.3105 
  17   1.0000     -10.374109      -282.2939 
  18   1.0000      -1.218629       -33.1606 
  19   1.0000      -1.212515       -32.9942 
  20   1.0000      -1.191305       -32.4171 
  21   1.0000      -1.188624       -32.3441 
  22   1.0000      -1.114166       -30.3180 
  23   1.0000      -1.093024       -29.7427 
  24   1.0000      -1.062764       -28.9193 
  25   1.0000      -1.052750       -28.6468 
  26   1.0000      -0.959532       -26.1102 
  27   1.0000      -0.934009       -25.4157 
  28   1.0000      -0.880444       -23.9581 
  29   1.0000      -0.832150       -22.6439 
  30   1.0000      -0.819114       -22.2892 
  31   1.0000      -0.797895       -21.7118 
  32   1.0000      -0.782936       -21.3048 
  33   1.0000      -0.774356       -21.0713 
  34   1.0000      -0.691850       -18.8262 
  35   1.0000      -0.685754       -18.6603 
  36   1.0000      -0.678695       -18.4682 
  37   1.0000      -0.653446       -17.7812 
  38   1.0000      -0.643427       -17.5085 
  39   1.0000      -0.640501       -17.4289 
  40   1.0000      -0.614000       -16.7078 
  41   1.0000      -0.598232       -16.2787 
  42   1.0000      -0.582719       -15.8566 
  43   1.0000      -0.574489       -15.6327 
  44   1.0000      -0.570332       -15.5195 
  45   1.0000      -0.565171       -15.3791 
  46   1.0000      -0.559550       -15.2261 
  47   1.0000      -0.554035       -15.0761 
  48   1.0000      -0.551289       -15.0013 
  49   1.0000      -0.540135       -14.6978 
  50   1.0000      -0.539010       -14.6672 
  51   1.0000      -0.533597       -14.5199 
  52   1.0000      -0.527704       -14.3595 
  53   1.0000      -0.514771       -14.0076 
  54   1.0000      -0.502917       -13.6851 
  55   1.0000      -0.501074       -13.6349 
  56   1.0000      -0.480433       -13.0733 
  57   1.0000      -0.416293       -11.3279 
  58   1.0000      -0.412648       -11.2287 
  59   1.0000      -0.402178       -10.9438 
  60   1.0000      -0.393438       -10.7060 
  61   1.0000      -0.386612       -10.5202 
  62   1.0000      -0.383879       -10.4459 
  63   1.0000      -0.381554       -10.3826 
  64   1.0000      -0.372263       -10.1298 
  65   0.0000      -0.066197        -1.8013 
  66   0.0000      -0.037758        -1.0274 
  67   0.0000       0.005947         0.1618 
  68   0.0000       0.028559         0.7771 
  69   0.0000       0.031089         0.8460 
  70   0.0000       0.039476         1.0742 
  71   0.0000       0.057350         1.5606 
  72   0.0000       0.058573         1.5939 
  73   0.0000       0.060240         1.6392 
  74   0.0000       0.064620         1.7584 
  75   0.0000       0.068279         1.8580 
*Only the first 10 virtual orbitals were printed.

                    ********************************
                    * MULLIKEN POPULATION ANALYSIS *
                    ********************************

--------------------------------------------
MULLIKEN ATOMIC CHARGES AND SPIN POPULATIONS
--------------------------------------------
   0 O :   -0.669443    0.169489
   1 O :   -0.671636    0.157072
   2 O :   -0.655303    0.007115
   3 O :   -0.640465    0.007624
   4 N :   -0.293587    0.015112
   5 N :   -0.300116    0.022451
   6 N :    0.081012    0.020194
   7 N :    0.045775    0.015086
   8 C :   -0.113300    0.415486
   9 C :   -0.070541    0.453091
  10 C :    0.257424    0.149486
  11 C :    0.786445    0.078447
  12 C :   -1.265395    0.019037
  13 C :   -1.250603    0.033160
  14 C :    0.634389    0.189527
  15 C :    0.388937    0.166922
  16 C :    0.403692   -0.012930
  17 C :    0.347720   -0.002766
  18 H :    0.624556    0.006449
  19 H :    0.495607    0.002786
  20 H :    0.322021    0.006527
  21 H :    0.200160    0.022606
  22 H :    0.301176    0.016056
  23 H :    0.311784    0.020936
  24 H :    0.220547    0.019058
  25 H :    0.331313    0.006070
  26 H :    0.059916   -0.001598
  27 H :    0.063543   -0.001275
  28 H :    0.023919   -0.001237
  29 H :    0.030453    0.000019
Sum of atomic charges         :    0.0000000
[...]
[1738806376.164778] [ohm:3077238:0]        ib_iface.c:1059 UCX  ERROR ibv_create_cq(cqe=256) failed: Connection timed out
[1738806376.164832] [ohm:3077277:0]        ib_iface.c:1059 UCX  ERROR ibv_create_cq(cqe=256) failed: Connection timed out
[1738806376.164842] [ohm:3077213:0]        ib_iface.c:1059 UCX  ERROR ibv_create_cq(cqe=256) failed: Connection timed out
[1738806376.168052] [ohm:3077268:0]        ib_iface.c:1059 UCX  ERROR ibv_create_cq(cqe=256) failed: Connection timed out
[1738806376.170951] [ohm:3077207:0]        ib_iface.c:1059 UCX  ERROR ibv_create_cq(cqe=256) failed: Connection timed out
[1738806376.172223] [ohm:3077257:0]        ib_iface.c:1059 UCX  ERROR ibv_create_cq(cqe=256) failed: Connection timed out
[1738806376.173739] [ohm:3077205:0]        ib_iface.c:1059 UCX  ERROR ibv_create_cq(cqe=256) failed: Connection timed out
[1738806376.173696] [ohm:3077263:0]        ib_iface.c:1059 UCX  ERROR ibv_create_cq(cqe=256) failed: Connection timed out
[1738806376.174585] [ohm:3077252:0]        ib_iface.c:1059 UCX  ERROR ibv_create_cq(cqe=256) failed: Connection timed out
[1738806376.175019] [ohm:3077247:0]        ib_iface.c:1059 UCX  ERROR ibv_create_cq(cqe=256) failed: Connection timed out


           ************************************************************
           *        Program running with 64 parallel MPI-processes    *
           *              working on a common directory               *
           ************************************************************

------------------------------------------------------------------------------
                              ORCA PROPERTY CALCULATIONS
------------------------------------------------------------------------------

GBWName                                 ... orca.gbw
Number of atoms                         ...     30
Number of basis functions               ...    882
Max core memory                         ...   1024 MB

Electric properties:
Dipole moment                           ... YES
Quadrupole moment                       ...  NO
Static polarizability (Dipole/Dipole)   ...  NO
Static polarizability (Dipole/Quad.)    ...  NO
Static polarizability (Quad./Quad.)     ...  NO
Static polarizability (Velocity)        ...  NO

Atomic electric properties:
Dipole moment                           ...  NO
Quadrupole moment                       ...  NO
Static polarizability                   ...  NO

Choice of electric origin               ... Center of mass
Position of electric origin             ...    -0.011226    -0.071903    -0.034949

General magnetic properties:
Magnetizability                         ...  NO

EPR properties:
g-Tensor (aka g-matrix)                 ...  NO
Zero-Field splitting spin-orbit         ...  NO
Zero-field splitting spin-spin          ...  NO
Hyperfine couplings                     ...  NO (   0 nuclei)
Quadrupole couplings                    ...  NO (   0 nuclei)
Contact density                         ...  NO (   0 nuclei)

NMR properties:
Chemical shifts                         ...  NO (   0 nuclei)
Spin-rotation constants                 ...  NO (   0 nuclei)
Spin-spin couplings                     ...  NO (   0 nuclei,    0 pairs)

Choice of magnetic origin               ... GIAO
Position of magnetic origin             ...     0.000000     0.000000     0.000000

Properties with geometric perturbations:
SCF Hessian                             ...  NO
IR spectrum                             ...  NO
VCD spectrum                            ...  NO
X-ray spectroscopy properties:
SCF XES/XAS/RIXS spectra                ...  NO


-------------
DIPOLE MOMENT
-------------

Method             : SCF
Type of density    : Electron Density
Multiplicity       :   3
Irrep              :   0
Energy             :  -908.7630089031262060 Eh
Relativity type    : 
Basis              : AO
                                X                 Y                 Z
Electronic contribution:     -2.602501919     -10.293412640      -7.406820555
Nuclear contribution   :      2.381497185      11.893274994      10.180450907
                        -----------------------------------------
Total Dipole Moment    :     -0.221004734       1.599862354       2.773630352
                        -----------------------------------------
Magnitude (a.u.)       :      3.209583769
Magnitude (Debye)      :      8.158113606



--------------------
Rotational spectrum 
--------------------
 
Rotational constants in cm-1:             0.019031             0.015354             0.012380 
Rotational constants in MHz :           570.543141           460.314160           371.157830 

Dipole components along the rotational axes: 
x,y,z [a.u.] :     0.585414    -1.601399     2.719235 
x,y,z [Debye]:     1.488003    -4.070433     6.911747 

 

-------------
DIPOLE MOMENT
-------------

Method             : TDA/CIS
Type of density    : Electron Density
Level              : Relaxed density
State              :   2
Multiplicity       :   3
Irrep              :   0
Energy             :     0.0000000000000000 Eh
Relativity type    : 
Basis              : AO
                                X                 Y                 Z
Electronic contribution:     -2.634713487     -10.247763763      -7.282142612
Nuclear contribution   :      2.381497185      11.893274994      10.180450907
                        -----------------------------------------
Total Dipole Moment    :     -0.253216302       1.645511231       2.898308295
                        -----------------------------------------
Magnitude (a.u.)       :      3.342456683
Magnitude (Debye)      :      8.495849712



--------------------
Rotational spectrum 
--------------------
 
Rotational constants in cm-1:             0.019031             0.015354             0.012380 
Rotational constants in MHz :           570.543141           460.314160           371.157830 

Dipole components along the rotational axes: 
x,y,z [a.u.] :     0.582862    -1.654916     2.844915 
x,y,z [Debye]:     1.481518    -4.206463     7.231199 

 

Dipole moment calculation done in   0.2 sec 

Maximum memory used throughout the entire PROP-calculation: 81.7 MB
[1738806378.570106] [ohm:3077472:0]        ib_iface.c:1059 UCX  ERROR ibv_create_cq(cqe=256) failed: Connection timed out
[1738806378.593190] [ohm:3077471:0]        ib_iface.c:1059 UCX  ERROR ibv_create_cq(cqe=256) failed: Connection timed out
[1738806378.595729] [ohm:3077477:0]        ib_iface.c:1059 UCX  ERROR ibv_create_cq(cqe=256) failed: Connection timed out
[1738806378.605010] [ohm:3077473:0]        ib_iface.c:1059 UCX  ERROR ibv_create_cq(cqe=256) failed: Connection timed out
[1738806378.606090] [ohm:3077474:0]        ib_iface.c:1059 UCX  ERROR ibv_create_cq(cqe=256) failed: Connection timed out
[1738806378.610209] [ohm:3077476:0]        ib_iface.c:1059 UCX  ERROR ibv_create_cq(cqe=256) failed: Connection timed out
[1738806378.613746] [ohm:3077478:0]        ib_iface.c:1059 UCX  ERROR ibv_create_cq(cqe=256) failed: Connection timed out
[1738806378.617311] [ohm:3077480:0]        ib_iface.c:1059 UCX  ERROR ibv_create_cq(cqe=256) failed: Connection timed out
[1738806378.623858] [ohm:3077486:0]        ib_iface.c:1059 UCX  ERROR ibv_create_cq(cqe=256) failed: Connection timed out
[1738806378.628759] [ohm:3077475:0]        ib_iface.c:1059 UCX  ERROR ibv_create_cq(cqe=256) failed: Connection timed out
[1738806378.632223] [ohm:3077482:0]        ib_iface.c:1059 UCX  ERROR ibv_create_cq(cqe=256) failed: Connection timed out
[1738806378.641458] [ohm:3077485:0]        ib_iface.c:1059 UCX  ERROR ibv_create_cq(cqe=256) failed: Connection timed out
[1738806378.641814] [ohm:3077483:0]        ib_iface.c:1059 UCX  ERROR ibv_create_cq(cqe=256) failed: Connection timed out
[1738806378.645243] [ohm:3077589:0]        ib_iface.c:1059 UCX  ERROR ibv_create_cq(cqe=256) failed: Connection timed out
[1738806378.647212] [ohm:3077536:0]        ib_iface.c:1059 UCX  ERROR ibv_create_cq(cqe=256) failed: Connection timed out
[1738806378.667774] [ohm:3077598:0]        ib_iface.c:1059 UCX  ERROR ibv_create_cq(cqe=256) failed: Connection timed out
[1738806378.687542] [ohm:3077487:0]        ib_iface.c:1059 UCX  ERROR ibv_create_cq(cqe=256) failed: Connection timed out
[1738806378.696667] [ohm:3077548:0]        ib_iface.c:1059 UCX  ERROR ibv_create_cq(cqe=256) failed: Connection timed out
[1738806378.706500] [ohm:3077479:0]        ib_iface.c:1059 UCX  ERROR ibv_create_cq(cqe=256) failed: Connection timed out
[1738806378.730550] [ohm:3077495:0]        ib_iface.c:1059 UCX  ERROR ibv_create_cq(cqe=256) failed: Connection timed out
[1738806378.731857] [ohm:3077521:0]        ib_iface.c:1059 UCX  ERROR ibv_create_cq(cqe=256) failed: Connection timed out
[1738806378.736601] [ohm:3077520:0]        ib_iface.c:1059 UCX  ERROR ibv_create_cq(cqe=256) failed: Connection timed out
[1738806378.755067] [ohm:3077603:0]        ib_iface.c:1059 UCX  ERROR ibv_create_cq(cqe=256) failed: Connection timed out
[1738806378.755267] [ohm:3077606:0]        ib_iface.c:1059 UCX  ERROR ibv_create_cq(cqe=256) failed: Connection timed out
[1738806378.762177] [ohm:3077512:0]        ib_iface.c:1059 UCX  ERROR ibv_create_cq(cqe=256) failed: Connection timed out
[1738806378.766745] [ohm:3077539:0]        ib_iface.c:1059 UCX  ERROR ibv_create_cq(cqe=256) failed: Connection timed out
[1738806378.773110] [ohm:3077501:0]        ib_iface.c:1059 UCX  ERROR ibv_create_cq(cqe=256) failed: Connection timed out
[1738806378.773749] [ohm:3077494:0]        ib_iface.c:1059 UCX  ERROR ibv_create_cq(cqe=256) failed: Connection timed out
[1738806378.776384] [ohm:3077568:0]        ib_iface.c:1059 UCX  ERROR ibv_create_cq(cqe=256) failed: Connection timed out
[1738806378.777872] [ohm:3077594:0]        ib_iface.c:1059 UCX  ERROR ibv_create_cq(cqe=256) failed: Connection timed out
[1738806378.783965] [ohm:3077565:0]        ib_iface.c:1059 UCX  ERROR ibv_create_cq(cqe=256) failed: Connection timed out
[1738806378.784727] [ohm:3077619:0]        ib_iface.c:1059 UCX  ERROR ibv_create_cq(cqe=256) failed: Connection timed out
[1738806378.794949] [ohm:3077490:0]        ib_iface.c:1059 UCX  ERROR ibv_create_cq(cqe=256) failed: Connection timed out
[1738806378.802837] [ohm:3077601:0]        ib_iface.c:1059 UCX  ERROR ibv_create_cq(cqe=256) failed: Connection timed out
[1738806378.803098] [ohm:3077496:0]        ib_iface.c:1059 UCX  ERROR ibv_create_cq(cqe=256) failed: Connection timed out
[1738806378.808836] [ohm:3077516:0]        ib_iface.c:1059 UCX  ERROR ibv_create_cq(cqe=256) failed: Connection timed out
[1738806378.809772] [ohm:3077504:0]        ib_iface.c:1059 UCX  ERROR ibv_create_cq(cqe=256) failed: Connection timed out
[1738806378.810551] [ohm:3077611:0]        ib_iface.c:1059 UCX  ERROR ibv_create_cq(cqe=256) failed: Connection timed out
[1738806378.811867] [ohm:3077591:0]        ib_iface.c:1059 UCX  ERROR ibv_create_cq(cqe=256) failed: Connection timed out
[1738806378.812167] [ohm:3077584:0]        ib_iface.c:1059 UCX  ERROR ibv_create_cq(cqe=256) failed: Connection timed out
[1738806378.823965] [ohm:3077493:0]        ib_iface.c:1059 UCX  ERROR ibv_create_cq(cqe=256) failed: Connection timed out
[1738806378.829592] [ohm:3077576:0]        ib_iface.c:1059 UCX  ERROR ibv_create_cq(cqe=256) failed: Connection timed out
[1738806378.830592] [ohm:3077488:0]        ib_iface.c:1059 UCX  ERROR ibv_create_cq(cqe=256) failed: Connection timed out
[1738806378.838951] [ohm:3077499:0]        ib_iface.c:1059 UCX  ERROR ibv_create_cq(cqe=256) failed: Connection timed out
[1738806378.841005] [ohm:3077508:0]        ib_iface.c:1059 UCX  ERROR ibv_create_cq(cqe=256) failed: Connection timed out
[1738806378.847897] [ohm:3077491:0]        ib_iface.c:1059 UCX  ERROR ibv_create_cq(cqe=256) failed: Connection timed out
[1738806378.854903] [ohm:3077492:0]        ib_iface.c:1059 UCX  ERROR ibv_create_cq(cqe=256) failed: Connection timed out
[1738806378.856527] [ohm:3077558:0]        ib_iface.c:1059 UCX  ERROR ibv_create_cq(cqe=256) failed: Connection timed out
[1738806378.858141] [ohm:3077596:0]        ib_iface.c:1059 UCX  ERROR ibv_create_cq(cqe=256) failed: Connection timed out
[1738806378.858570] [ohm:3077526:0]        ib_iface.c:1059 UCX  ERROR ibv_create_cq(cqe=256) failed: Connection timed out
[1738806378.861746] [ohm:3077578:0]        ib_iface.c:1059 UCX  ERROR ibv_create_cq(cqe=256) failed: Connection timed out
[1738806378.862138] [ohm:3077562:0]        ib_iface.c:1059 UCX  ERROR ibv_create_cq(cqe=256) failed: Connection timed out
[1738806378.864825] [ohm:3077552:0]        ib_iface.c:1059 UCX  ERROR ibv_create_cq(cqe=256) failed: Connection timed out
[1738806378.868585] [ohm:3077533:0]        ib_iface.c:1059 UCX  ERROR ibv_create_cq(cqe=256) failed: Connection timed out
[1738806378.869057] [ohm:3077572:0]        ib_iface.c:1059 UCX  ERROR ibv_create_cq(cqe=256) failed: Connection timed out
[1738806378.869067] [ohm:3077489:0]        ib_iface.c:1059 UCX  ERROR ibv_create_cq(cqe=256) failed: Connection timed out
[1738806378.869990] [ohm:3077545:0]        ib_iface.c:1059 UCX  ERROR ibv_create_cq(cqe=256) failed: Connection timed out
[1738806378.872908] [ohm:3077528:0]        ib_iface.c:1059 UCX  ERROR ibv_create_cq(cqe=256) failed: Connection timed out
[1738806378.873805] [ohm:3077484:0]        ib_iface.c:1059 UCX  ERROR ibv_create_cq(cqe=256) failed: Connection timed out
[1738806378.874292] [ohm:3077498:0]        ib_iface.c:1059 UCX  ERROR ibv_create_cq(cqe=256) failed: Connection timed out
[1738806378.875872] [ohm:3077583:0]        ib_iface.c:1059 UCX  ERROR ibv_create_cq(cqe=256) failed: Connection timed out
[1738806378.876108] [ohm:3077543:0]        ib_iface.c:1059 UCX  ERROR ibv_create_cq(cqe=256) failed: Connection timed out
[1738806378.878122] [ohm:3077555:0]        ib_iface.c:1059 UCX  ERROR ibv_create_cq(cqe=256) failed: Connection timed out
[1738806378.883712] [ohm:3077481:0]        ib_iface.c:1059 UCX  ERROR ibv_create_cq(cqe=256) failed: Connection timed out

--------------------------------
SUGGESTED CITATIONS FOR THIS RUN
--------------------------------

Below you find a list of papers that are relevant to this ORCA run
We neither can nor want to force you to cite these papers, but we appreciate if you do
You receive ORCA, which is the product of decades of hard work by many enthusiastic individuals, for free
The only thing we kindly ask in return is that you cite our papers,
We deeply appreciate it, if you show your appreciation for ORCA by not just citing the generic ORCA reference.

Please note that relegating all ORCA citations to the supporting information does *not* help us.
SI sections are not indexed - citations you put there will not count into any citation statistics
But we need these citations in order to attract the funding resources that allow us to do what we are doing

Therefore, if you are a happy ORCA user, please consider citing a few of the papers listed below in the main body of your paper

In addition to the list printed below, the program has created the file orca.bibtex that contains the list in bibtex format
You can import this file easily into all common literature databanks and citation aid programs


List of essential papers. We consider these as the minimum necessary citations

  1. Neese,F.
     Software update: the ORCA program system, version 5.0
     WIRES Comput. Molec. Sci., 2022 12(1)e1606
     doi.org/10.1002/wcms.1606

List of papers to cite with high priority. The work reported in these papers was absolutely
necessary for this run to complete.
Our perspective: the developers of density functionals and basis sets usually get cited in chemistry papers
Good! But without the algorithms to do something with them, the functionals or basis sets would not do anything.
Hence, in our opinion, the algorithm design and method developments papers are equally worthy of getting cited

  1. Neese,F.; Olbrich,G.
     Efficient use of the resolution of the identity approximation in time-dependent density functional calculations with hybrid density functionals
     Chem. Phys. Lett., 2002 362 170-178
     doi.org/10.1016/s0009-2614(02)01053-9
  2. Neese,F.
     An improvement of the resolution of the identity approximation for the formation of the Coulomb matrix
     J. Comp. Chem., 2003 24(14)1740-1747
     doi.org/10.1002/jcc.10318
  3. Neese,F.; Wennmohs,F.; Hansen,A.; Becker,U.
     Efficient, approximate and parallel Hartree-Fock and hybrid DFT calculations. A 'chain-of-spheres' algorithm for the Hartree-Fock exchange
     Chem. Phys., 2009 356(1-3)98-109
     doi.org/10.1016/j.chemphys.2008.10.036
  4. Petrenko,T.; Kossmann,S.; Neese,F.
     Efficient time-dependent density functional theory approximations for hybrid density functionals: Analytical gradients and parallelization
     J. Chem. Phys., 2011 134 054116
     doi.org/10.1063/1.3533441
  5. Helmich-Paris,B.; de Souza,B.; Neese,F.; Izsák,R.
     An improved chain of spheres for exchange algorithm
     J. Chem. Phys., 2021 155 104109
     doi.org/doi: 10.1063/5.0058766.
  6. Neese,F.
     The SHARK Integral Generation and Digestion System
     J. Comp. Chem., 2022  1-16
     doi.org/10.1002/jcc.26942
  7. Lehtola,S.; Steigemann,C.; Oliveira,M.; Marques,M.
     Recent developments in Libxc - A comprehensive library of functionals for density functional theory
     Software X, 2018 7 
     doi.org/10.1016/j.softx.2017.11.002
  8. Grimme,S.; Antony,J.; Ehrlich,S.; Krieg,H.
     A consistent and accurate ab initio parametrization of density functional dispersion correction (DFT-D) for the 94 elements H-Pu
     J. Chem. Phys., 2010 132 154104-XXXX
     doi.org/10.1063/1.3382344
  9. Grimme,S.; Ehrlich,S.; Goerigk,L.
     Effect of the damping function in dispersion corrected density functional theory
     J. Comput. Chem., 2011 32(7)1456-1465
     doi.org/10.1002/jcc.21759

List of suggested additional citations. These are papers that are important in the 'surrounding' of 
of this run, or papers that preceded the highly important papers. If you like your results we are grateful for a citation.

  1. Izsak,R.; Neese,F.
     An overlap fitted chain of spheres exchange method
     J. Chem. Phys., 2011 135 144105
     doi.org/10.1063/1.3646921
  2. Izsak,R.; Hansen,A.; Neese,F.
     The resolution of identity and chain of spheres approximations for the LPNO-CCSD singles Fock term
     Molec. Phys., 2012 110 2413-2417
     doi.org/10.1080/00268976.2012.687466
  3. Neese,F.
     The ORCA program system
     WIRES Comput. Molec. Sci., 2012 2(1)73-78
     doi.org/10.1002/wcms.81
  4. Izsak,R.; Neese,F.; Klopper,W.
     Robust fitting techniques in the chain of spheres approximation to the Fock exchange: The role of the complementary space
     J. Chem. Phys., 2013 139 
     doi.org/10.1063/1.4819264
  5. Neese,F.
     Software update: the ORCA program system, version 4.0
     WIRES Comput. Molec. Sci., 2018 8(1)1-6
     doi.org/10.1002/wcms.1327
  6. Neese,F.; Wennmohs,F.; Becker,U.; Riplinger,C.
     The ORCA quantum chemistry program package
     J. Chem. Phys., 2020 152 Art. No. L224108
     doi.org/10.1063/5.0004608

List of optional additional citations

  1. Neese,F.
     Approximate second-order SCF convergence for spin unrestricted wavefunctions
     Chem. Phys. Lett., 2000 325(1-3)93-98
     doi.org/10.1016/s0009-2614(00)00662-x

Timings for individual modules:

Sum of individual times          ...      274.786 sec (=   4.580 min)
Startup calculation              ...        6.304 sec (=   0.105 min)   2.3 %
SCF iterations                   ...      131.439 sec (=   2.191 min)  47.8 %
Property integrals               ...        4.210 sec (=   0.070 min)   1.5 %
Property calculations            ...        2.792 sec (=   0.047 min)   1.0 %
CIS module                       ...      130.041 sec (=   2.167 min)  47.3 %
                             ****ORCA TERMINATED NORMALLY****
TOTAL RUN TIME: 0 days 0 hours 4 minutes 36 seconds 772 msec
