
                                 *****************
                                 * O   R   C   A *
                                 *****************

                                            #,                                       
                                            ###                                      
                                            ####                                     
                                            #####                                    
                                            ######                                   
                                           ########,                                 
                                     ,,################,,,,,                         
                               ,,#################################,,                 
                          ,,##########################################,,             
                       ,#########################################, ''#####,          
                    ,#############################################,,   '####,        
                  ,##################################################,,,,####,       
                ,###########''''           ''''###############################       
              ,#####''   ,,,,##########,,,,          '''####'''          '####       
            ,##' ,,,,###########################,,,                        '##       
           ' ,,###''''                  '''############,,,                           
         ,,##''                                '''############,,,,        ,,,,,,###''
      ,#''                                            '''#######################'''  
     '                                                          ''''####''''         
             ,#######,   #######,   ,#######,      ##                                
            ,#'     '#,  ##    ##  ,#'     '#,    #''#        ,####,   ,####,        
            ##       ##  ##   ,#'  ##            #'  '#       #'       #'  '#        
            ##       ##  #######   ##           ,######,      #####,   #    #        
            '#,     ,#'  ##    ##  '#,     ,#' ,#      #,     #,   #   #,  ,#        
             '#######'   ##     ##  '#######'  #'      '#     '####' # '####'        



                #########################################################
                #                        -***-                          #
                #          Department of theory and spectroscopy        #
                #                                                       #
                #                      Frank Neese                      #
                #                                                       #
                #     Directorship, Architecture, Infrastructure        #
                #                    SHARK, DRIVERS                     #
                #        Core code/Algorithms in most modules           #
                #                                                       #
                #        Max Planck Institute fuer Kohlenforschung      #
                #                Kaiser Wilhelm Platz 1                 #
                #                 D-45470 Muelheim/Ruhr                 #
                #                      Germany                          #
                #                                                       #
                #                  All rights reserved                  #
                #                        -***-                          #
                #########################################################


                         Program Version 6.0.0  -   RELEASE  -


 With contributions from (in alphabetic order):
   Daniel Aravena         : Magnetic Suceptibility
   Michael Atanasov       : Ab Initio Ligand Field Theory (pilot matlab implementation)
   Alexander A. Auer      : GIAO ZORA, VPT2 properties, NMR spectrum
   Ute Becker             : All parallelization in ORCA, NUMFREQ, NUMCALC
   Giovanni Bistoni       : ED, misc. LED, open-shell LED, HFLD
   Martin Brehm           : Molecular dynamics
   Dmytro Bykov           : pre 5.0 version of the SCF Hessian
   Marcos Casanova-Páez   : Triplet and SCS-CIS(D). UHF-(DLPNO)-IP/EA/STEOM-CCSD. UHF-CVS-IP/STEOM-CCSD
   Vijay G. Chilkuri      : MRCI spin determinant printing, contributions to CSF-ICE
   Pauline Colinet        : FMM embedding
   Dipayan Datta          : RHF DLPNO-CCSD density
   Achintya Kumar Dutta   : EOM-CC, STEOM-CC
   Nicolas Foglia         : Exact transition moments, OPA infrastructure, MCD improvements
   Dmitry Ganyushin       : Spin-Orbit,Spin-Spin,Magnetic field MRCI
   Miquel Garcia          : C-PCM and meta-GGA Hessian, CCSD/C-PCM, Gaussian charge scheme
   Tiago L. C. Gouveia    : GS-ROHF, GS-ROCIS
   Yang Guo               : DLPNO-NEVPT2, F12-NEVPT2, CIM, IAO-localization
   Andreas Hansen         : Spin unrestricted coupled pair/coupled cluster methods
   Ingolf Harden          : AUTO-CI MPn and infrastructure 
   Benjamin Helmich-Paris : MC-RPA, TRAH-(SCF,CASSCF), AVAS, COSX integrals, SCF dyn. polar.
   Lee Huntington         : MR-EOM, pCC
   Robert Izsak           : Overlap fitted RIJCOSX, COSX-SCS-MP3, EOM
   Riya Kayal             : Wick's Theorem for AUTO-CI, AUTO-CI UHF-CCSDT
   Emily Kempfer          : AUTO-CI, RHF CISDT and CCSDT
   Christian Kollmar      : KDIIS, OOCD, Brueckner-CCSD(T), CCSD density, CASPT2, CASPT2-K, improved NEVPT2
   Axel Koslowski         : Symmetry handling
   Simone Kossmann        : Meta GGA functionals, TD-DFT gradient, OOMP2, (MP2 Hessian; deprecated post 5.0)
   Lucas Lang             : DCDCAS
   Marvin Lechner         : AUTO-CI (C++ implementation), FIC-MRCC
   Spencer Leger          : CASSCF response
   Dagmar Lenk            : GEPOL surface, SMD, ORCA-2-JSON
   Dimitrios Liakos       : Extrapolation schemes; Compound Job, initial MDCI parallelization
   Dimitrios Manganas     : Further ROCIS development; embedding schemes. LFT, Crystal Embedding
   Dimitrios Pantazis     : SARC Basis sets
   Anastasios Papadopoulos: AUTO-CI, single reference methods and gradients
   Taras Petrenko         : pre 6.0 DFT Hessian and TD-DFT gradient, (ASA, deprecated), ECA, 1-Electron XAS/XES, NRVS
   Peter Pinski           : DLPNO-MP2, DLPNO-MP2 Gradient
   Christoph Reimann      : Effective Core Potentials
   Marius Retegan         : Local ZFS, SOC
   Christoph Riplinger    : Optimizer, TS searches, QM/MM, DLPNO-CCSD(T), (RO)-DLPNO pert. Triples
   Michael Roemelt        : Original ROCIS implementation
   Masaaki Saitow         : Open-shell DLPNO-CCSD energy and density
   Barbara Sandhoefer     : DKH picture change effects
   Kantharuban Sivalingam : CASSCF convergence/infrastructure, NEVPT2 and variants, FIC-MRCI
   Bernardo de Souza      : ESD, SOC TD-DFT
   Georgi Stoychev        : AutoAux, RI-MP2 NMR, DLPNO-MP2 response, X2C
   Van Anh Tran           : RI-MP2 g-tensors
   Willem Van den Heuvel  : Paramagnetic NMR
   Zikuan Wang            : NOTCH, Electric field optimization 
   Frank Wennmohs         : Technical directorship and infrastructure
   Hang Xu                : AUTO-CI-Response properties 


 We gratefully acknowledge several colleagues who have allowed us to
 interface, adapt or use parts of their codes:
   Stefan Grimme, W. Hujo, H. Kruse, P. Pracht,  : VdW corrections, initial TS optimization,
                  C. Bannwarth, S. Ehlert,         DFT functionals, gCP, sTDA/sTD-DF
                  L. Wittmann, M. Mueller
   Ed Valeev, F. Pavosevic, A. Kumar             : LibInt (2-el integral package), F12 methods
   Garnet Chan, S. Sharma, J. Yang, R. Olivares  : DMRG
   Ulf Ekstrom                                   : XCFun DFT Library
   Mihaly Kallay                                 : mrcc  (arbitrary order and MRCC methods)
   Frank Weinhold                                : gennbo (NPA and NBO analysis)
   Simon Mueller                                 : openCOSMO-RS
   Christopher J. Cramer and Donald G. Truhlar   : smd solvation model
   Lars Goerigk                                  : TD-DFT with DH, B97 family of functionals
   V. Asgeirsson, H. Jonsson                     : NEB implementation
   FAccTs GmbH                                   : IRC, NEB, NEB-TS, DLPNO-Multilevel, CI-OPT
                                                   MM, QMMM, 2- and 3-layer-ONIOM, Crystal-QMMM,
                                                   LR-CPCM, SF, NACMEs, symmetry and pop. for TD-DFT,
                                                   nearIR, NL-DFT gradient (VV10), updates on ESD,
                                                   ML-optimized integration grids, MBIS, APM,
                                                   GOAT, DOCKER, SOLVATOR, interface openCOSMO-RS
   S Lehtola, MJT Oliveira, MAL Marques          : LibXC Library
   Liviu Ungur et al                             : ANISO software


 Your calculation uses the libint2 library for the computation of 2-el integrals
 For citations please refer to: http://libint.valeyev.net

 Your ORCA version has been built with support for libXC version: 6.2.2
 For citations please refer to: https://libxc.gitlab.io

 This ORCA versions uses:
   CBLAS   interface :  Fast vector & matrix operations
   LAPACKE interface :  Fast linear algebra routines
   SCALAPACK package :  Parallel linear algebra routines
   Shared memory     :  Shared parallel matrices
   BLAS/LAPACK       :  OpenBLAS 0.3.27  USE64BITINT DYNAMIC_ARCH NO_AFFINITY Zen SINGLE_THREADED
        Core in use  :  Zen
   Copyright (c) 2011-2014, The OpenBLAS Project


Your calculation utilizes the atom-pairwise dispersion correction
with the Becke-Johnson damping scheme (D3BJ)


Warning: RI is on but no J-basis has been assigned. Assigning Def2/J (nothing to worry about!)
================================================================================

----- Orbital basis set information -----
Your calculation utilizes the basis: def2-TZVPPD
   F. Weigend and R. Ahlrichs, Phys. Chem. Chem. Phys. 7, 3297 (2005).
   D. Rappoport and F. Furche, J. Chem. Phys. 133, 134105 (2010)
   D. Rappoport, J. Chem. Phys. 155, 124102 (2021).

----- AuxJ basis set information -----
Your calculation utilizes the auxiliary basis: def2/J
   F. Weigend, Phys. Chem. Chem. Phys. 8, 1057 (2006).

================================================================================
                                        WARNINGS
                       Please study these warnings very carefully!
================================================================================

Using LibXC functional ID 531 : wB97M-V exchange-correlation functional
[ 1]  N. Mardirossian and M. Head-Gordon.,  J. Chem. Phys. 144, 214110 (2016)
Using LibXC functional ID 531 : wB97M-V exchange-correlation functional
[ 1]  N. Mardirossian and M. Head-Gordon.,  J. Chem. Phys. 144, 214110 (2016)

WARNING: B97M-V or wB97M-V functional requested.
  ===> : libXC variant has now been activated.
         Any manually given DFX/HFX/RangeSep scaling parameters are IGNORED!

Your calculation utilizes LibXC
 by S Lehtola, C Steigemann, MJT Oliveira & MAL Marques
Please cite in your paper:
 S Lehtola, C Steigemann, MJT Oliveira & MAL Marques, SoftwareX, 7, (2018), 1.
   


WARNING: your system is open-shell and RHF/RKS was chosen
  ===> : WILL SWITCH to UHF/UKS

INFO   : Checking CIS options ...

WARNING: CIS/ROCIS methods need fully converged wavefunctions
  ===> : Setting SCFConvForced true
         You can overwrite this default with %scf ConvForced false 


================================================================================
                                       INPUT FILE
================================================================================
NAME = orca.inp
|  1> ! Engrad def2-TZVPPD wB97M-D3BJ 
|  2> %pal nprocs 8 end%pal nprocs 64 end 
|  3> %tddft Nroots 2 Iroot 1 
|  4> sf true 
|  5> end 
|  6> *xyz 0 3 
|  7> O   2.60087882 1.15547825 -0.51880812
|  8> O   -0.58801088 0.87158408 -2.2816843
|  9> O   0.6426954 -2.82507342 -1.50813609
| 10> O   -2.53356011 -1.6328171 0.97670139
| 11> N   0.59798001 -2.09124727 0.64756219
| 12> N   -1.99883714 0.53467156 1.42850645
| 13> N   1.70347044 -0.87344486 -0.96693391
| 14> N   -1.62511352 -0.33402012 -0.66430642
| 15> C   1.4174433 0.07801889 1.22738383
| 16> C   -0.82906568 1.88795305 -0.16213263
| 17> C   0.78084584 -1.06185093 1.54271979
| 18> C   -1.3837298 1.70506655 1.07724105
| 19> C   1.67049433 1.18609952 2.19487156
| 20> C   -0.13235511 3.13586058 -0.56441068
| 21> C   1.96501275 0.20184082 -0.12392867
| 22> C   -0.98448397 0.82088099 -1.1305539
| 23> C   0.95866125 -1.99752859 -0.67916658
| 24> C   -2.09376704 -0.56424819 0.60381802
| 25> H   0.38070073 -1.23210093 2.5248886
| 26> H   -1.35113253 2.46433513 1.82818939
| 27> H   1.37121212 2.13319919 1.77343166
| 28> H   1.13681254 1.01649834 3.12503819
| 29> H   2.7335241 1.26472465 2.41369346
| 30> H   -0.60167895 3.5668213 -1.44911358
| 31> H   -0.16338312 3.87707257 0.23359536
| 32> H   0.90807921 2.92103059 -0.8204812
| 33> H   -0.04303046 -2.82978786 0.86646131
| 34> H   -2.36472121 0.40637534 2.35888873
| 35> H   1.95656984 -0.75320378 -1.93986957
| 36> H   -1.68591647 -1.1098648 -1.30461989
| 37> *
| 38> 
| 39>                          ****END OF INPUT****
================================================================================

                     *******************************
                     * Energy+Gradient Calculation *
                     *******************************

---------------------------------
CARTESIAN COORDINATES (ANGSTROEM)
---------------------------------
  O      2.600879    1.155478   -0.518808
  O     -0.588011    0.871584   -2.281684
  O      0.642695   -2.825073   -1.508136
  O     -2.533560   -1.632817    0.976701
  N      0.597980   -2.091247    0.647562
  N     -1.998837    0.534672    1.428506
  N      1.703470   -0.873445   -0.966934
  N     -1.625114   -0.334020   -0.664306
  C      1.417443    0.078019    1.227384
  C     -0.829066    1.887953   -0.162133
  C      0.780846   -1.061851    1.542720
  C     -1.383730    1.705067    1.077241
  C      1.670494    1.186100    2.194872
  C     -0.132355    3.135861   -0.564411
  C      1.965013    0.201841   -0.123929
  C     -0.984484    0.820881   -1.130554
  C      0.958661   -1.997529   -0.679167
  C     -2.093767   -0.564248    0.603818
  H      0.380701   -1.232101    2.524889
  H     -1.351133    2.464335    1.828189
  H      1.371212    2.133199    1.773432
  H      1.136813    1.016498    3.125038
  H      2.733524    1.264725    2.413693
  H     -0.601679    3.566821   -1.449114
  H     -0.163383    3.877073    0.233595
  H      0.908079    2.921031   -0.820481
  H     -0.043030   -2.829788    0.866461
  H     -2.364721    0.406375    2.358889
  H      1.956570   -0.753204   -1.939870
  H     -1.685916   -1.109865   -1.304620

----------------------------
CARTESIAN COORDINATES (A.U.)
----------------------------
  NO LB      ZA    FRAG     MASS         X           Y           Z
   0 O     8.0000    0    15.999    4.914949    2.183537   -0.980405
   1 O     8.0000    0    15.999   -1.111180    1.647055   -4.311758
   2 O     8.0000    0    15.999    1.214518   -5.338615   -2.849964
   3 O     8.0000    0    15.999   -4.787735   -3.085577    1.845698
   4 N     7.0000    0    14.007    1.130018   -3.951885    1.223715
   5 N     7.0000    0    14.007   -3.777255    1.010383    2.699486
   6 N     7.0000    0    14.007    3.219093   -1.650572   -1.827240
   7 N     7.0000    0    14.007   -3.071019   -0.631207   -1.255357
   8 C     6.0000    0    12.011    2.678580    0.147434    2.319419
   9 C     6.0000    0    12.011   -1.566707    3.567714   -0.306386
  10 C     6.0000    0    12.011    1.475585   -2.006607    2.915318
  11 C     6.0000    0    12.011   -2.614870    3.222109    2.035691
  12 C     6.0000    0    12.011    3.156777    2.241403    4.147706
  13 C     6.0000    0    12.011   -0.250115    5.925918   -1.066582
  14 C     6.0000    0    12.011    3.713336    0.381424   -0.234191
  15 C     6.0000    0    12.011   -1.860405    1.551240   -2.136437
  16 C     6.0000    0    12.011    1.811607   -3.774782   -1.283439
  17 C     6.0000    0    12.011   -3.956646   -1.066275    1.141051
  18 H     1.0000    0     1.008    0.719420   -2.328333    4.771348
  19 H     1.0000    0     1.008   -2.553270    4.656918    3.454777
  20 H     1.0000    0     1.008    2.591215    4.031162    3.351300
  21 H     1.0000    0     1.008    2.148264    1.920903    5.905466
  22 H     1.0000    0     1.008    5.165612    2.389983    4.561220
  23 H     1.0000    0     1.008   -1.137008    6.740315   -2.738428
  24 H     1.0000    0     1.008   -0.308749    7.326605    0.441431
  25 H     1.0000    0     1.008    1.716021    5.519948   -1.550485
  26 H     1.0000    0     1.008   -0.081316   -5.347524    1.637375
  27 H     1.0000    0     1.008   -4.468675    0.767938    4.457654
  28 H     1.0000    0     1.008    3.697381   -1.423349   -3.665822
  29 H     1.0000    0     1.008   -3.185920   -2.097341   -2.465374

--------------------------------
INTERNAL COORDINATES (ANGSTROEM)
--------------------------------
 O      0   0   0     0.000000000000     0.00000000     0.00000000
 O      1   0   0     3.654770286152     0.00000000     0.00000000
 O      2   1   0     3.972189755429    73.02349041     0.00000000
 O      3   2   1     4.205293271509    67.49320592   105.77551225
 N      3   2   1     2.277616157065    83.01510966    58.22265789
 N      4   3   2     2.277732108505   102.10372816   320.19741422
 N      1   2   3     2.263335483407    59.26350423     0.00000000
 N      2   1   3     2.268253640946    95.52553075    56.89444226
 C      1   2   3     2.368675712016    83.35733999   297.99092109
 C      2   1   3     2.362966902346    67.84814533   114.49733631
 C      9   1   2     1.343129293960   142.74231718    62.87632958
 C      6   4   3     1.368052942534   150.31188266    27.14621044
 C      9   1   2     1.492618509220    93.17856392   238.06116885
 C     10   2   1     1.484758044697    94.04917853    69.90648208
 C      1   2   3     1.212303504452    68.79904813   325.92378203
 C      2   1   3     1.218549511605    80.29704347    85.57896880
 C      3   2   1     1.213200442027    65.09943738    32.36536821
 C      4   3   2     1.214207341215    78.13964108   339.21420191
 H     11   9   1     1.074130691719   121.71920001   176.20606952
 H     12   6   4     1.068398225352   116.18237962   188.53697228
 H     13   9   1     1.078971369151   110.57540446    52.57093014
 H     13   9   1     1.085721314519   110.85558370   174.33291783
 H     13   9   1     1.088162316428   110.46311577   294.78020419
 H     14  10   2     1.090271172802   110.49247998    54.79670357
 H     14  10   2     1.089574041266   111.09772058   174.96370699
 H     14  10   2     1.092807215409   110.18269645   296.39568667
 H      5   3   2     1.002124468549    88.96026673   122.14325254
 H      6   4   3     1.007939611130    88.66780138   216.24246508
 H      7   1   2     1.012482603357    89.12247583    73.50641733
 H      8   2   1     1.007786339497    89.06734290   245.00764357

---------------------------
INTERNAL COORDINATES (A.U.)
---------------------------
 O      0   0   0     0.000000000000     0.00000000     0.00000000
 O      1   0   0     6.906514923220     0.00000000     0.00000000
 O      2   1   0     7.506350789728    73.02349041     0.00000000
 O      3   2   1     7.946852595974    67.49320592   105.77551225
 N      3   2   1     4.304070775046    83.01510966    58.22265789
 N      4   3   2     4.304289891514   102.10372816   320.19741422
 N      1   2   3     4.277084212826    59.26350423     0.00000000
 N      2   1   3     4.286378183658    95.52553075    56.89444226
 C      1   2   3     4.476148395781    83.35733999   297.99092109
 C      2   1   3     4.465360308954    67.84814533   114.49733631
 C      9   1   2     2.538146528032   142.74231718    62.87632958
 C      6   4   3     2.585245398095   150.31188266    27.14621044
 C      9   1   2     2.820640204847    93.17856392   238.06116885
 C     10   2   1     2.805786079614    94.04917853    69.90648208
 C      1   2   3     2.290921614607    68.79904813   325.92378203
 C      2   1   3     2.302724857558    80.29704347    85.57896880
 C      3   2   1     2.292616580984    65.09943738    32.36536821
 C      4   3   2     2.294519344694    78.13964108   339.21420191
 H     11   9   1     2.029812839389   121.71920001   176.20606952
 H     12   6   4     2.018980047883   116.18237962   188.53697228
 H     13   9   1     2.038960394038   110.57540446    52.57093014
 H     13   9   1     2.051715942202   110.85558370   174.33291783
 H     13   9   1     2.056328767302   110.46311577   294.78020419
 H     14  10   2     2.060313928305   110.49247998    54.79670357
 H     14  10   2     2.058996540623   111.09772058   174.96370699
 H     14  10   2     2.065106354296   110.18269645   296.39568667
 H      5   3   2     1.893740797658    88.96026673   122.14325254
 H      6   4   3     1.904729824566    88.66780138   216.24246508
 H      7   1   2     1.913314835703    89.12247583    73.50641733
 H      8   2   1     1.904440183156    89.06734290   245.00764357

---------------------
BASIS SET INFORMATION
---------------------
There are 4 groups of distinct atoms

 Group   1 Type O   : 12s7p3d1f contracted to 6s4p3d1f pattern {621111/4111/111/1}
 Group   2 Type N   : 12s6p3d1f contracted to 6s3p3d1f pattern {621111/411/111/1}
 Group   3 Type C   : 12s6p3d1f contracted to 6s3p3d1f pattern {621111/411/111/1}
 Group   4 Type H   : 5s3p1d contracted to 3s3p1d pattern {311/111/1}

Atom   0O    basis set group =>   1
Atom   1O    basis set group =>   1
Atom   2O    basis set group =>   1
Atom   3O    basis set group =>   1
Atom   4N    basis set group =>   2
Atom   5N    basis set group =>   2
Atom   6N    basis set group =>   2
Atom   7N    basis set group =>   2
Atom   8C    basis set group =>   3
Atom   9C    basis set group =>   3
Atom  10C    basis set group =>   3
Atom  11C    basis set group =>   3
Atom  12C    basis set group =>   3
Atom  13C    basis set group =>   3
Atom  14C    basis set group =>   3
Atom  15C    basis set group =>   3
Atom  16C    basis set group =>   3
Atom  17C    basis set group =>   3
Atom  18H    basis set group =>   4
Atom  19H    basis set group =>   4
Atom  20H    basis set group =>   4
Atom  21H    basis set group =>   4
Atom  22H    basis set group =>   4
Atom  23H    basis set group =>   4
Atom  24H    basis set group =>   4
Atom  25H    basis set group =>   4
Atom  26H    basis set group =>   4
Atom  27H    basis set group =>   4
Atom  28H    basis set group =>   4
Atom  29H    basis set group =>   4
---------------------------------
AUXILIARY/J BASIS SET INFORMATION
---------------------------------
There are 4 groups of distinct atoms

 Group   1 Type O   : 12s5p4d2f1g contracted to 6s4p3d1f1g pattern {711111/2111/211/2/1}
 Group   2 Type N   : 12s5p4d2f1g contracted to 6s4p3d1f1g pattern {711111/2111/211/2/1}
 Group   3 Type C   : 12s5p4d2f1g contracted to 6s4p3d1f1g pattern {711111/2111/211/2/1}
 Group   4 Type H   : 5s2p1d contracted to 3s1p1d pattern {311/2/1}

Atom   0O    basis set group =>   1
Atom   1O    basis set group =>   1
Atom   2O    basis set group =>   1
Atom   3O    basis set group =>   1
Atom   4N    basis set group =>   2
Atom   5N    basis set group =>   2
Atom   6N    basis set group =>   2
Atom   7N    basis set group =>   2
Atom   8C    basis set group =>   3
Atom   9C    basis set group =>   3
Atom  10C    basis set group =>   3
Atom  11C    basis set group =>   3
Atom  12C    basis set group =>   3
Atom  13C    basis set group =>   3
Atom  14C    basis set group =>   3
Atom  15C    basis set group =>   3
Atom  16C    basis set group =>   3
Atom  17C    basis set group =>   3
Atom  18H    basis set group =>   4
Atom  19H    basis set group =>   4
Atom  20H    basis set group =>   4
Atom  21H    basis set group =>   4
Atom  22H    basis set group =>   4
Atom  23H    basis set group =>   4
Atom  24H    basis set group =>   4
Atom  25H    basis set group =>   4
Atom  26H    basis set group =>   4
Atom  27H    basis set group =>   4
Atom  28H    basis set group =>   4
Atom  29H    basis set group =>   4
[1739902213.525197] [ohm:336671:0]        ib_iface.c:1059 UCX  ERROR ibv_create_cq(cqe=256) failed: Connection timed out
[1739902213.538023] [ohm:336673:0]        ib_iface.c:1059 UCX  ERROR ibv_create_cq(cqe=256) failed: Connection timed out
[1739902213.542619] [ohm:336679:0]        ib_iface.c:1059 UCX  ERROR ibv_create_cq(cqe=256) failed: Connection timed out
[1739902213.543728] [ohm:336672:0]        ib_iface.c:1059 UCX  ERROR ibv_create_cq(cqe=256) failed: Connection timed out
[1739902213.543882] [ohm:336674:0]        ib_iface.c:1059 UCX  ERROR ibv_create_cq(cqe=256) failed: Connection timed out
[1739902213.556509] [ohm:336670:0]        ib_iface.c:1059 UCX  ERROR ibv_create_cq(cqe=256) failed: Connection timed out
[1739902213.574906] [ohm:336675:0]        ib_iface.c:1059 UCX  ERROR ibv_create_cq(cqe=256) failed: Connection timed out
[1739902213.578485] [ohm:336682:0]        ib_iface.c:1059 UCX  ERROR ibv_create_cq(cqe=256) failed: Connection timed out
[1739902213.588910] [ohm:336687:0]        ib_iface.c:1059 UCX  ERROR ibv_create_cq(cqe=256) failed: Connection timed out
[1739902213.589425] [ohm:336677:0]        ib_iface.c:1059 UCX  ERROR ibv_create_cq(cqe=256) failed: Connection timed out
[1739902213.606072] [ohm:336678:0]        ib_iface.c:1059 UCX  ERROR ibv_create_cq(cqe=256) failed: Connection timed out
[1739902213.619774] [ohm:336691:0]        ib_iface.c:1059 UCX  ERROR ibv_create_cq(cqe=256) failed: Connection timed out
[1739902213.620052] [ohm:336680:0]        ib_iface.c:1059 UCX  ERROR ibv_create_cq(cqe=256) failed: Connection timed out
[1739902213.635370] [ohm:336698:0]        ib_iface.c:1059 UCX  ERROR ibv_create_cq(cqe=256) failed: Connection timed out
[1739902213.648282] [ohm:336685:0]        ib_iface.c:1059 UCX  ERROR ibv_create_cq(cqe=256) failed: Connection timed out
[1739902213.654408] [ohm:336719:0]        ib_iface.c:1059 UCX  ERROR ibv_create_cq(cqe=256) failed: Connection timed out
[1739902213.671722] [ohm:336781:0]        ib_iface.c:1059 UCX  ERROR ibv_create_cq(cqe=256) failed: Connection timed out
[1739902213.683592] [ohm:336676:0]        ib_iface.c:1059 UCX  ERROR ibv_create_cq(cqe=256) failed: Connection timed out
[1739902213.717406] [ohm:336694:0]        ib_iface.c:1059 UCX  ERROR ibv_create_cq(cqe=256) failed: Connection timed out
[1739902213.723991] [ohm:336700:0]        ib_iface.c:1059 UCX  ERROR ibv_create_cq(cqe=256) failed: Connection timed out
[1739902213.727173] [ohm:336697:0]        ib_iface.c:1059 UCX  ERROR ibv_create_cq(cqe=256) failed: Connection timed out
[1739902213.730229] [ohm:336729:0]        ib_iface.c:1059 UCX  ERROR ibv_create_cq(cqe=256) failed: Connection timed out
[1739902213.730868] [ohm:336681:0]        ib_iface.c:1059 UCX  ERROR ibv_create_cq(cqe=256) failed: Connection timed out
[1739902213.736442] [ohm:336695:0]        ib_iface.c:1059 UCX  ERROR ibv_create_cq(cqe=256) failed: Connection timed out
[1739902213.738197] [ohm:336696:0]        ib_iface.c:1059 UCX  ERROR ibv_create_cq(cqe=256) failed: Connection timed out
[1739902213.739901] [ohm:336730:0]        ib_iface.c:1059 UCX  ERROR ibv_create_cq(cqe=256) failed: Connection timed out
[1739902213.753677] [ohm:336774:0]        ib_iface.c:1059 UCX  ERROR ibv_create_cq(cqe=256) failed: Connection timed out
[1739902213.761302] [ohm:336823:0]        ib_iface.c:1059 UCX  ERROR ibv_create_cq(cqe=256) failed: Connection timed out
[1739902213.763507] [ohm:336723:0]        ib_iface.c:1059 UCX  ERROR ibv_create_cq(cqe=256) failed: Connection timed out
[1739902213.776367] [ohm:336718:0]        ib_iface.c:1059 UCX  ERROR ibv_create_cq(cqe=256) failed: Connection timed out
[1739902213.776947] [ohm:336725:0]        ib_iface.c:1059 UCX  ERROR ibv_create_cq(cqe=256) failed: Connection timed out
[1739902213.785845] [ohm:336736:0]        ib_iface.c:1059 UCX  ERROR ibv_create_cq(cqe=256) failed: Connection timed out
[1739902213.795303] [ohm:336784:0]        ib_iface.c:1059 UCX  ERROR ibv_create_cq(cqe=256) failed: Connection timed out
[1739902213.795561] [ohm:336798:0]        ib_iface.c:1059 UCX  ERROR ibv_create_cq(cqe=256) failed: Connection timed out
[1739902213.795607] [ohm:336721:0]        ib_iface.c:1059 UCX  ERROR ibv_create_cq(cqe=256) failed: Connection timed out
[1739902213.798201] [ohm:336788:0]        ib_iface.c:1059 UCX  ERROR ibv_create_cq(cqe=256) failed: Connection timed out
[1739902213.799668] [ohm:336710:0]        ib_iface.c:1059 UCX  ERROR ibv_create_cq(cqe=256) failed: Connection timed out
[1739902213.800717] [ohm:336726:0]        ib_iface.c:1059 UCX  ERROR ibv_create_cq(cqe=256) failed: Connection timed out
[1739902213.815821] [ohm:336795:0]        ib_iface.c:1059 UCX  ERROR ibv_create_cq(cqe=256) failed: Connection timed out
[1739902213.838075] [ohm:336715:0]        ib_iface.c:1059 UCX  ERROR ibv_create_cq(cqe=256) failed: Connection timed out
[1739902213.842609] [ohm:336703:0]        ib_iface.c:1059 UCX  ERROR ibv_create_cq(cqe=256) failed: Connection timed out
[1739902213.843705] [ohm:336724:0]        ib_iface.c:1059 UCX  ERROR ibv_create_cq(cqe=256) failed: Connection timed out
[1739902213.844162] [ohm:336720:0]        ib_iface.c:1059 UCX  ERROR ibv_create_cq(cqe=256) failed: Connection timed out
[1739902213.847324] [ohm:336733:0]        ib_iface.c:1059 UCX  ERROR ibv_create_cq(cqe=256) failed: Connection timed out
[1739902213.849912] [ohm:336727:0]        ib_iface.c:1059 UCX  ERROR ibv_create_cq(cqe=256) failed: Connection timed out
[1739902213.850500] [ohm:336760:0]        ib_iface.c:1059 UCX  ERROR ibv_create_cq(cqe=256) failed: Connection timed out
[1739902213.852138] [ohm:336778:0]        ib_iface.c:1059 UCX  ERROR ibv_create_cq(cqe=256) failed: Connection timed out
[1739902213.852155] [ohm:336802:0]        ib_iface.c:1059 UCX  ERROR ibv_create_cq(cqe=256) failed: Connection timed out
[1739902213.859067] [ohm:336771:0]        ib_iface.c:1059 UCX  ERROR ibv_create_cq(cqe=256) failed: Connection timed out
[1739902213.859992] [ohm:336819:0]        ib_iface.c:1059 UCX  ERROR ibv_create_cq(cqe=256) failed: Connection timed out
[1739902213.860512] [ohm:336707:0]        ib_iface.c:1059 UCX  ERROR ibv_create_cq(cqe=256) failed: Connection timed out
[1739902213.866128] [ohm:336807:0]        ib_iface.c:1059 UCX  ERROR ibv_create_cq(cqe=256) failed: Connection timed out
[1739902213.866281] [ohm:336794:0]        ib_iface.c:1059 UCX  ERROR ibv_create_cq(cqe=256) failed: Connection timed out
[1739902213.866967] [ohm:336758:0]        ib_iface.c:1059 UCX  ERROR ibv_create_cq(cqe=256) failed: Connection timed out
[1739902213.866969] [ohm:336751:0]        ib_iface.c:1059 UCX  ERROR ibv_create_cq(cqe=256) failed: Connection timed out
[1739902213.869576] [ohm:336790:0]        ib_iface.c:1059 UCX  ERROR ibv_create_cq(cqe=256) failed: Connection timed out
[1739902213.869589] [ohm:336767:0]        ib_iface.c:1059 UCX  ERROR ibv_create_cq(cqe=256) failed: Connection timed out
[1739902213.871181] [ohm:336754:0]        ib_iface.c:1059 UCX  ERROR ibv_create_cq(cqe=256) failed: Connection timed out
[1739902213.871492] [ohm:336742:0]        ib_iface.c:1059 UCX  ERROR ibv_create_cq(cqe=256) failed: Connection timed out
[1739902213.872135] [ohm:336722:0]        ib_iface.c:1059 UCX  ERROR ibv_create_cq(cqe=256) failed: Connection timed out
[1739902213.872606] [ohm:336763:0]        ib_iface.c:1059 UCX  ERROR ibv_create_cq(cqe=256) failed: Connection timed out
[1739902213.875911] [ohm:336828:0]        ib_iface.c:1059 UCX  ERROR ibv_create_cq(cqe=256) failed: Connection timed out
[1739902213.877967] [ohm:336747:0]        ib_iface.c:1059 UCX  ERROR ibv_create_cq(cqe=256) failed: Connection timed out
[1739902213.879192] [ohm:336814:0]        ib_iface.c:1059 UCX  ERROR ibv_create_cq(cqe=256) failed: Connection timed out


           ************************************************************
           *        Program running with 64 parallel MPI-processes    *
           *              working on a common directory               *
           ************************************************************
------------------------------------------------------------------------------
                             ORCA STARTUP CALCULATIONS
                           -- RI-GTO INTEGRALS CHOSEN --
------------------------------------------------------------------------------
------------------------------------------------------------------------------
                   ___                                                        
                  /   \      - P O W E R E D   B Y -                         
                 /     \                                                     
                 |  |  |   _    _      __       _____    __    __             
                 |  |  |  | |  | |    /  \     |  _  \  |  |  /  |          
                  \  \/   | |  | |   /    \    | | | |  |  | /  /          
                 / \  \   | |__| |  /  /\  \   | |_| |  |  |/  /          
                |  |  |   |  __  | /  /__\  \  |    /   |      \           
                |  |  |   | |  | | |   __   |  |    \   |  |\   \          
                \     /   | |  | | |  |  |  |  | |\  \  |  | \   \       
                 \___/    |_|  |_| |__|  |__|  |_| \__\ |__|  \__/        
                                                                              
                      - O R C A' S   B I G   F R I E N D -                    
                                      &                                       
                       - I N T E G R A L  F E E D E R -                       
                                                                              
 v1 FN, 2020, v2 2021, v3 2022-2024                                           
------------------------------------------------------------------------------


----------------------
SHARK INTEGRAL PACKAGE
----------------------

Number of atoms                             ...     30
Number of basis functions                   ...    882
Number of shells                            ...    322
Maximum angular momentum                    ...      3
Integral batch strategy                     ... SHARK/LIBINT Hybrid
RI-J (if used) integral strategy            ... SPLIT-RIJ (Revised 2003 algorithm where possible)
Printlevel                                  ...      1
Contraction scheme used                     ... SEGMENTED contraction
Prescreening option                         ... SCHWARTZ
   Thresh                                   ... 2.500e-11
   Tcut                                     ... 2.500e-12
   Tpresel                                  ... 2.500e-12 
Coulomb Range Separation                    ... NOT USED
Exchange Range Separation                   ... Long Range
   Mu parameter                             ... 3.000e-01
   Scaling (regular/separated)              ... 1.500e-01 8.500e-01
Multipole approximations                    ... NOT USED
Finite Nucleus Model                        ... NOT USED
CABS basis                                  ... NOT available
Auxiliary Coulomb fitting basis             ... AVAILABLE
   # of basis functions in Aux-J            ...   1014
   # of shells in Aux-J                     ...    330
   Maximum angular momentum in Aux-J        ...      4
Auxiliary J/K fitting basis                 ... NOT available
Auxiliary Correlation fitting basis         ... NOT available
Auxiliary 'external' fitting basis          ... NOT available

Checking pre-screening integrals            ... done (  0.0 sec) Dimension = 322
Check shell pair data                       ... done (  0.0 sec)
Shell pair information
Shell pair cut-off parameter TPreSel        ...   2.5e-12
Total number of shell pairs                 ...     52003
Shell pairs after pre-screening             ...     45376
Total number of primitive shell pairs       ...    129718
Primitive shell pairs kept                  ...     84535
          la=0 lb=0:   8770 shell pairs
          la=1 lb=0:  11972 shell pairs
          la=1 lb=1:   4139 shell pairs
          la=2 lb=0:   8154 shell pairs
          la=2 lb=1:   5635 shell pairs
          la=2 lb=2:   1944 shell pairs
          la=3 lb=0:   2087 shell pairs
          la=3 lb=1:   1502 shell pairs
          la=3 lb=2:   1025 shell pairs
          la=3 lb=3:    148 shell pairs

Calculating one electron integrals          ... done (  0.2 sec)
Calculating RI/J V-Matrix + Cholesky decomp.... done (  0.1 sec)
Calculating Nuclear repulsion               ... done (  0.0 sec) ENN=   1456.733338207496 Eh

Diagonalization of the overlap matrix:
Smallest eigenvalue                        ... 4.919e-07
Time for diagonalization                   ...    0.128 sec
Threshold for overlap eigenvalues          ... 1.000e-07
Number of eigenvalues below threshold      ... 0

IMPORTANT:
Smallest eigenvalue of S below the DiffSThresh (1.000e-06) while
Thresh>1e-12 and/or TCut>1e-13! In order to avoid SCF convergence issues,
Thresh will be set to at least 1e-12 and TCut to at least 1e-13.
This can be turned off by adding %SCF DiffSThresh -1 END to the input.

Time for construction of square roots      ...    0.136 sec
Total time needed                          ...    0.276 sec

-------------------
DFT GRID GENERATION
-------------------

General Integration Accuracy     IntAcc      ... 4.388
Radial Grid Type                 RadialGrid  ... OptM3 with GC (2021)
Angular Grid (max. ang.)         AngularGrid ... 4 (Lebedev-302)
Angular grid pruning method      GridPruning ... 4 (adaptive)
Weight generation scheme         WeightScheme... mBecke (2022)
Basis function cutoff            BFCut       ... 1.0000e-11
Integration weight cutoff        WCut        ... 1.0000e-14
Partially contracted basis set               ... off
Rotationally invariant grid construction     ... off
Angular grids for H and He will be reduced by one unit
Diffuse basis detected: some atoms will have their outermost
                        angular grid increased by 1.

Total number of grid points                  ...   152083
Total number of batches                      ...     2391
Average number of points per batch           ...       63
Average number of grid points per atom       ...     5069

--------------------
COSX GRID GENERATION
--------------------

GRIDX 1
-------
General Integration Accuracy     IntAcc      ... 3.816
Radial Grid Type                 RadialGrid  ... OptM3 with GC (2021)
Angular Grid (max. ang.)         AngularGrid ... 1 (Lebedev-50)
Angular grid pruning method      GridPruning ... 4 (adaptive)
Weight generation scheme         WeightScheme... mBecke (2022)
Basis function cutoff            BFCut       ... 1.0000e-11
Integration weight cutoff        WCut        ... 1.0000e-14
Partially contracted basis set               ... on
Rotationally invariant grid construction     ... off
Angular grids for H and He will be reduced by one unit
Diffuse basis detected: some atoms will have their outermost
                        angular grid increased by 1.

Total number of grid points                  ...    19030
Total number of batches                      ...      164
Average number of points per batch           ...      116
Average number of grid points per atom       ...      634
UseSFitting                                  ... on

GRIDX 2
-------
General Integration Accuracy     IntAcc      ... 4.020
Radial Grid Type                 RadialGrid  ... OptM3 with GC (2021)
Angular Grid (max. ang.)         AngularGrid ... 2 (Lebedev-110)
Angular grid pruning method      GridPruning ... 4 (adaptive)
Weight generation scheme         WeightScheme... mBecke (2022)
Basis function cutoff            BFCut       ... 1.0000e-11
Integration weight cutoff        WCut        ... 1.0000e-14
Partially contracted basis set               ... on
Rotationally invariant grid construction     ... off
Angular grids for H and He will be reduced by one unit
Diffuse basis detected: some atoms will have their outermost
                        angular grid increased by 1.

Total number of grid points                  ...    45837
Total number of batches                      ...      375
Average number of points per batch           ...      122
Average number of grid points per atom       ...     1528
UseSFitting                                  ... on

GRIDX 3
-------
General Integration Accuracy     IntAcc      ... 4.338
Radial Grid Type                 RadialGrid  ... OptM3 with GC (2021)
Angular Grid (max. ang.)         AngularGrid ... 3 (Lebedev-194)
Angular grid pruning method      GridPruning ... 4 (adaptive)
Weight generation scheme         WeightScheme... mBecke (2022)
Basis function cutoff            BFCut       ... 1.0000e-11
Integration weight cutoff        WCut        ... 1.0000e-14
Partially contracted basis set               ... on
Rotationally invariant grid construction     ... off
Angular grids for H and He will be reduced by one unit
Diffuse basis detected: some atoms will have their outermost
                        angular grid increased by 1.

Total number of grid points                  ...   100949
Total number of batches                      ...      803
Average number of points per batch           ...      125
Average number of grid points per atom       ...     3365
UseSFitting                                  ... on
Initializing property integral containers    ... done (  0.0 sec)

SHARK setup successfully completed in   4.2 seconds

Maximum memory used throughout the entire STARTUP-calculation: 80.5 MB
[1739902219.865455] [ohm:337056:0]        ib_iface.c:1059 UCX  ERROR ibv_create_cq(cqe=256) failed: Connection timed out
[1739902219.870710] [ohm:337053:0]        ib_iface.c:1059 UCX  ERROR ibv_create_cq(cqe=256) failed: Connection timed out
[1739902219.881067] [ohm:337055:0]        ib_iface.c:1059 UCX  ERROR ibv_create_cq(cqe=256) failed: Connection timed out
[1739902219.925566] [ohm:337057:0]        ib_iface.c:1059 UCX  ERROR ibv_create_cq(cqe=256) failed: Connection timed out
[1739902219.935389] [ohm:337059:0]        ib_iface.c:1059 UCX  ERROR ibv_create_cq(cqe=256) failed: Connection timed out
[1739902219.939755] [ohm:337066:0]        ib_iface.c:1059 UCX  ERROR ibv_create_cq(cqe=256) failed: Connection timed out
[1739902219.953865] [ohm:337062:0]        ib_iface.c:1059 UCX  ERROR ibv_create_cq(cqe=256) failed: Connection timed out
[1739902219.960056] [ohm:337067:0]        ib_iface.c:1059 UCX  ERROR ibv_create_cq(cqe=256) failed: Connection timed out
[1739902219.965820] [ohm:337060:0]        ib_iface.c:1059 UCX  ERROR ibv_create_cq(cqe=256) failed: Connection timed out
[1739902220.016311] [ohm:337083:0]        ib_iface.c:1059 UCX  ERROR ibv_create_cq(cqe=256) failed: Connection timed out
[1739902220.021175] [ohm:337054:0]        ib_iface.c:1059 UCX  ERROR ibv_create_cq(cqe=256) failed: Connection timed out
[1739902220.021972] [ohm:337070:0]        ib_iface.c:1059 UCX  ERROR ibv_create_cq(cqe=256) failed: Connection timed out
[1739902220.022710] [ohm:337081:0]        ib_iface.c:1059 UCX  ERROR ibv_create_cq(cqe=256) failed: Connection timed out
[1739902220.027607] [ohm:337077:0]        ib_iface.c:1059 UCX  ERROR ibv_create_cq(cqe=256) failed: Connection timed out
[1739902220.029225] [ohm:337075:0]        ib_iface.c:1059 UCX  ERROR ibv_create_cq(cqe=256) failed: Connection timed out
[1739902220.030678] [ohm:337080:0]        ib_iface.c:1059 UCX  ERROR ibv_create_cq(cqe=256) failed: Connection timed out
[1739902220.036283] [ohm:337140:0]        ib_iface.c:1059 UCX  ERROR ibv_create_cq(cqe=256) failed: Connection timed out
[1739902220.038059] [ohm:337078:0]        ib_iface.c:1059 UCX  ERROR ibv_create_cq(cqe=256) failed: Connection timed out
[1739902220.041922] [ohm:337145:0]        ib_iface.c:1059 UCX  ERROR ibv_create_cq(cqe=256) failed: Connection timed out
[1739902220.074189] [ohm:337126:0]        ib_iface.c:1059 UCX  ERROR ibv_create_cq(cqe=256) failed: Connection timed out
[1739902220.084677] [ohm:337203:0]        ib_iface.c:1059 UCX  ERROR ibv_create_cq(cqe=256) failed: Connection timed out
[1739902220.090477] [ohm:337063:0]        ib_iface.c:1059 UCX  ERROR ibv_create_cq(cqe=256) failed: Connection timed out
[1739902220.097693] [ohm:337110:0]        ib_iface.c:1059 UCX  ERROR ibv_create_cq(cqe=256) failed: Connection timed out
[1739902220.110117] [ohm:337102:0]        ib_iface.c:1059 UCX  ERROR ibv_create_cq(cqe=256) failed: Connection timed out
[1739902220.110334] [ohm:337116:0]        ib_iface.c:1059 UCX  ERROR ibv_create_cq(cqe=256) failed: Connection timed out
[1739902220.116751] [ohm:337068:0]        ib_iface.c:1059 UCX  ERROR ibv_create_cq(cqe=256) failed: Connection timed out
[1739902220.125687] [ohm:337132:0]        ib_iface.c:1059 UCX  ERROR ibv_create_cq(cqe=256) failed: Connection timed out
[1739902220.125804] [ohm:337108:0]        ib_iface.c:1059 UCX  ERROR ibv_create_cq(cqe=256) failed: Connection timed out
[1739902220.126328] [ohm:337073:0]        ib_iface.c:1059 UCX  ERROR ibv_create_cq(cqe=256) failed: Connection timed out
[1739902220.128154] [ohm:337061:0]        ib_iface.c:1059 UCX  ERROR ibv_create_cq(cqe=256) failed: Connection timed out
[1739902220.130723] [ohm:337143:0]        ib_iface.c:1059 UCX  ERROR ibv_create_cq(cqe=256) failed: Connection timed out
[1739902220.145444] [ohm:337135:0]        ib_iface.c:1059 UCX  ERROR ibv_create_cq(cqe=256) failed: Connection timed out
[1739902220.150835] [ohm:337071:0]        ib_iface.c:1059 UCX  ERROR ibv_create_cq(cqe=256) failed: Connection timed out
[1739902220.157027] [ohm:337072:0]        ib_iface.c:1059 UCX  ERROR ibv_create_cq(cqe=256) failed: Connection timed out
[1739902220.157277] [ohm:337098:0]        ib_iface.c:1059 UCX  ERROR ibv_create_cq(cqe=256) failed: Connection timed out
[1739902220.157277] [ohm:337172:0]        ib_iface.c:1059 UCX  ERROR ibv_create_cq(cqe=256) failed: Connection timed out
[1739902220.159036] [ohm:337064:0]        ib_iface.c:1059 UCX  ERROR ibv_create_cq(cqe=256) failed: Connection timed out
[1739902220.167373] [ohm:337079:0]        ib_iface.c:1059 UCX  ERROR ibv_create_cq(cqe=256) failed: Connection timed out
[1739902220.173548] [ohm:337065:0]        ib_iface.c:1059 UCX  ERROR ibv_create_cq(cqe=256) failed: Connection timed out
[1739902220.176065] [ohm:337094:0]        ib_iface.c:1059 UCX  ERROR ibv_create_cq(cqe=256) failed: Connection timed out
[1739902220.187140] [ohm:337160:0]        ib_iface.c:1059 UCX  ERROR ibv_create_cq(cqe=256) failed: Connection timed out
[1739902220.187256] [ohm:337069:0]        ib_iface.c:1059 UCX  ERROR ibv_create_cq(cqe=256) failed: Connection timed out
[1739902220.189110] [ohm:337196:0]        ib_iface.c:1059 UCX  ERROR ibv_create_cq(cqe=256) failed: Connection timed out
[1739902220.190625] [ohm:337122:0]        ib_iface.c:1059 UCX  ERROR ibv_create_cq(cqe=256) failed: Connection timed out
[1739902220.191305] [ohm:337165:0]        ib_iface.c:1059 UCX  ERROR ibv_create_cq(cqe=256) failed: Connection timed out
[1739902220.191565] [ohm:337089:0]        ib_iface.c:1059 UCX  ERROR ibv_create_cq(cqe=256) failed: Connection timed out
[1739902220.204944] [ohm:337178:0]        ib_iface.c:1059 UCX  ERROR ibv_create_cq(cqe=256) failed: Connection timed out
[1739902220.206234] [ohm:337169:0]        ib_iface.c:1059 UCX  ERROR ibv_create_cq(cqe=256) failed: Connection timed out
[1739902220.206612] [ohm:337184:0]        ib_iface.c:1059 UCX  ERROR ibv_create_cq(cqe=256) failed: Connection timed out
[1739902220.214677] [ohm:337208:0]        ib_iface.c:1059 UCX  ERROR ibv_create_cq(cqe=256) failed: Connection timed out
[1739902220.218542] [ohm:337188:0]        ib_iface.c:1059 UCX  ERROR ibv_create_cq(cqe=256) failed: Connection timed out
[1739902220.219450] [ohm:337112:0]        ib_iface.c:1059 UCX  ERROR ibv_create_cq(cqe=256) failed: Connection timed out
[1739902220.222982] [ohm:337137:0]        ib_iface.c:1059 UCX  ERROR ibv_create_cq(cqe=256) failed: Connection timed out
[1739902220.235263] [ohm:337117:0]        ib_iface.c:1059 UCX  ERROR ibv_create_cq(cqe=256) failed: Connection timed out
[1739902220.236644] [ohm:337176:0]        ib_iface.c:1059 UCX  ERROR ibv_create_cq(cqe=256) failed: Connection timed out
[1739902220.242050] [ohm:337181:0]        ib_iface.c:1059 UCX  ERROR ibv_create_cq(cqe=256) failed: Connection timed out
[1739902220.242114] [ohm:337076:0]        ib_iface.c:1059 UCX  ERROR ibv_create_cq(cqe=256) failed: Connection timed out
[1739902220.242190] [ohm:337058:0]        ib_iface.c:1059 UCX  ERROR ibv_create_cq(cqe=256) failed: Connection timed out
[1739902220.243110] [ohm:337150:0]        ib_iface.c:1059 UCX  ERROR ibv_create_cq(cqe=256) failed: Connection timed out
[1739902220.243637] [ohm:337087:0]        ib_iface.c:1059 UCX  ERROR ibv_create_cq(cqe=256) failed: Connection timed out
[1739902220.245004] [ohm:337104:0]        ib_iface.c:1059 UCX  ERROR ibv_create_cq(cqe=256) failed: Connection timed out
[1739902220.245800] [ohm:337153:0]        ib_iface.c:1059 UCX  ERROR ibv_create_cq(cqe=256) failed: Connection timed out
[1739902220.246594] [ohm:337074:0]        ib_iface.c:1059 UCX  ERROR ibv_create_cq(cqe=256) failed: Connection timed out
[1739902220.247384] [ohm:337156:0]        ib_iface.c:1059 UCX  ERROR ibv_create_cq(cqe=256) failed: Connection timed out


           ************************************************************
           *        Program running with 64 parallel MPI-processes    *
           *              working on a common directory               *
           ************************************************************
-------------------------------------------------------------------------------
                                 ORCA GUESS
                   Start orbitals & Density for SCF / CASSCF
-------------------------------------------------------------------------------

------------
SCF SETTINGS
------------
Hamiltonian:
 Density Functional     Method          .... DFT(GTOs)
  Functional kind                       .... Exchange-Correlation
  Functional name                       .... wB97M-V exchange-correlation functional
  Functional family                     .... Hybrid MGGA
  Functional refs                              
    [ 0] N. Mardirossian and M. Head-Gordon.,  J. Chem. Phys. 144, 214110 (2016), doi: 10.1063/1.4952647
  Fraction of HF Exchange (short range) .... 0.1500
  Fraction of HF Exchange (long range)  .... 1.0000
  Range separation parameter mu         .... 0.3000
  Functional external parameters        .... 17
    Parameter  0 _cx00      =  8.500000e-01 : u^00 coefficient for exchange
    Parameter  1 _cx01      =  1.007000e+00 : u^01 coefficient for exchange
    Parameter  2 _cx10      =  2.590000e-01 : u^10 coefficient for exchange
    Parameter  3 _css00     =  4.430000e-01 : u^00 coefficient for same-spin correlation
    Parameter  4 _css04     = -1.437000e+00 : u^04 coefficient for same-spin correlation
    Parameter  5 _css10     = -4.535000e+00 : u^10 coefficient for same-spin correlation
    Parameter  6 _css20     = -3.390000e+00 : u^20 coefficient for same-spin correlation
    Parameter  7 _css43     =  4.278000e+00 : u^43 coefficient for same-spin correlation
    Parameter  8 _cos00     =  1.000000e+00 : u^00 coefficient for opposite-spin correlation
    Parameter  9 _cos10     =  1.358000e+00 : u^10 coefficient for opposite-spin correlation
    Parameter 10 _cos20     =  2.924000e+00 : u^20 coefficient for opposite-spin correlation
    Parameter 11 _cos21     = -8.812000e+00 : u^21 coefficient for opposite-spin correlation
    Parameter 12 _cos60     = -1.390000e+00 : u^60 coefficient for opposite-spin correlation
    Parameter 13 _cos61     =  9.142000e+00 : u^61 coefficient for opposite-spin correlation
    Parameter 14 _alpha     =  1.000000e+00 : fraction of HF exchange
    Parameter 15 _beta      = -8.500000e-01 : fraction of short-range exchange
    Parameter 16 _omega     =  3.000000e-01 : range-separation constant
 Long-range corrected/Screened/Range-Separated Hybrid DFT is turned on
   Amount of maximum screened exact exchange              ....  0.850000
   Range separation parameter mu (erf(mu*r12)/r12)        ....  0.300000
 RI-approximation to the Coulomb term is turned on
   Number of AuxJ basis functions       .... 1014
   RIJ-COSX (HFX calculated with COS-X)).... on


General Settings:
 Integral files         IntName         .... orca
 Hartree-Fock type      HFTyp           .... UHF
 Total Charge           Charge          ....    0
 Multiplicity           Mult            ....    3
 Number of Electrons    NEL             ....  132
 Basis Dimension        Dim             ....  882
 Nuclear Repulsion      ENuc            ....   1456.7333382075 Eh

Convergence Acceleration:
 AO-DIIS                CNVDIIS         .... on
   Start iteration      DIISMaxIt       ....    12
   Startup error        DIISStart       ....  0.200000
   # of expansion vecs  DIISMaxEq       ....     5
   Bias factor          DIISBfac        ....   1.050
   Max. coefficient     DIISMaxC        ....  10.000
 MO-DIIS                CNVKDIIS        .... off
 Trust-Rad. Augm. Hess. CNVTRAH         .... auto
   Auto Start mean grad. ratio tolernc. ....  1.125000
   Auto Start start iteration           ....    50
   Auto Start num. interpolation iter.  ....    10
   Max. Number of Micro iterations      ....    24
   Max. Number of Macro iterations      .... Maxiter - #DIIS iter
   Number of Davidson start vectors     ....     2
   Converg. threshold    (grad. norm)   ....   1.000e-05
   Grad. Scal. Fac. for Micro threshold ....   0.100
   Minimum threshold for Micro iter.    ....   1.000e-02
   NR start threshold (gradient norm)   ....   1.000e-04
   Initial trust radius                 ....   0.400
   Minimum AH scaling param. (alpha)    ....   1.000
   Maximum AH scaling param. (alpha)    .... 1000.000
   Quad. conv. algorithm                .... NR
   White noise on init. David. guess    .... on
   Maximum white noise                  ....   0.010
   Pseudo random numbers                .... off
   Inactive MOs                         .... canonical
   Orbital update algorithm             .... Taylor
   Preconditioner                       .... Diag
   Full preconditioner red. dimension   ....   250
 SOSCF                  CNVSOSCF        .... on
   Start iteration      SOSCFMaxIt      ....   150
   Startup grad/error   SOSCFStart      ....  0.003300
   Hessian update       SOSCFHessUp     .... L-BFGS
 Level Shifting         CNVShift        .... on
   Level shift para.    LevelShift      ....    0.2500
   Turn off err/grad.   ShiftErr        ....    0.0010
 Zerner damping         CNVZerner       .... off
 Static damping         CNVDamp         .... on
   Fraction old density DampFac         ....    0.7000
   Max. Damping (<1)    DampMax         ....    0.9800
   Min. Damping (>=0)   DampMin         ....    0.0000
   Turn off err/grad.   DampErr         ....    0.1000

SCF Procedure:
 Maximum # iterations   MaxIter         ....   125
 SCF integral mode      SCFMode         .... Direct
   Integral package                     .... SHARK and LIBINT hybrid scheme
 Reset frequency        DirectResetFreq ....    20
 Integral Threshold     Thresh          ....  1.000e-12 Eh
 Primitive CutOff       TCut            ....  1.000e-13 Eh

Convergence Tolerance:
 Convergence Check Mode ConvCheckMode   .... Total+1el-Energy
 Convergence forced     ConvForced      .... 1
 Energy Change          TolE            ....  1.000e-08 Eh
 1-El. energy change                    ....  1.000e-05 Eh
 Orbital Gradient       TolG            ....  1.000e-05
 Orbital Rotation angle TolX            ....  1.000e-05
 DIIS Error             TolErr          ....  5.000e-07

------------------------------
INITIAL GUESS: MODEL POTENTIAL
------------------------------
Loading Hartree-Fock densities                     ... done
Calculating cut-offs                               ... done
Initializing the effective Hamiltonian             ... done
Setting up the integral package (SHARK)            ... done
Starting the Coulomb interaction                   ... done (   0.1 sec)
Making the grid                                    ... done (   0.3 sec)
Mapping shells                                     ... done
Starting the XC term evaluation                    ... done (   0.1 sec)
  promolecular density results
     # of electrons  =    132.000124905
     EX              =   -113.588712851
     EC              =     -4.481617765
     EX+EC           =   -118.070330616
Transforming the Hamiltonian                       ... done (   0.1 sec)
Diagonalizing the Hamiltonian                      ... done (   0.1 sec)
Back transforming the eigenvectors                 ... done (   0.1 sec)
Now organizing SCF variables                       ... done
                      ------------------
                      INITIAL GUESS DONE (   1.1 sec)
                      ------------------
             **** ENERGY FILE WAS UPDATED (orca.en.tmp) ****
Finished Guess after   3.5 sec
Maximum memory used throughout the entire GUESS-calculation: 72.8 MB
[1739902224.032505] [ohm:337400:0]        ib_iface.c:1059 UCX  ERROR ibv_create_cq(cqe=256) failed: Connection timed out
[1739902224.039009] [ohm:337399:0]        ib_iface.c:1059 UCX  ERROR ibv_create_cq(cqe=256) failed: Connection timed out
[1739902224.090620] [ohm:337406:0]        ib_iface.c:1059 UCX  ERROR ibv_create_cq(cqe=256) failed: Connection timed out
[1739902224.091571] [ohm:337401:0]        ib_iface.c:1059 UCX  ERROR ibv_create_cq(cqe=256) failed: Connection timed out
[1739902224.094366] [ohm:337402:0]        ib_iface.c:1059 UCX  ERROR ibv_create_cq(cqe=256) failed: Connection timed out
[1739902224.111414] [ohm:337464:0]        ib_iface.c:1059 UCX  ERROR ibv_create_cq(cqe=256) failed: Connection timed out
[1739902224.113003] [ohm:337410:0]        ib_iface.c:1059 UCX  ERROR ibv_create_cq(cqe=256) failed: Connection timed out
[1739902224.117797] [ohm:337405:0]        ib_iface.c:1059 UCX  ERROR ibv_create_cq(cqe=256) failed: Connection timed out
[1739902224.118036] [ohm:337412:0]        ib_iface.c:1059 UCX  ERROR ibv_create_cq(cqe=256) failed: Connection timed out
[1739902224.118188] [ohm:337415:0]        ib_iface.c:1059 UCX  ERROR ibv_create_cq(cqe=256) failed: Connection timed out
[1739902224.128602] [ohm:337409:0]        ib_iface.c:1059 UCX  ERROR ibv_create_cq(cqe=256) failed: Connection timed out
[1739902224.129698] [ohm:337421:0]        ib_iface.c:1059 UCX  ERROR ibv_create_cq(cqe=256) failed: Connection timed out
[1739902224.134596] [ohm:337403:0]        ib_iface.c:1059 UCX  ERROR ibv_create_cq(cqe=256) failed: Connection timed out
[1739902224.170913] [ohm:337452:0]        ib_iface.c:1059 UCX  ERROR ibv_create_cq(cqe=256) failed: Connection timed out
[1739902224.189499] [ohm:337408:0]        ib_iface.c:1059 UCX  ERROR ibv_create_cq(cqe=256) failed: Connection timed out
[1739902224.213953] [ohm:337418:0]        ib_iface.c:1059 UCX  ERROR ibv_create_cq(cqe=256) failed: Connection timed out
[1739902224.224858] [ohm:337443:0]        ib_iface.c:1059 UCX  ERROR ibv_create_cq(cqe=256) failed: Connection timed out
[1739902224.235812] [ohm:337419:0]        ib_iface.c:1059 UCX  ERROR ibv_create_cq(cqe=256) failed: Connection timed out
[1739902224.238131] [ohm:337422:0]        ib_iface.c:1059 UCX  ERROR ibv_create_cq(cqe=256) failed: Connection timed out
[1739902224.247662] [ohm:337407:0]        ib_iface.c:1059 UCX  ERROR ibv_create_cq(cqe=256) failed: Connection timed out
[1739902224.255518] [ohm:337485:0]        ib_iface.c:1059 UCX  ERROR ibv_create_cq(cqe=256) failed: Connection timed out
[1739902224.257349] [ohm:337416:0]        ib_iface.c:1059 UCX  ERROR ibv_create_cq(cqe=256) failed: Connection timed out
[1739902224.257798] [ohm:337420:0]        ib_iface.c:1059 UCX  ERROR ibv_create_cq(cqe=256) failed: Connection timed out
[1739902224.262032] [ohm:337479:0]        ib_iface.c:1059 UCX  ERROR ibv_create_cq(cqe=256) failed: Connection timed out
[1739902224.266741] [ohm:337449:0]        ib_iface.c:1059 UCX  ERROR ibv_create_cq(cqe=256) failed: Connection timed out
[1739902224.277428] [ohm:337469:0]        ib_iface.c:1059 UCX  ERROR ibv_create_cq(cqe=256) failed: Connection timed out
[1739902224.283910] [ohm:337444:0]        ib_iface.c:1059 UCX  ERROR ibv_create_cq(cqe=256) failed: Connection timed out
[1739902224.288914] [ohm:337435:0]        ib_iface.c:1059 UCX  ERROR ibv_create_cq(cqe=256) failed: Connection timed out
[1739902224.290969] [ohm:337431:0]        ib_iface.c:1059 UCX  ERROR ibv_create_cq(cqe=256) failed: Connection timed out
[1739902224.293206] [ohm:337424:0]        ib_iface.c:1059 UCX  ERROR ibv_create_cq(cqe=256) failed: Connection timed out
[1739902224.294227] [ohm:337534:0]        ib_iface.c:1059 UCX  ERROR ibv_create_cq(cqe=256) failed: Connection timed out
[1739902224.297076] [ohm:337413:0]        ib_iface.c:1059 UCX  ERROR ibv_create_cq(cqe=256) failed: Connection timed out
[1739902224.299041] [ohm:337417:0]        ib_iface.c:1059 UCX  ERROR ibv_create_cq(cqe=256) failed: Connection timed out
[1739902224.300660] [ohm:337423:0]        ib_iface.c:1059 UCX  ERROR ibv_create_cq(cqe=256) failed: Connection timed out
[1739902224.302615] [ohm:337457:0]        ib_iface.c:1059 UCX  ERROR ibv_create_cq(cqe=256) failed: Connection timed out
[1739902224.306751] [ohm:337512:0]        ib_iface.c:1059 UCX  ERROR ibv_create_cq(cqe=256) failed: Connection timed out
[1739902224.306936] [ohm:337404:0]        ib_iface.c:1059 UCX  ERROR ibv_create_cq(cqe=256) failed: Connection timed out
[1739902224.316459] [ohm:337411:0]        ib_iface.c:1059 UCX  ERROR ibv_create_cq(cqe=256) failed: Connection timed out
[1739902224.322025] [ohm:337426:0]        ib_iface.c:1059 UCX  ERROR ibv_create_cq(cqe=256) failed: Connection timed out
[1739902224.322435] [ohm:337530:0]        ib_iface.c:1059 UCX  ERROR ibv_create_cq(cqe=256) failed: Connection timed out
[1739902224.323594] [ohm:337507:0]        ib_iface.c:1059 UCX  ERROR ibv_create_cq(cqe=256) failed: Connection timed out
[1739902224.324384] [ohm:337476:0]        ib_iface.c:1059 UCX  ERROR ibv_create_cq(cqe=256) failed: Connection timed out
[1739902224.326469] [ohm:337504:0]        ib_iface.c:1059 UCX  ERROR ibv_create_cq(cqe=256) failed: Connection timed out
[1739902224.326981] [ohm:337543:0]        ib_iface.c:1059 UCX  ERROR ibv_create_cq(cqe=256) failed: Connection timed out
[1739902224.335401] [ohm:337538:0]        ib_iface.c:1059 UCX  ERROR ibv_create_cq(cqe=256) failed: Connection timed out
[1739902224.339898] [ohm:337539:0]        ib_iface.c:1059 UCX  ERROR ibv_create_cq(cqe=256) failed: Connection timed out
[1739902224.347041] [ohm:337491:0]        ib_iface.c:1059 UCX  ERROR ibv_create_cq(cqe=256) failed: Connection timed out
[1739902224.347050] [ohm:337498:0]        ib_iface.c:1059 UCX  ERROR ibv_create_cq(cqe=256) failed: Connection timed out
[1739902224.347364] [ohm:337531:0]        ib_iface.c:1059 UCX  ERROR ibv_create_cq(cqe=256) failed: Connection timed out
[1739902224.354838] [ohm:337436:0]        ib_iface.c:1059 UCX  ERROR ibv_create_cq(cqe=256) failed: Connection timed out
[1739902224.359756] [ohm:337500:0]        ib_iface.c:1059 UCX  ERROR ibv_create_cq(cqe=256) failed: Connection timed out
[1739902224.364851] [ohm:337428:0]        ib_iface.c:1059 UCX  ERROR ibv_create_cq(cqe=256) failed: Connection timed out
[1739902224.365085] [ohm:337516:0]        ib_iface.c:1059 UCX  ERROR ibv_create_cq(cqe=256) failed: Connection timed out
[1739902224.365254] [ohm:337461:0]        ib_iface.c:1059 UCX  ERROR ibv_create_cq(cqe=256) failed: Connection timed out
[1739902224.367326] [ohm:337414:0]        ib_iface.c:1059 UCX  ERROR ibv_create_cq(cqe=256) failed: Connection timed out
[1739902224.373210] [ohm:337489:0]        ib_iface.c:1059 UCX  ERROR ibv_create_cq(cqe=256) failed: Connection timed out
[1739902224.373477] [ohm:337473:0]        ib_iface.c:1059 UCX  ERROR ibv_create_cq(cqe=256) failed: Connection timed out
[1739902224.374897] [ohm:337493:0]        ib_iface.c:1059 UCX  ERROR ibv_create_cq(cqe=256) failed: Connection timed out
[1739902224.375863] [ohm:337483:0]        ib_iface.c:1059 UCX  ERROR ibv_create_cq(cqe=256) failed: Connection timed out
[1739902224.378231] [ohm:337526:0]        ib_iface.c:1059 UCX  ERROR ibv_create_cq(cqe=256) failed: Connection timed out
[1739902224.378958] [ohm:337519:0]        ib_iface.c:1059 UCX  ERROR ibv_create_cq(cqe=256) failed: Connection timed out
[1739902224.379222] [ohm:337521:0]        ib_iface.c:1059 UCX  ERROR ibv_create_cq(cqe=256) failed: Connection timed out
[1739902224.379706] [ohm:337509:0]        ib_iface.c:1059 UCX  ERROR ibv_create_cq(cqe=256) failed: Connection timed out
[1739902224.379914] [ohm:337425:0]        ib_iface.c:1059 UCX  ERROR ibv_create_cq(cqe=256) failed: Connection timed out


           ************************************************************
           *        Program running with 64 parallel MPI-processes    *
           *              working on a common directory               *
           ************************************************************

-------------------------------------------------------------------------------------------
                                      ORCA LEAN-SCF
                              memory conserving SCF solver
-------------------------------------------------------------------------------------------

----------------------------------------D-I-I-S--------------------------------------------
Iteration    Energy (Eh)           Delta-E    RMSDP     MaxDP     DIISErr   Damp  Time(sec)
-------------------------------------------------------------------------------------------
               ***  Starting incremental Fock matrix formation  ***
    1    -908.0940543616070499     0.00e+00  1.46e-03  2.56e-01  1.49e-01  0.700   7.9
    2    -908.3600440695690850    -2.66e-01  1.24e-03  1.65e-01  7.15e-02  0.700   6.7
                               ***Turning on AO-DIIS***
    3    -908.4798851082659894    -1.20e-01  9.67e-04  1.11e-01  2.76e-02  0.700   5.8
    4    -908.5536961740799597    -7.38e-02  2.40e-03  2.52e-01  1.96e-02  0.000   5.8
    5    -908.7223534139548065    -1.69e-01  3.34e-04  5.41e-02  7.25e-03  0.000   5.9
    6    -908.7267771473320863    -4.42e-03  2.47e-04  2.97e-02  7.06e-03  0.000   5.7
    7    -908.7306188563129581    -3.84e-03  3.40e-04  4.95e-02  6.79e-03  0.000   5.6
    8    -908.7353894862944799    -4.77e-03  5.01e-04  7.93e-02  6.06e-03  0.000   5.6
    9    -908.7402802755427729    -4.89e-03  4.28e-04  4.84e-02  4.39e-03  0.000   5.7
                              *** Initializing SOSCF ***
---------------------------------------S-O-S-C-F--------------------------------------
Iteration    Energy (Eh)           Delta-E    RMSDP     MaxDP     MaxGrad    Time(sec)
--------------------------------------------------------------------------------------
   10    -908.7427119427188700    -2.43e-03  3.23e-04  3.86e-02  2.84e-03     6.5
               *** Restarting incremental Fock matrix formation ***
   11    -908.7438119259945779    -1.10e-03  3.43e-04  4.33e-02  6.38e-03     7.6
   12    -908.7443071504399086    -4.95e-04  5.52e-04  6.56e-02  3.65e-03     6.7
   13    -908.7445695427459214    -2.62e-04  2.26e-04  2.70e-02  1.04e-03     6.8
   14    -908.7446523403232277    -8.28e-05  6.63e-05  8.74e-03  5.52e-04     6.7
   15    -908.7446611838236095    -8.84e-06  1.84e-05  2.22e-03  3.55e-04     6.5
   16    -908.7446676607437439    -6.48e-06  2.27e-05  3.63e-03  2.44e-04     6.3
   17    -908.7446700077116475    -2.35e-06  5.73e-06  6.09e-04  7.76e-05     6.4
   18    -908.7446708906809363    -8.83e-07  5.12e-06  4.98e-04  3.77e-05     6.2
   19    -908.7446710639665071    -1.73e-07  3.71e-06  4.21e-04  2.44e-05     6.1
   20    -908.7446710808299031    -1.69e-08  1.14e-06  2.68e-04  1.21e-05     5.9
   21    -908.7446711749166752    -9.41e-08  1.83e-06  3.15e-04  4.49e-06     5.7
   22    -908.7446711939560373    -1.90e-08  1.13e-06  2.79e-04  4.79e-06     5.6
   23    -908.7446711154402692     7.85e-08  1.87e-06  3.64e-04  1.67e-06     5.5
                  *** Gradient check signals convergence ***

               *****************************************************
               *                     SUCCESS                       *
               *           SCF CONVERGED AFTER  23 CYCLES          *
               *****************************************************

Recomputing exchange energy using gridx3       ... done (    7.900 sec)
Old exchange energy                            :    -35.042278176 Eh
New exchange energy                            :    -35.042280181 Eh
Exchange energy change after final integration :     -0.000002006 Eh
Total energy after final integration           :   -908.744673121 Eh
             **** ENERGY FILE WAS UPDATED (orca.en.tmp) ****

----------------
TOTAL SCF ENERGY
----------------

Total Energy       :       -908.74467312123443 Eh          -24728.19971 eV

Components:
Nuclear Repulsion  :       1456.73333820749622 Eh           39639.72938 eV
Electronic Energy  :      -2365.47800932293649 Eh          -64367.92904 eV
One Electron Energy:      -4130.89358742856712 Eh         -112407.32919 eV
Two Electron Energy:       1765.41557810563063 Eh           48039.40016 eV

Virial components:
Potential Energy   :      -1814.97792504703898 Eh          -49388.06018 eV
Kinetic Energy     :        906.23325192580455 Eh           24659.86047 eV
Virial Ratio       :          2.00277127460297

DFT components:
N(Alpha)           :       67.000111691207 electrons
N(Beta)            :       65.000075053185 electrons
N(Total)           :      132.000186744392 electrons
E(XC)              :      -86.320414111314 Eh       

---------------
SCF CONVERGENCE
---------------

  Last Energy change         ...   -7.8516e-08  Tolerance :   1.0000e-08
  Last MAX-Density change    ...    3.6446e-04  Tolerance :   1.0000e-07
  Last RMS-Density change    ...    1.8742e-06  Tolerance :   5.0000e-09
  Last DIIS Error            ...    2.8392e-03  Tolerance :   5.0000e-07
  Last Orbital Gradient      ...    1.6745e-06  Tolerance :   1.0000e-05
  Last Orbital Rotation      ...    1.0091e-05  Tolerance :   1.0000e-05


----------------------
UHF SPIN CONTAMINATION
----------------------

Warning: in a DFT calculation there is little theoretical justification to 
         calculate <S**2> as in Hartree-Fock theory. We will do it anyways
         but you should keep in mind that the values have only limited relevance

Expectation value of <S**2>     :     2.010609
Ideal value S*(S+1) for S=1.0   :     2.000000
Deviation                       :     0.010609

----------------
ORBITAL ENERGIES
----------------
                 SPIN UP ORBITALS
  NO   OCC          E(Eh)            E(eV) 
   0   1.0000     -19.339074      -526.2430 
   1   1.0000     -19.322455      -525.7907 
   2   1.0000     -19.320048      -525.7252 
   3   1.0000     -19.318775      -525.6906 
   4   1.0000     -14.597608      -397.2211 
   5   1.0000     -14.575715      -396.6254 
   6   1.0000     -14.563652      -396.2971 
   7   1.0000     -14.557206      -396.1217 
   8   1.0000     -10.517063      -286.1838 
   9   1.0000     -10.506094      -285.8854 
  10   1.0000     -10.475543      -285.0540 
  11   1.0000     -10.460786      -284.6525 
  12   1.0000     -10.430586      -283.8307 
  13   1.0000     -10.411085      -283.3000 
  14   1.0000     -10.403570      -283.0955 
  15   1.0000     -10.379419      -282.4383 
  16   1.0000     -10.362601      -281.9807 
  17   1.0000     -10.360092      -281.9124 
  18   1.0000      -1.232473       -33.5373 
  19   1.0000      -1.218277       -33.1510 
  20   1.0000      -1.191249       -32.4155 
  21   1.0000      -1.189149       -32.3584 
  22   1.0000      -1.130510       -30.7627 
  23   1.0000      -1.116306       -30.3762 
  24   1.0000      -1.067185       -29.0396 
  25   1.0000      -1.063721       -28.9453 
  26   1.0000      -0.974739       -26.5240 
  27   1.0000      -0.955850       -26.0100 
  28   1.0000      -0.857096       -23.3228 
  29   1.0000      -0.849028       -23.1032 
  30   1.0000      -0.816361       -22.2143 
  31   1.0000      -0.807763       -21.9803 
  32   1.0000      -0.794253       -21.6127 
  33   1.0000      -0.788226       -21.4487 
  34   1.0000      -0.702663       -19.1204 
  35   1.0000      -0.697021       -18.9669 
  36   1.0000      -0.691486       -18.8163 
  37   1.0000      -0.688340       -18.7307 
  38   1.0000      -0.644864       -17.5476 
  39   1.0000      -0.638050       -17.3622 
  40   1.0000      -0.635270       -17.2866 
  41   1.0000      -0.599844       -16.3226 
  42   1.0000      -0.599127       -16.3031 
  43   1.0000      -0.592558       -16.1243 
  44   1.0000      -0.576698       -15.6927 
  45   1.0000      -0.574555       -15.6344 
  46   1.0000      -0.559698       -15.2302 
  47   1.0000      -0.551231       -14.9998 
  48   1.0000      -0.550622       -14.9832 
  49   1.0000      -0.549064       -14.9408 
  50   1.0000      -0.531353       -14.4589 
  51   1.0000      -0.525233       -14.2923 
  52   1.0000      -0.520233       -14.1563 
  53   1.0000      -0.516972       -14.0675 
  54   1.0000      -0.506031       -13.7698 
  55   1.0000      -0.504321       -13.7233 
  56   1.0000      -0.497182       -13.5290 
  57   1.0000      -0.472418       -12.8552 
  58   1.0000      -0.427153       -11.6234 
  59   1.0000      -0.412512       -11.2250 
  60   1.0000      -0.410747       -11.1770 
  61   1.0000      -0.395952       -10.7744 
  62   1.0000      -0.389901       -10.6097 
  63   1.0000      -0.388311       -10.5665 
  64   1.0000      -0.382756       -10.4153 
  65   1.0000      -0.344234        -9.3671 
  66   1.0000      -0.217898        -5.9293 
  67   0.0000       0.011668         0.3175 
  68   0.0000       0.021594         0.5876 
  69   0.0000       0.033688         0.9167 
  70   0.0000       0.039309         1.0697 
  71   0.0000       0.040885         1.1125 
  72   0.0000       0.055660         1.5146 
  73   0.0000       0.060433         1.6445 
  74   0.0000       0.062828         1.7096 
  75   0.0000       0.065684         1.7874 
  76   0.0000       0.067780         1.8444 
  77   0.0000       0.070143         1.9087 

                 SPIN DOWN ORBITALS
  NO   OCC          E(Eh)            E(eV) 
   0   1.0000     -19.337280      -526.1941 
   1   1.0000     -19.320046      -525.7252 
   2   1.0000     -19.318741      -525.6897 
   3   1.0000     -19.315947      -525.6136 
   4   1.0000     -14.593226      -397.1019 
   5   1.0000     -14.575586      -396.6219 
   6   1.0000     -14.563662      -396.2974 
   7   1.0000     -14.556255      -396.0958 
   8   1.0000     -10.517333      -286.1912 
   9   1.0000     -10.506100      -285.8855 
  10   1.0000     -10.475532      -285.0537 
  11   1.0000     -10.460530      -284.6455 
  12   1.0000     -10.430354      -283.8244 
  13   1.0000     -10.401682      -283.0442 
  14   1.0000     -10.392916      -282.8056 
  15   1.0000     -10.379472      -282.4398 
  16   1.0000     -10.362999      -281.9915 
  17   1.0000     -10.359983      -281.9095 
  18   1.0000      -1.228492       -33.4290 
  19   1.0000      -1.218115       -33.1466 
  20   1.0000      -1.189595       -32.3705 
  21   1.0000      -1.181233       -32.1430 
  22   1.0000      -1.120288       -30.4846 
  23   1.0000      -1.116043       -30.3691 
  24   1.0000      -1.063746       -28.9460 
  25   1.0000      -1.061679       -28.8898 
  26   1.0000      -0.957354       -26.0509 
  27   1.0000      -0.948969       -25.8228 
  28   1.0000      -0.848841       -23.0981 
  29   1.0000      -0.845094       -22.9962 
  30   1.0000      -0.808551       -22.0018 
  31   1.0000      -0.804857       -21.9013 
  32   1.0000      -0.788387       -21.4531 
  33   1.0000      -0.787297       -21.4235 
  34   1.0000      -0.691771       -18.8240 
  35   1.0000      -0.691557       -18.8182 
  36   1.0000      -0.688453       -18.7338 
  37   1.0000      -0.687668       -18.7124 
  38   1.0000      -0.637197       -17.3390 
  39   1.0000      -0.633718       -17.2443 
  40   1.0000      -0.629371       -17.1260 
  41   1.0000      -0.593964       -16.1626 
  42   1.0000      -0.591273       -16.0894 
  43   1.0000      -0.589364       -16.0374 
  44   1.0000      -0.568356       -15.4657 
  45   1.0000      -0.562957       -15.3188 
  46   1.0000      -0.558712       -15.2033 
  47   1.0000      -0.549650       -14.9567 
  48   1.0000      -0.543944       -14.8015 
  49   1.0000      -0.536793       -14.6069 
  50   1.0000      -0.522578       -14.2201 
  51   1.0000      -0.520240       -14.1565 
  52   1.0000      -0.515862       -14.0373 
  53   1.0000      -0.505680       -13.7603 
  54   1.0000      -0.504354       -13.7242 
  55   1.0000      -0.499402       -13.5894 
  56   1.0000      -0.471297       -12.8246 
  57   1.0000      -0.455432       -12.3929 
  58   1.0000      -0.423075       -11.5124 
  59   1.0000      -0.411403       -11.1948 
  60   1.0000      -0.396477       -10.7887 
  61   1.0000      -0.386352       -10.5132 
  62   1.0000      -0.383362       -10.4318 
  63   1.0000      -0.381080       -10.3697 
  64   1.0000      -0.343224        -9.3396 
  65   0.0000      -0.105223        -2.8633 
  66   0.0000       0.011300         0.3075 
  67   0.0000       0.023730         0.6457 
  68   0.0000       0.031588         0.8596 
  69   0.0000       0.037263         1.0140 
  70   0.0000       0.039932         1.0866 
  71   0.0000       0.055186         1.5017 
  72   0.0000       0.058263         1.5854 
  73   0.0000       0.061889         1.6841 
  74   0.0000       0.065349         1.7782 
  75   0.0000       0.066876         1.8198 
*Only the first 10 virtual orbitals were printed.

                    ********************************
                    * MULLIKEN POPULATION ANALYSIS *
                    ********************************

--------------------------------------------
MULLIKEN ATOMIC CHARGES AND SPIN POPULATIONS
--------------------------------------------
   0 O :   -0.682042    0.001658
   1 O :   -0.673859    0.241621
   2 O :   -0.650362    0.001679
   3 O :   -0.653326    0.066540
   4 N :   -0.054113    0.005014
   5 N :    0.044065    0.187482
   6 N :    0.040334    0.000856
   7 N :    0.011906    0.047098
   8 C :    0.887560    0.047462
   9 C :    0.747845    0.244117
  10 C :    0.038908    0.012597
  11 C :   -0.319540    0.928539
  12 C :   -1.448933   -0.022263
  13 C :   -1.342015    0.027874
  14 C :    0.269832   -0.011082
  15 C :    0.630803    0.212609
  16 C :    0.375451   -0.003305
  17 C :    0.454244   -0.026762
  18 H :    0.183006    0.002030
  19 H :    0.143759    0.012863
  20 H :    0.229999   -0.005059
  21 H :    0.329152    0.003221
  22 H :    0.376567    0.006343
  23 H :    0.369017    0.014646
  24 H :    0.330380    0.008249
  25 H :    0.218321    0.018809
  26 H :    0.060187   -0.001290
  27 H :    0.027170   -0.019407
  28 H :    0.040059    0.001899
  29 H :    0.015624   -0.004039
Sum of atomic charges         :   -0.0000000
Sum of atomic spin populations:    2.0000000

-----------------------------------------------------
MULLIKEN REDUCED ORBITAL CHARGES AND SPIN POPULATIONS
-----------------------------------------------------
CHARGE
  0 O s       :     4.085153  s :     4.085153
      pz      :     1.743695  p :     4.567905
      px      :     1.396128
[...]
[1739902530.374792] [ohm:340237:0]        ib_iface.c:1059 UCX  ERROR ibv_create_cq(cqe=256) failed: Connection timed out
[1739902530.375341] [ohm:340324:0]        ib_iface.c:1059 UCX  ERROR ibv_create_cq(cqe=256) failed: Connection timed out
[1739902530.377331] [ohm:340219:0]        ib_iface.c:1059 UCX  ERROR ibv_create_cq(cqe=256) failed: Connection timed out
[1739902530.379999] [ohm:340299:0]        ib_iface.c:1059 UCX  ERROR ibv_create_cq(cqe=256) failed: Connection timed out
[1739902530.380460] [ohm:340235:0]        ib_iface.c:1059 UCX  ERROR ibv_create_cq(cqe=256) failed: Connection timed out
[1739902530.382001] [ohm:340297:0]        ib_iface.c:1059 UCX  ERROR ibv_create_cq(cqe=256) failed: Connection timed out
[1739902530.382330] [ohm:340351:0]        ib_iface.c:1059 UCX  ERROR ibv_create_cq(cqe=256) failed: Connection timed out
[1739902530.384037] [ohm:340263:0]        ib_iface.c:1059 UCX  ERROR ibv_create_cq(cqe=256) failed: Connection timed out
[1739902530.385552] [ohm:340340:0]        ib_iface.c:1059 UCX  ERROR ibv_create_cq(cqe=256) failed: Connection timed out
[1739902530.386359] [ohm:340337:0]        ib_iface.c:1059 UCX  ERROR ibv_create_cq(cqe=256) failed: Connection timed out
[1739902530.386331] [ohm:340216:0]        ib_iface.c:1059 UCX  ERROR ibv_create_cq(cqe=256) failed: Connection timed out


           ************************************************************
           *        Program running with 64 parallel MPI-processes    *
           *              working on a common directory               *
           ************************************************************

------------------------------------------------------------------------------
                              ORCA PROPERTY CALCULATIONS
------------------------------------------------------------------------------

GBWName                                 ... orca.gbw
Number of atoms                         ...     30
Number of basis functions               ...    882
Max core memory                         ...   1024 MB

Electric properties:
Dipole moment                           ... YES
Quadrupole moment                       ...  NO
Static polarizability (Dipole/Dipole)   ...  NO
Static polarizability (Dipole/Quad.)    ...  NO
Static polarizability (Quad./Quad.)     ...  NO
Static polarizability (Velocity)        ...  NO

Atomic electric properties:
Dipole moment                           ...  NO
Quadrupole moment                       ...  NO
Static polarizability                   ...  NO

Choice of electric origin               ... Center of mass
Position of electric origin             ...     0.016233    -0.007667     0.078548

General magnetic properties:
Magnetizability                         ...  NO

EPR properties:
g-Tensor (aka g-matrix)                 ...  NO
Zero-Field splitting spin-orbit         ...  NO
Zero-field splitting spin-spin          ...  NO
Hyperfine couplings                     ...  NO (   0 nuclei)
Quadrupole couplings                    ...  NO (   0 nuclei)
Contact density                         ...  NO (   0 nuclei)

NMR properties:
Chemical shifts                         ...  NO (   0 nuclei)
Spin-rotation constants                 ...  NO (   0 nuclei)
Spin-spin couplings                     ...  NO (   0 nuclei,    0 pairs)

Choice of magnetic origin               ... GIAO
Position of magnetic origin             ...     0.000000     0.000000     0.000000

Properties with geometric perturbations:
SCF Hessian                             ...  NO
IR spectrum                             ...  NO
VCD spectrum                            ...  NO
X-ray spectroscopy properties:
SCF XES/XAS/RIXS spectra                ...  NO


-------------
DIPOLE MOMENT
-------------

Method             : SCF
Type of density    : Electron Density
Multiplicity       :   3
Irrep              :   0
Energy             :  -908.7446731212344275 Eh
Relativity type    : 
Basis              : AO
                                X                 Y                 Z
Electronic contribution:     -2.548240810     -10.020762922      -6.027537777
Nuclear contribution   :      2.033378679      10.995049922       8.497817235
                        -----------------------------------------
Total Dipole Moment    :     -0.514862131       0.974286999       2.470279459
                        -----------------------------------------
Magnitude (a.u.)       :      2.704921214
Magnitude (Debye)      :      6.875363332



--------------------
Rotational spectrum 
--------------------
 
Rotational constants in cm-1:             0.017292             0.016540             0.013537 
Rotational constants in MHz :           518.390017           495.855263           405.826302 

Dipole components along the rotational axes: 
x,y,z [a.u.] :     1.491357    -0.140147     2.252290 
x,y,z [Debye]:     3.790729    -0.356224     5.724867 

 

-------------
DIPOLE MOMENT
-------------

Method             : TDA/CIS
Type of density    : Electron Density
Level              : Relaxed density
State              :   1
Multiplicity       :   3
Irrep              :   0
Energy             :     0.0000000000000000 Eh
Relativity type    : 
Basis              : AO
                                X                 Y                 Z
Electronic contribution:     -2.724548598     -10.080005480      -5.795824781
Nuclear contribution   :      2.033378679      10.995049922       8.497817235
                        -----------------------------------------
Total Dipole Moment    :     -0.691169919       0.915044442       2.701992455
                        -----------------------------------------
Magnitude (a.u.)       :      2.935265816
Magnitude (Debye)      :      7.460852782



--------------------
Rotational spectrum 
--------------------
 
Rotational constants in cm-1:             0.017292             0.016540             0.013537 
Rotational constants in MHz :           518.390017           495.855263           405.826302 

Dipole components along the rotational axes: 
x,y,z [a.u.] :     1.573684    -0.342165     2.454023 
x,y,z [Debye]:     3.999987    -0.869714     6.237630 

 

Dipole moment calculation done in   0.2 sec 

Maximum memory used throughout the entire PROP-calculation: 81.9 MB
[1739902532.856118] [ohm:340560:0]        ib_iface.c:1059 UCX  ERROR ibv_create_cq(cqe=256) failed: Connection timed out
[1739902532.858968] [ohm:340558:0]        ib_iface.c:1059 UCX  ERROR ibv_create_cq(cqe=256) failed: Connection timed out
[1739902532.869745] [ohm:340557:0]        ib_iface.c:1059 UCX  ERROR ibv_create_cq(cqe=256) failed: Connection timed out
[1739902532.877238] [ohm:340564:0]        ib_iface.c:1059 UCX  ERROR ibv_create_cq(cqe=256) failed: Connection timed out
[1739902532.878309] [ohm:340563:0]        ib_iface.c:1059 UCX  ERROR ibv_create_cq(cqe=256) failed: Connection timed out
[1739902532.882053] [ohm:340561:0]        ib_iface.c:1059 UCX  ERROR ibv_create_cq(cqe=256) failed: Connection timed out
[1739902532.884919] [ohm:340577:0]        ib_iface.c:1059 UCX  ERROR ibv_create_cq(cqe=256) failed: Connection timed out
[1739902532.885796] [ohm:340579:0]        ib_iface.c:1059 UCX  ERROR ibv_create_cq(cqe=256) failed: Connection timed out
[1739902532.886250] [ohm:340582:0]        ib_iface.c:1059 UCX  ERROR ibv_create_cq(cqe=256) failed: Connection timed out
[1739902532.893865] [ohm:340576:0]        ib_iface.c:1059 UCX  ERROR ibv_create_cq(cqe=256) failed: Connection timed out
[1739902532.893906] [ohm:340574:0]        ib_iface.c:1059 UCX  ERROR ibv_create_cq(cqe=256) failed: Connection timed out
[1739902532.904635] [ohm:340565:0]        ib_iface.c:1059 UCX  ERROR ibv_create_cq(cqe=256) failed: Connection timed out
[1739902532.908530] [ohm:340578:0]        ib_iface.c:1059 UCX  ERROR ibv_create_cq(cqe=256) failed: Connection timed out
[1739902532.920616] [ohm:340592:0]        ib_iface.c:1059 UCX  ERROR ibv_create_cq(cqe=256) failed: Connection timed out
[1739902532.920713] [ohm:340570:0]        ib_iface.c:1059 UCX  ERROR ibv_create_cq(cqe=256) failed: Connection timed out
[1739902532.922371] [ohm:340568:0]        ib_iface.c:1059 UCX  ERROR ibv_create_cq(cqe=256) failed: Connection timed out
[1739902532.931009] [ohm:340603:0]        ib_iface.c:1059 UCX  ERROR ibv_create_cq(cqe=256) failed: Connection timed out
[1739902532.942345] [ohm:340597:0]        ib_iface.c:1059 UCX  ERROR ibv_create_cq(cqe=256) failed: Connection timed out
[1739902532.984250] [ohm:340583:0]        ib_iface.c:1059 UCX  ERROR ibv_create_cq(cqe=256) failed: Connection timed out
[1739902532.986910] [ohm:340571:0]        ib_iface.c:1059 UCX  ERROR ibv_create_cq(cqe=256) failed: Connection timed out
[1739902532.993193] [ohm:340666:0]        ib_iface.c:1059 UCX  ERROR ibv_create_cq(cqe=256) failed: Connection timed out
[1739902532.996139] [ohm:340699:0]        ib_iface.c:1059 UCX  ERROR ibv_create_cq(cqe=256) failed: Connection timed out
[1739902533.001285] [ohm:340575:0]        ib_iface.c:1059 UCX  ERROR ibv_create_cq(cqe=256) failed: Connection timed out
[1739902533.015730] [ohm:340607:0]        ib_iface.c:1059 UCX  ERROR ibv_create_cq(cqe=256) failed: Connection timed out
[1739902533.015919] [ohm:340588:0]        ib_iface.c:1059 UCX  ERROR ibv_create_cq(cqe=256) failed: Connection timed out
[1739902533.043138] [ohm:340623:0]        ib_iface.c:1059 UCX  ERROR ibv_create_cq(cqe=256) failed: Connection timed out
[1739902533.045433] [ohm:340633:0]        ib_iface.c:1059 UCX  ERROR ibv_create_cq(cqe=256) failed: Connection timed out
[1739902533.047199] [ohm:340693:0]        ib_iface.c:1059 UCX  ERROR ibv_create_cq(cqe=256) failed: Connection timed out
[1739902533.048504] [ohm:340617:0]        ib_iface.c:1059 UCX  ERROR ibv_create_cq(cqe=256) failed: Connection timed out
[1739902533.060039] [ohm:340651:0]        ib_iface.c:1059 UCX  ERROR ibv_create_cq(cqe=256) failed: Connection timed out
[1739902533.062969] [ohm:340679:0]        ib_iface.c:1059 UCX  ERROR ibv_create_cq(cqe=256) failed: Connection timed out
[1739902533.064437] [ohm:340645:0]        ib_iface.c:1059 UCX  ERROR ibv_create_cq(cqe=256) failed: Connection timed out
[1739902533.068250] [ohm:340668:0]        ib_iface.c:1059 UCX  ERROR ibv_create_cq(cqe=256) failed: Connection timed out
[1739902533.075016] [ohm:340652:0]        ib_iface.c:1059 UCX  ERROR ibv_create_cq(cqe=256) failed: Connection timed out
[1739902533.083659] [ohm:340683:0]        ib_iface.c:1059 UCX  ERROR ibv_create_cq(cqe=256) failed: Connection timed out
[1739902533.084413] [ohm:340687:0]        ib_iface.c:1059 UCX  ERROR ibv_create_cq(cqe=256) failed: Connection timed out
[1739902533.089968] [ohm:340616:0]        ib_iface.c:1059 UCX  ERROR ibv_create_cq(cqe=256) failed: Connection timed out
[1739902533.091832] [ohm:340631:0]        ib_iface.c:1059 UCX  ERROR ibv_create_cq(cqe=256) failed: Connection timed out
[1739902533.092285] [ohm:340572:0]        ib_iface.c:1059 UCX  ERROR ibv_create_cq(cqe=256) failed: Connection timed out
[1739902533.095897] [ohm:340640:0]        ib_iface.c:1059 UCX  ERROR ibv_create_cq(cqe=256) failed: Connection timed out
[1739902533.102150] [ohm:340581:0]        ib_iface.c:1059 UCX  ERROR ibv_create_cq(cqe=256) failed: Connection timed out
[1739902533.110475] [ohm:340589:0]        ib_iface.c:1059 UCX  ERROR ibv_create_cq(cqe=256) failed: Connection timed out
[1739902533.115435] [ohm:340654:0]        ib_iface.c:1059 UCX  ERROR ibv_create_cq(cqe=256) failed: Connection timed out
[1739902533.116873] [ohm:340569:0]        ib_iface.c:1059 UCX  ERROR ibv_create_cq(cqe=256) failed: Connection timed out
[1739902533.119993] [ohm:340573:0]        ib_iface.c:1059 UCX  ERROR ibv_create_cq(cqe=256) failed: Connection timed out
[1739902533.120175] [ohm:340609:0]        ib_iface.c:1059 UCX  ERROR ibv_create_cq(cqe=256) failed: Connection timed out
[1739902533.124611] [ohm:340566:0]        ib_iface.c:1059 UCX  ERROR ibv_create_cq(cqe=256) failed: Connection timed out
[1739902533.124610] [ohm:340584:0]        ib_iface.c:1059 UCX  ERROR ibv_create_cq(cqe=256) failed: Connection timed out
[1739902533.125529] [ohm:340567:0]        ib_iface.c:1059 UCX  ERROR ibv_create_cq(cqe=256) failed: Connection timed out
[1739902533.125592] [ohm:340656:0]        ib_iface.c:1059 UCX  ERROR ibv_create_cq(cqe=256) failed: Connection timed out
[1739902533.130308] [ohm:340559:0]        ib_iface.c:1059 UCX  ERROR ibv_create_cq(cqe=256) failed: Connection timed out
[1739902533.141563] [ohm:340580:0]        ib_iface.c:1059 UCX  ERROR ibv_create_cq(cqe=256) failed: Connection timed out
[1739902533.142094] [ohm:340658:0]        ib_iface.c:1059 UCX  ERROR ibv_create_cq(cqe=256) failed: Connection timed out
[1739902533.144187] [ohm:340562:0]        ib_iface.c:1059 UCX  ERROR ibv_create_cq(cqe=256) failed: Connection timed out
[1739902533.147478] [ohm:340647:0]        ib_iface.c:1059 UCX  ERROR ibv_create_cq(cqe=256) failed: Connection timed out
[1739902533.151808] [ohm:340676:0]        ib_iface.c:1059 UCX  ERROR ibv_create_cq(cqe=256) failed: Connection timed out
[1739902533.152427] [ohm:340622:0]        ib_iface.c:1059 UCX  ERROR ibv_create_cq(cqe=256) failed: Connection timed out
[1739902533.152711] [ohm:340694:0]        ib_iface.c:1059 UCX  ERROR ibv_create_cq(cqe=256) failed: Connection timed out
[1739902533.156194] [ohm:340585:0]        ib_iface.c:1059 UCX  ERROR ibv_create_cq(cqe=256) failed: Connection timed out
[1739902533.156884] [ohm:340662:0]        ib_iface.c:1059 UCX  ERROR ibv_create_cq(cqe=256) failed: Connection timed out
[1739902533.156959] [ohm:340685:0]        ib_iface.c:1059 UCX  ERROR ibv_create_cq(cqe=256) failed: Connection timed out
[1739902533.157863] [ohm:340612:0]        ib_iface.c:1059 UCX  ERROR ibv_create_cq(cqe=256) failed: Connection timed out
[1739902533.159272] [ohm:340672:0]        ib_iface.c:1059 UCX  ERROR ibv_create_cq(cqe=256) failed: Connection timed out
[1739902533.159629] [ohm:340700:0]        ib_iface.c:1059 UCX  ERROR ibv_create_cq(cqe=256) failed: Connection timed out

--------------------------------
SUGGESTED CITATIONS FOR THIS RUN
--------------------------------

Below you find a list of papers that are relevant to this ORCA run
We neither can nor want to force you to cite these papers, but we appreciate if you do
You receive ORCA, which is the product of decades of hard work by many enthusiastic individuals, for free
The only thing we kindly ask in return is that you cite our papers,
We deeply appreciate it, if you show your appreciation for ORCA by not just citing the generic ORCA reference.

Please note that relegating all ORCA citations to the supporting information does *not* help us.
SI sections are not indexed - citations you put there will not count into any citation statistics
But we need these citations in order to attract the funding resources that allow us to do what we are doing

Therefore, if you are a happy ORCA user, please consider citing a few of the papers listed below in the main body of your paper

In addition to the list printed below, the program has created the file orca.bibtex that contains the list in bibtex format
You can import this file easily into all common literature databanks and citation aid programs


List of essential papers. We consider these as the minimum necessary citations

  1. Neese,F.
     Software update: the ORCA program system, version 5.0
     WIRES Comput. Molec. Sci., 2022 12(1)e1606
     doi.org/10.1002/wcms.1606

List of papers to cite with high priority. The work reported in these papers was absolutely
necessary for this run to complete.
Our perspective: the developers of density functionals and basis sets usually get cited in chemistry papers
Good! But without the algorithms to do something with them, the functionals or basis sets would not do anything.
Hence, in our opinion, the algorithm design and method developments papers are equally worthy of getting cited

  1. Neese,F.; Olbrich,G.
     Efficient use of the resolution of the identity approximation in time-dependent density functional calculations with hybrid density functionals
     Chem. Phys. Lett., 2002 362 170-178
     doi.org/10.1016/s0009-2614(02)01053-9
  2. Neese,F.
     An improvement of the resolution of the identity approximation for the formation of the Coulomb matrix
     J. Comp. Chem., 2003 24(14)1740-1747
     doi.org/10.1002/jcc.10318
  3. Neese,F.; Wennmohs,F.; Hansen,A.; Becker,U.
     Efficient, approximate and parallel Hartree-Fock and hybrid DFT calculations. A 'chain-of-spheres' algorithm for the Hartree-Fock exchange
     Chem. Phys., 2009 356(1-3)98-109
     doi.org/10.1016/j.chemphys.2008.10.036
  4. Petrenko,T.; Kossmann,S.; Neese,F.
     Efficient time-dependent density functional theory approximations for hybrid density functionals: Analytical gradients and parallelization
     J. Chem. Phys., 2011 134 054116
     doi.org/10.1063/1.3533441
  5. Helmich-Paris,B.; de Souza,B.; Neese,F.; Izsák,R.
     An improved chain of spheres for exchange algorithm
     J. Chem. Phys., 2021 155 104109
     doi.org/doi: 10.1063/5.0058766.
  6. Neese,F.
     The SHARK Integral Generation and Digestion System
     J. Comp. Chem., 2022  1-16
     doi.org/10.1002/jcc.26942
  7. Lehtola,S.; Steigemann,C.; Oliveira,M.; Marques,M.
     Recent developments in Libxc - A comprehensive library of functionals for density functional theory
     Software X, 2018 7 
     doi.org/10.1016/j.softx.2017.11.002
  8. Grimme,S.; Antony,J.; Ehrlich,S.; Krieg,H.
     A consistent and accurate ab initio parametrization of density functional dispersion correction (DFT-D) for the 94 elements H-Pu
     J. Chem. Phys., 2010 132 154104-XXXX
     doi.org/10.1063/1.3382344
  9. Grimme,S.; Ehrlich,S.; Goerigk,L.
     Effect of the damping function in dispersion corrected density functional theory
     J. Comput. Chem., 2011 32(7)1456-1465
     doi.org/10.1002/jcc.21759

List of suggested additional citations. These are papers that are important in the 'surrounding' of 
of this run, or papers that preceded the highly important papers. If you like your results we are grateful for a citation.

  1. Izsak,R.; Neese,F.
     An overlap fitted chain of spheres exchange method
     J. Chem. Phys., 2011 135 144105
     doi.org/10.1063/1.3646921
  2. Izsak,R.; Hansen,A.; Neese,F.
     The resolution of identity and chain of spheres approximations for the LPNO-CCSD singles Fock term
     Molec. Phys., 2012 110 2413-2417
     doi.org/10.1080/00268976.2012.687466
  3. Neese,F.
     The ORCA program system
     WIRES Comput. Molec. Sci., 2012 2(1)73-78
     doi.org/10.1002/wcms.81
  4. Izsak,R.; Neese,F.; Klopper,W.
     Robust fitting techniques in the chain of spheres approximation to the Fock exchange: The role of the complementary space
     J. Chem. Phys., 2013 139 
     doi.org/10.1063/1.4819264
  5. Neese,F.
     Software update: the ORCA program system, version 4.0
     WIRES Comput. Molec. Sci., 2018 8(1)1-6
     doi.org/10.1002/wcms.1327
  6. Neese,F.; Wennmohs,F.; Becker,U.; Riplinger,C.
     The ORCA quantum chemistry program package
     J. Chem. Phys., 2020 152 Art. No. L224108
     doi.org/10.1063/5.0004608

List of optional additional citations

  1. Neese,F.
     Approximate second-order SCF convergence for spin unrestricted wavefunctions
     Chem. Phys. Lett., 2000 325(1-3)93-98
     doi.org/10.1016/s0009-2614(00)00662-x

Timings for individual modules:

Sum of individual times          ...      319.210 sec (=   5.320 min)
Startup calculation              ...        6.290 sec (=   0.105 min)   2.0 %
SCF iterations                   ...      160.924 sec (=   2.682 min)  50.4 %
Property integrals               ...        4.314 sec (=   0.072 min)   1.4 %
Property calculations            ...        2.835 sec (=   0.047 min)   0.9 %
CIS module                       ...      144.847 sec (=   2.414 min)  45.4 %
                             ****ORCA TERMINATED NORMALLY****
TOTAL RUN TIME: 0 days 0 hours 5 minutes 21 seconds 238 msec
