
                                 *****************
                                 * O   R   C   A *
                                 *****************

                                            #,                                       
                                            ###                                      
                                            ####                                     
                                            #####                                    
                                            ######                                   
                                           ########,                                 
                                     ,,################,,,,,                         
                               ,,#################################,,                 
                          ,,##########################################,,             
                       ,#########################################, ''#####,          
                    ,#############################################,,   '####,        
                  ,##################################################,,,,####,       
                ,###########''''           ''''###############################       
              ,#####''   ,,,,##########,,,,          '''####'''          '####       
            ,##' ,,,,###########################,,,                        '##       
           ' ,,###''''                  '''############,,,                           
         ,,##''                                '''############,,,,        ,,,,,,###''
      ,#''                                            '''#######################'''  
     '                                                          ''''####''''         
             ,#######,   #######,   ,#######,      ##                                
            ,#'     '#,  ##    ##  ,#'     '#,    #''#        ,####,   ,####,        
            ##       ##  ##   ,#'  ##            #'  '#       #'       #'  '#        
            ##       ##  #######   ##           ,######,      #####,   #    #        
            '#,     ,#'  ##    ##  '#,     ,#' ,#      #,     #,   #   #,  ,#        
             '#######'   ##     ##  '#######'  #'      '#     '####' # '####'        



                #########################################################
                #                        -***-                          #
                #          Department of theory and spectroscopy        #
                #                                                       #
                #                      Frank Neese                      #
                #                                                       #
                #     Directorship, Architecture, Infrastructure        #
                #                    SHARK, DRIVERS                     #
                #        Core code/Algorithms in most modules           #
                #                                                       #
                #        Max Planck Institute fuer Kohlenforschung      #
                #                Kaiser Wilhelm Platz 1                 #
                #                 D-45470 Muelheim/Ruhr                 #
                #                      Germany                          #
                #                                                       #
                #                  All rights reserved                  #
                #                        -***-                          #
                #########################################################


                         Program Version 6.0.0  -   RELEASE  -


 With contributions from (in alphabetic order):
   Daniel Aravena         : Magnetic Suceptibility
   Michael Atanasov       : Ab Initio Ligand Field Theory (pilot matlab implementation)
   Alexander A. Auer      : GIAO ZORA, VPT2 properties, NMR spectrum
   Ute Becker             : All parallelization in ORCA, NUMFREQ, NUMCALC
   Giovanni Bistoni       : ED, misc. LED, open-shell LED, HFLD
   Martin Brehm           : Molecular dynamics
   Dmytro Bykov           : pre 5.0 version of the SCF Hessian
   Marcos Casanova-Páez   : Triplet and SCS-CIS(D). UHF-(DLPNO)-IP/EA/STEOM-CCSD. UHF-CVS-IP/STEOM-CCSD
   Vijay G. Chilkuri      : MRCI spin determinant printing, contributions to CSF-ICE
   Pauline Colinet        : FMM embedding
   Dipayan Datta          : RHF DLPNO-CCSD density
   Achintya Kumar Dutta   : EOM-CC, STEOM-CC
   Nicolas Foglia         : Exact transition moments, OPA infrastructure, MCD improvements
   Dmitry Ganyushin       : Spin-Orbit,Spin-Spin,Magnetic field MRCI
   Miquel Garcia          : C-PCM and meta-GGA Hessian, CCSD/C-PCM, Gaussian charge scheme
   Tiago L. C. Gouveia    : GS-ROHF, GS-ROCIS
   Yang Guo               : DLPNO-NEVPT2, F12-NEVPT2, CIM, IAO-localization
   Andreas Hansen         : Spin unrestricted coupled pair/coupled cluster methods
   Ingolf Harden          : AUTO-CI MPn and infrastructure 
   Benjamin Helmich-Paris : MC-RPA, TRAH-(SCF,CASSCF), AVAS, COSX integrals, SCF dyn. polar.
   Lee Huntington         : MR-EOM, pCC
   Robert Izsak           : Overlap fitted RIJCOSX, COSX-SCS-MP3, EOM
   Riya Kayal             : Wick's Theorem for AUTO-CI, AUTO-CI UHF-CCSDT
   Emily Kempfer          : AUTO-CI, RHF CISDT and CCSDT
   Christian Kollmar      : KDIIS, OOCD, Brueckner-CCSD(T), CCSD density, CASPT2, CASPT2-K, improved NEVPT2
   Axel Koslowski         : Symmetry handling
   Simone Kossmann        : Meta GGA functionals, TD-DFT gradient, OOMP2, (MP2 Hessian; deprecated post 5.0)
   Lucas Lang             : DCDCAS
   Marvin Lechner         : AUTO-CI (C++ implementation), FIC-MRCC
   Spencer Leger          : CASSCF response
   Dagmar Lenk            : GEPOL surface, SMD, ORCA-2-JSON
   Dimitrios Liakos       : Extrapolation schemes; Compound Job, initial MDCI parallelization
   Dimitrios Manganas     : Further ROCIS development; embedding schemes. LFT, Crystal Embedding
   Dimitrios Pantazis     : SARC Basis sets
   Anastasios Papadopoulos: AUTO-CI, single reference methods and gradients
   Taras Petrenko         : pre 6.0 DFT Hessian and TD-DFT gradient, (ASA, deprecated), ECA, 1-Electron XAS/XES, NRVS
   Peter Pinski           : DLPNO-MP2, DLPNO-MP2 Gradient
   Christoph Reimann      : Effective Core Potentials
   Marius Retegan         : Local ZFS, SOC
   Christoph Riplinger    : Optimizer, TS searches, QM/MM, DLPNO-CCSD(T), (RO)-DLPNO pert. Triples
   Michael Roemelt        : Original ROCIS implementation
   Masaaki Saitow         : Open-shell DLPNO-CCSD energy and density
   Barbara Sandhoefer     : DKH picture change effects
   Kantharuban Sivalingam : CASSCF convergence/infrastructure, NEVPT2 and variants, FIC-MRCI
   Bernardo de Souza      : ESD, SOC TD-DFT
   Georgi Stoychev        : AutoAux, RI-MP2 NMR, DLPNO-MP2 response, X2C
   Van Anh Tran           : RI-MP2 g-tensors
   Willem Van den Heuvel  : Paramagnetic NMR
   Zikuan Wang            : NOTCH, Electric field optimization 
   Frank Wennmohs         : Technical directorship and infrastructure
   Hang Xu                : AUTO-CI-Response properties 


 We gratefully acknowledge several colleagues who have allowed us to
 interface, adapt or use parts of their codes:
   Stefan Grimme, W. Hujo, H. Kruse, P. Pracht,  : VdW corrections, initial TS optimization,
                  C. Bannwarth, S. Ehlert,         DFT functionals, gCP, sTDA/sTD-DF
                  L. Wittmann, M. Mueller
   Ed Valeev, F. Pavosevic, A. Kumar             : LibInt (2-el integral package), F12 methods
   Garnet Chan, S. Sharma, J. Yang, R. Olivares  : DMRG
   Ulf Ekstrom                                   : XCFun DFT Library
   Mihaly Kallay                                 : mrcc  (arbitrary order and MRCC methods)
   Frank Weinhold                                : gennbo (NPA and NBO analysis)
   Simon Mueller                                 : openCOSMO-RS
   Christopher J. Cramer and Donald G. Truhlar   : smd solvation model
   Lars Goerigk                                  : TD-DFT with DH, B97 family of functionals
   V. Asgeirsson, H. Jonsson                     : NEB implementation
   FAccTs GmbH                                   : IRC, NEB, NEB-TS, DLPNO-Multilevel, CI-OPT
                                                   MM, QMMM, 2- and 3-layer-ONIOM, Crystal-QMMM,
                                                   LR-CPCM, SF, NACMEs, symmetry and pop. for TD-DFT,
                                                   nearIR, NL-DFT gradient (VV10), updates on ESD,
                                                   ML-optimized integration grids, MBIS, APM,
                                                   GOAT, DOCKER, SOLVATOR, interface openCOSMO-RS
   S Lehtola, MJT Oliveira, MAL Marques          : LibXC Library
   Liviu Ungur et al                             : ANISO software


 Your calculation uses the libint2 library for the computation of 2-el integrals
 For citations please refer to: http://libint.valeyev.net

 Your ORCA version has been built with support for libXC version: 6.2.2
 For citations please refer to: https://libxc.gitlab.io

 This ORCA versions uses:
   CBLAS   interface :  Fast vector & matrix operations
   LAPACKE interface :  Fast linear algebra routines
   SCALAPACK package :  Parallel linear algebra routines
   Shared memory     :  Shared parallel matrices
   BLAS/LAPACK       :  OpenBLAS 0.3.27  USE64BITINT DYNAMIC_ARCH NO_AFFINITY Zen SINGLE_THREADED
        Core in use  :  Zen
   Copyright (c) 2011-2014, The OpenBLAS Project


Your calculation utilizes the atom-pairwise dispersion correction
with the Becke-Johnson damping scheme (D3BJ)


Warning: RI is on but no J-basis has been assigned. Assigning Def2/J (nothing to worry about!)
================================================================================

----- Orbital basis set information -----
Your calculation utilizes the basis: def2-TZVPPD
   F. Weigend and R. Ahlrichs, Phys. Chem. Chem. Phys. 7, 3297 (2005).
   D. Rappoport and F. Furche, J. Chem. Phys. 133, 134105 (2010)
   D. Rappoport, J. Chem. Phys. 155, 124102 (2021).

----- AuxJ basis set information -----
Your calculation utilizes the auxiliary basis: def2/J
   F. Weigend, Phys. Chem. Chem. Phys. 8, 1057 (2006).

================================================================================
                                        WARNINGS
                       Please study these warnings very carefully!
================================================================================

Using LibXC functional ID 531 : wB97M-V exchange-correlation functional
[ 1]  N. Mardirossian and M. Head-Gordon.,  J. Chem. Phys. 144, 214110 (2016)
Using LibXC functional ID 531 : wB97M-V exchange-correlation functional
[ 1]  N. Mardirossian and M. Head-Gordon.,  J. Chem. Phys. 144, 214110 (2016)

WARNING: B97M-V or wB97M-V functional requested.
  ===> : libXC variant has now been activated.
         Any manually given DFX/HFX/RangeSep scaling parameters are IGNORED!

Your calculation utilizes LibXC
 by S Lehtola, C Steigemann, MJT Oliveira & MAL Marques
Please cite in your paper:
 S Lehtola, C Steigemann, MJT Oliveira & MAL Marques, SoftwareX, 7, (2018), 1.
   


WARNING: your system is open-shell and RHF/RKS was chosen
  ===> : WILL SWITCH to UHF/UKS

INFO   : Checking CIS options ...

WARNING: CIS/ROCIS methods need fully converged wavefunctions
  ===> : Setting SCFConvForced true
         You can overwrite this default with %scf ConvForced false 


================================================================================
                                       INPUT FILE
================================================================================
NAME = orca.inp
|  1> ! Engrad def2-TZVPPD wB97M-D3BJ 
|  2> %pal nprocs 8 end%pal nprocs 32 end 
|  3> %tddft Nroots 2 Iroot 2 
|  4> sf true 
|  5> end 
|  6> *xyz 0 3 
|  7> O   -0.1651358 0.978529 -0.23925181
|  8> C   0.77646556 -0.84654497 0.03604854
|  9> C   -0.60322546 -0.28235779 0.23057917
| 10> H   1.27813864 -1.30222428 0.83571385
| 11> H   0.86139363 -1.05271725 -1.00072216
| 12> H   -1.42834463 -0.50119329 -0.50131525
| 13> H   -1.04096598 -0.33221436 1.28996614
| 14> *
| 15> 
| 16>                          ****END OF INPUT****
================================================================================

                     *******************************
                     * Energy+Gradient Calculation *
                     *******************************

---------------------------------
CARTESIAN COORDINATES (ANGSTROEM)
---------------------------------
  O     -0.165136    0.978529   -0.239252
  C      0.776466   -0.846545    0.036049
  C     -0.603225   -0.282358    0.230579
  H      1.278139   -1.302224    0.835714
  H      0.861394   -1.052717   -1.000722
  H     -1.428345   -0.501193   -0.501315
  H     -1.040966   -0.332214    1.289966

----------------------------
CARTESIAN COORDINATES (A.U.)
----------------------------
  NO LB      ZA    FRAG     MASS         X           Y           Z
   0 O     8.0000    0    15.999   -0.312061    1.849152   -0.452120
   1 C     6.0000    0    12.011    1.467307   -1.599738    0.068122
   2 C     6.0000    0    12.011   -1.139931   -0.533579    0.435731
   3 H     1.0000    0     1.008    2.415332   -2.460847    1.579270
   4 H     1.0000    0     1.008    1.627798   -1.989347   -1.891091
   5 H     1.0000    0     1.008   -2.699180   -0.947118   -0.947349
   6 H     1.0000    0     1.008   -1.967141   -0.627794    2.437683

--------------------------------
INTERNAL COORDINATES (ANGSTROEM)
--------------------------------
 O      0   0   0     0.000000000000     0.00000000     0.00000000
 C      1   0   0     2.072027605954     0.00000000     0.00000000
 C      1   2   0     1.415096886140    46.50774756     0.00000000
 H      2   1   3     1.048229040227   134.56757799   271.05065008
 H      2   1   3     1.060477850072    94.45876541   108.51373216
 H      3   1   2     1.124446558441   100.63050783   238.22248251
 H      3   1   2     1.147346152052   117.60620014   121.02609809

---------------------------
INTERNAL COORDINATES (A.U.)
---------------------------
 O      0   0   0     0.000000000000     0.00000000     0.00000000
 C      1   0   0     3.915564717178     0.00000000     0.00000000
 C      1   2   0     2.674145567769    46.50774756     0.00000000
 H      2   1   3     1.980865811653   134.56757799   271.05065008
 H      2   1   3     2.004012707725    94.45876541   108.51373216
 H      3   1   2     2.124896047683   100.63050783   238.22248251
 H      3   1   2     2.168170008186   117.60620014   121.02609809

---------------------
BASIS SET INFORMATION
---------------------
There are 3 groups of distinct atoms

 Group   1 Type O   : 12s7p3d1f contracted to 6s4p3d1f pattern {621111/4111/111/1}
 Group   2 Type C   : 12s6p3d1f contracted to 6s3p3d1f pattern {621111/411/111/1}
 Group   3 Type H   : 5s3p1d contracted to 3s3p1d pattern {311/111/1}

Atom   0O    basis set group =>   1
Atom   1C    basis set group =>   2
Atom   2C    basis set group =>   2
Atom   3H    basis set group =>   3
Atom   4H    basis set group =>   3
Atom   5H    basis set group =>   3
Atom   6H    basis set group =>   3
---------------------------------
AUXILIARY/J BASIS SET INFORMATION
---------------------------------
There are 3 groups of distinct atoms

 Group   1 Type O   : 12s5p4d2f1g contracted to 6s4p3d1f1g pattern {711111/2111/211/2/1}
 Group   2 Type C   : 12s5p4d2f1g contracted to 6s4p3d1f1g pattern {711111/2111/211/2/1}
 Group   3 Type H   : 5s2p1d contracted to 3s1p1d pattern {311/2/1}

Atom   0O    basis set group =>   1
Atom   1C    basis set group =>   2
Atom   2C    basis set group =>   2
Atom   3H    basis set group =>   3
Atom   4H    basis set group =>   3
Atom   5H    basis set group =>   3
Atom   6H    basis set group =>   3
[1741044057.928833] [ohm:360168:0]        ib_iface.c:1059 UCX  ERROR ibv_create_cq(cqe=256) failed: Connection timed out
[1741044057.928817] [ohm:360170:0]        ib_iface.c:1059 UCX  ERROR ibv_create_cq(cqe=256) failed: Connection timed out
[1741044057.928870] [ohm:360172:0]        ib_iface.c:1059 UCX  ERROR ibv_create_cq(cqe=256) failed: Connection timed out
[1741044057.928959] [ohm:360173:0]        ib_iface.c:1059 UCX  ERROR ibv_create_cq(cqe=256) failed: Connection timed out
[1741044057.935305] [ohm:360177:0]        ib_iface.c:1059 UCX  ERROR ibv_create_cq(cqe=256) failed: Connection timed out
[1741044057.937156] [ohm:360175:0]        ib_iface.c:1059 UCX  ERROR ibv_create_cq(cqe=256) failed: Connection timed out
[1741044057.949481] [ohm:360169:0]        ib_iface.c:1059 UCX  ERROR ibv_create_cq(cqe=256) failed: Connection timed out
[1741044057.951704] [ohm:360171:0]        ib_iface.c:1059 UCX  ERROR ibv_create_cq(cqe=256) failed: Connection timed out
[1741044057.951723] [ohm:360174:0]        ib_iface.c:1059 UCX  ERROR ibv_create_cq(cqe=256) failed: Connection timed out
[1741044057.973656] [ohm:360178:0]        ib_iface.c:1059 UCX  ERROR ibv_create_cq(cqe=256) failed: Connection timed out
[1741044057.988245] [ohm:360192:0]        ib_iface.c:1059 UCX  ERROR ibv_create_cq(cqe=256) failed: Connection timed out
[1741044057.988279] [ohm:360184:0]        ib_iface.c:1059 UCX  ERROR ibv_create_cq(cqe=256) failed: Connection timed out
[1741044057.988326] [ohm:360197:0]        ib_iface.c:1059 UCX  ERROR ibv_create_cq(cqe=256) failed: Connection timed out
[1741044057.996477] [ohm:360185:0]        ib_iface.c:1059 UCX  ERROR ibv_create_cq(cqe=256) failed: Connection timed out
[1741044058.004304] [ohm:360194:0]        ib_iface.c:1059 UCX  ERROR ibv_create_cq(cqe=256) failed: Connection timed out
[1741044058.005234] [ohm:360176:0]        ib_iface.c:1059 UCX  ERROR ibv_create_cq(cqe=256) failed: Connection timed out
[1741044058.009162] [ohm:360198:0]        ib_iface.c:1059 UCX  ERROR ibv_create_cq(cqe=256) failed: Connection timed out
[1741044058.011492] [ohm:360208:0]        ib_iface.c:1059 UCX  ERROR ibv_create_cq(cqe=256) failed: Connection timed out
[1741044058.012349] [ohm:360202:0]        ib_iface.c:1059 UCX  ERROR ibv_create_cq(cqe=256) failed: Connection timed out
[1741044058.014533] [ohm:360203:0]        ib_iface.c:1059 UCX  ERROR ibv_create_cq(cqe=256) failed: Connection timed out
[1741044058.016906] [ohm:360199:0]        ib_iface.c:1059 UCX  ERROR ibv_create_cq(cqe=256) failed: Connection timed out
[1741044058.018181] [ohm:360205:0]        ib_iface.c:1059 UCX  ERROR ibv_create_cq(cqe=256) failed: Connection timed out
[1741044058.018285] [ohm:360201:0]        ib_iface.c:1059 UCX  ERROR ibv_create_cq(cqe=256) failed: Connection timed out
[1741044058.018287] [ohm:360211:0]        ib_iface.c:1059 UCX  ERROR ibv_create_cq(cqe=256) failed: Connection timed out
[1741044058.019255] [ohm:360215:0]        ib_iface.c:1059 UCX  ERROR ibv_create_cq(cqe=256) failed: Connection timed out
[1741044058.019286] [ohm:360195:0]        ib_iface.c:1059 UCX  ERROR ibv_create_cq(cqe=256) failed: Connection timed out
[1741044058.019344] [ohm:360196:0]        ib_iface.c:1059 UCX  ERROR ibv_create_cq(cqe=256) failed: Connection timed out
[1741044058.019520] [ohm:360191:0]        ib_iface.c:1059 UCX  ERROR ibv_create_cq(cqe=256) failed: Connection timed out
[1741044058.020013] [ohm:360200:0]        ib_iface.c:1059 UCX  ERROR ibv_create_cq(cqe=256) failed: Connection timed out
[1741044058.020036] [ohm:360219:0]        ib_iface.c:1059 UCX  ERROR ibv_create_cq(cqe=256) failed: Connection timed out
[1741044058.020331] [ohm:360181:0]        ib_iface.c:1059 UCX  ERROR ibv_create_cq(cqe=256) failed: Connection timed out
[1741044058.021028] [ohm:360204:0]        ib_iface.c:1059 UCX  ERROR ibv_create_cq(cqe=256) failed: Connection timed out


           ************************************************************
           *        Program running with 32 parallel MPI-processes    *
           *              working on a common directory               *
           ************************************************************
------------------------------------------------------------------------------
                             ORCA STARTUP CALCULATIONS
                           -- RI-GTO INTEGRALS CHOSEN --
------------------------------------------------------------------------------
------------------------------------------------------------------------------
                   ___                                                        
                  /   \      - P O W E R E D   B Y -                         
                 /     \                                                     
                 |  |  |   _    _      __       _____    __    __             
                 |  |  |  | |  | |    /  \     |  _  \  |  |  /  |          
                  \  \/   | |  | |   /    \    | | | |  |  | /  /          
                 / \  \   | |__| |  /  /\  \   | |_| |  |  |/  /          
                |  |  |   |  __  | /  /__\  \  |    /   |      \           
                |  |  |   | |  | | |   __   |  |    \   |  |\   \          
                \     /   | |  | | |  |  |  |  | |\  \  |  | \   \       
                 \___/    |_|  |_| |__|  |__|  |_| \__\ |__|  \__/        
                                                                              
                      - O R C A' S   B I G   F R I E N D -                    
                                      &                                       
                       - I N T E G R A L  F E E D E R -                       
                                                                              
 v1 FN, 2020, v2 2021, v3 2022-2024                                           
------------------------------------------------------------------------------


----------------------
SHARK INTEGRAL PACKAGE
----------------------

Number of atoms                             ...      7
Number of basis functions                   ...    182
Number of shells                            ...     68
Maximum angular momentum                    ...      3
Integral batch strategy                     ... SHARK/LIBINT Hybrid
RI-J (if used) integral strategy            ... SPLIT-RIJ (Revised 2003 algorithm where possible)
Printlevel                                  ...      1
Contraction scheme used                     ... SEGMENTED contraction
Prescreening option                         ... SCHWARTZ
   Thresh                                   ... 2.500e-11
   Tcut                                     ... 2.500e-12
   Tpresel                                  ... 2.500e-12 
Coulomb Range Separation                    ... NOT USED
Exchange Range Separation                   ... Long Range
   Mu parameter                             ... 3.000e-01
   Scaling (regular/separated)              ... 1.500e-01 8.500e-01
Multipole approximations                    ... NOT USED
Finite Nucleus Model                        ... NOT USED
CABS basis                                  ... NOT available
Auxiliary Coulomb fitting basis             ... AVAILABLE
   # of basis functions in Aux-J            ...    191
   # of shells in Aux-J                     ...     65
   Maximum angular momentum in Aux-J        ...      4
Auxiliary J/K fitting basis                 ... NOT available
Auxiliary Correlation fitting basis         ... NOT available
Auxiliary 'external' fitting basis          ... NOT available

Checking pre-screening integrals            ... done (  0.0 sec) Dimension = 68
Check shell pair data                       ... done (  0.0 sec)
Shell pair information
Shell pair cut-off parameter TPreSel        ...   2.5e-12
Total number of shell pairs                 ...      2346
Shell pairs after pre-screening             ...      2333
Total number of primitive shell pairs       ...      5434
Primitive shell pairs kept                  ...      4850
          la=0 lb=0:    456 shell pairs
          la=1 lb=0:    658 shell pairs
          la=1 lb=1:    253 shell pairs
          la=2 lb=0:    388 shell pairs
          la=2 lb=1:    286 shell pairs
          la=2 lb=2:     91 shell pairs
          la=3 lb=0:     90 shell pairs
          la=3 lb=1:     66 shell pairs
          la=3 lb=2:     39 shell pairs
          la=3 lb=3:      6 shell pairs

Calculating one electron integrals          ... done (  0.0 sec)
Calculating RI/J V-Matrix + Cholesky decomp.... done (  0.0 sec)
Calculating Nuclear repulsion               ... done (  0.0 sec) ENN=     68.886336418571 Eh

Diagonalization of the overlap matrix:
Smallest eigenvalue                        ... 1.985e-05
Time for diagonalization                   ...    0.003 sec
Threshold for overlap eigenvalues          ... 1.000e-07
Number of eigenvalues below threshold      ... 0
Time for construction of square roots      ...    0.002 sec
Total time needed                          ...    0.006 sec

-------------------
DFT GRID GENERATION
-------------------

General Integration Accuracy     IntAcc      ... 4.388
Radial Grid Type                 RadialGrid  ... OptM3 with GC (2021)
Angular Grid (max. ang.)         AngularGrid ... 4 (Lebedev-302)
Angular grid pruning method      GridPruning ... 4 (adaptive)
Weight generation scheme         WeightScheme... mBecke (2022)
Basis function cutoff            BFCut       ... 1.0000e-11
Integration weight cutoff        WCut        ... 1.0000e-14
Partially contracted basis set               ... off
Rotationally invariant grid construction     ... off
Angular grids for H and He will be reduced by one unit
Diffuse basis detected: some atoms will have their outermost
                        angular grid increased by 1.

Total number of grid points                  ...    33137
Total number of batches                      ...      521
Average number of points per batch           ...       63
Average number of grid points per atom       ...     4734

--------------------
COSX GRID GENERATION
--------------------

GRIDX 1
-------
General Integration Accuracy     IntAcc      ... 3.816
Radial Grid Type                 RadialGrid  ... OptM3 with GC (2021)
Angular Grid (max. ang.)         AngularGrid ... 1 (Lebedev-50)
Angular grid pruning method      GridPruning ... 4 (adaptive)
Weight generation scheme         WeightScheme... mBecke (2022)
Basis function cutoff            BFCut       ... 1.0000e-11
Integration weight cutoff        WCut        ... 1.0000e-14
Partially contracted basis set               ... on
Rotationally invariant grid construction     ... off
Angular grids for H and He will be reduced by one unit
Diffuse basis detected: some atoms will have their outermost
                        angular grid increased by 1.

Total number of grid points                  ...     4177
Total number of batches                      ...       37
Average number of points per batch           ...      112
Average number of grid points per atom       ...      597
UseSFitting                                  ... on

GRIDX 2
-------
General Integration Accuracy     IntAcc      ... 4.020
Radial Grid Type                 RadialGrid  ... OptM3 with GC (2021)
Angular Grid (max. ang.)         AngularGrid ... 2 (Lebedev-110)
Angular grid pruning method      GridPruning ... 4 (adaptive)
Weight generation scheme         WeightScheme... mBecke (2022)
Basis function cutoff            BFCut       ... 1.0000e-11
Integration weight cutoff        WCut        ... 1.0000e-14
Partially contracted basis set               ... on
Rotationally invariant grid construction     ... off
Angular grids for H and He will be reduced by one unit
Diffuse basis detected: some atoms will have their outermost
                        angular grid increased by 1.

Total number of grid points                  ...    10254
Total number of batches                      ...       85
Average number of points per batch           ...      120
Average number of grid points per atom       ...     1465
UseSFitting                                  ... on

GRIDX 3
-------
General Integration Accuracy     IntAcc      ... 4.338
Radial Grid Type                 RadialGrid  ... OptM3 with GC (2021)
Angular Grid (max. ang.)         AngularGrid ... 3 (Lebedev-194)
Angular grid pruning method      GridPruning ... 4 (adaptive)
Weight generation scheme         WeightScheme... mBecke (2022)
Basis function cutoff            BFCut       ... 1.0000e-11
Integration weight cutoff        WCut        ... 1.0000e-14
Partially contracted basis set               ... on
Rotationally invariant grid construction     ... off
Angular grids for H and He will be reduced by one unit
Diffuse basis detected: some atoms will have their outermost
                        angular grid increased by 1.

Total number of grid points                  ...    23103
Total number of batches                      ...      184
Average number of points per batch           ...      125
Average number of grid points per atom       ...     3300
UseSFitting                                  ... on
Initializing property integral containers    ... done (  0.0 sec)

SHARK setup successfully completed in   0.3 seconds

Maximum memory used throughout the entire STARTUP-calculation: 13.8 MB
[1741044059.111313] [ohm:360338:0]        ib_iface.c:1059 UCX  ERROR ibv_create_cq(cqe=256) failed: Connection timed out
[1741044059.111310] [ohm:360342:0]        ib_iface.c:1059 UCX  ERROR ibv_create_cq(cqe=256) failed: Connection timed out
[1741044059.111310] [ohm:360339:0]        ib_iface.c:1059 UCX  ERROR ibv_create_cq(cqe=256) failed: Connection timed out
[1741044059.111317] [ohm:360345:0]        ib_iface.c:1059 UCX  ERROR ibv_create_cq(cqe=256) failed: Connection timed out
[1741044059.111310] [ohm:360349:0]        ib_iface.c:1059 UCX  ERROR ibv_create_cq(cqe=256) failed: Connection timed out
[1741044059.111405] [ohm:360350:0]        ib_iface.c:1059 UCX  ERROR ibv_create_cq(cqe=256) failed: Connection timed out
[1741044059.115668] [ohm:360341:0]        ib_iface.c:1059 UCX  ERROR ibv_create_cq(cqe=256) failed: Connection timed out
[1741044059.115742] [ohm:360335:0]        ib_iface.c:1059 UCX  ERROR ibv_create_cq(cqe=256) failed: Connection timed out
[1741044059.124657] [ohm:360359:0]        ib_iface.c:1059 UCX  ERROR ibv_create_cq(cqe=256) failed: Connection timed out
[1741044059.134152] [ohm:360387:0]        ib_iface.c:1059 UCX  ERROR ibv_create_cq(cqe=256) failed: Connection timed out
[1741044059.150641] [ohm:360354:0]        ib_iface.c:1059 UCX  ERROR ibv_create_cq(cqe=256) failed: Connection timed out
[1741044059.150641] [ohm:360358:0]        ib_iface.c:1059 UCX  ERROR ibv_create_cq(cqe=256) failed: Connection timed out
[1741044059.150787] [ohm:360353:0]        ib_iface.c:1059 UCX  ERROR ibv_create_cq(cqe=256) failed: Connection timed out
[1741044059.150851] [ohm:360357:0]        ib_iface.c:1059 UCX  ERROR ibv_create_cq(cqe=256) failed: Connection timed out
[1741044059.162074] [ohm:360370:0]        ib_iface.c:1059 UCX  ERROR ibv_create_cq(cqe=256) failed: Connection timed out
[1741044059.162558] [ohm:360340:0]        ib_iface.c:1059 UCX  ERROR ibv_create_cq(cqe=256) failed: Connection timed out
[1741044059.168054] [ohm:360364:0]        ib_iface.c:1059 UCX  ERROR ibv_create_cq(cqe=256) failed: Connection timed out
[1741044059.172832] [ohm:360379:0]        ib_iface.c:1059 UCX  ERROR ibv_create_cq(cqe=256) failed: Connection timed out
[1741044059.178706] [ohm:360346:0]        ib_iface.c:1059 UCX  ERROR ibv_create_cq(cqe=256) failed: Connection timed out
[1741044059.179803] [ohm:360352:0]        ib_iface.c:1059 UCX  ERROR ibv_create_cq(cqe=256) failed: Connection timed out
[1741044059.180041] [ohm:360348:0]        ib_iface.c:1059 UCX  ERROR ibv_create_cq(cqe=256) failed: Connection timed out
[1741044059.180098] [ohm:360383:0]        ib_iface.c:1059 UCX  ERROR ibv_create_cq(cqe=256) failed: Connection timed out
[1741044059.180560] [ohm:360336:0]        ib_iface.c:1059 UCX  ERROR ibv_create_cq(cqe=256) failed: Connection timed out
[1741044059.180601] [ohm:360374:0]        ib_iface.c:1059 UCX  ERROR ibv_create_cq(cqe=256) failed: Connection timed out
[1741044059.183507] [ohm:360343:0]        ib_iface.c:1059 UCX  ERROR ibv_create_cq(cqe=256) failed: Connection timed out
[1741044059.183667] [ohm:360347:0]        ib_iface.c:1059 UCX  ERROR ibv_create_cq(cqe=256) failed: Connection timed out
[1741044059.183864] [ohm:360356:0]        ib_iface.c:1059 UCX  ERROR ibv_create_cq(cqe=256) failed: Connection timed out
[1741044059.184068] [ohm:360351:0]        ib_iface.c:1059 UCX  ERROR ibv_create_cq(cqe=256) failed: Connection timed out
[1741044059.184125] [ohm:360337:0]        ib_iface.c:1059 UCX  ERROR ibv_create_cq(cqe=256) failed: Connection timed out
[1741044059.184647] [ohm:360355:0]        ib_iface.c:1059 UCX  ERROR ibv_create_cq(cqe=256) failed: Connection timed out
[1741044059.184679] [ohm:360362:0]        ib_iface.c:1059 UCX  ERROR ibv_create_cq(cqe=256) failed: Connection timed out
[1741044059.184673] [ohm:360344:0]        ib_iface.c:1059 UCX  ERROR ibv_create_cq(cqe=256) failed: Connection timed out


           ************************************************************
           *        Program running with 32 parallel MPI-processes    *
           *              working on a common directory               *
           ************************************************************
-------------------------------------------------------------------------------
                                 ORCA GUESS
                   Start orbitals & Density for SCF / CASSCF
-------------------------------------------------------------------------------

------------
SCF SETTINGS
------------
Hamiltonian:
 Density Functional     Method          .... DFT(GTOs)
  Functional kind                       .... Exchange-Correlation
  Functional name                       .... wB97M-V exchange-correlation functional
  Functional family                     .... Hybrid MGGA
  Functional refs                              
    [ 0] N. Mardirossian and M. Head-Gordon.,  J. Chem. Phys. 144, 214110 (2016), doi: 10.1063/1.4952647
  Fraction of HF Exchange (short range) .... 0.1500
  Fraction of HF Exchange (long range)  .... 1.0000
  Range separation parameter mu         .... 0.3000
  Functional external parameters        .... 17
    Parameter  0 _cx00      =  8.500000e-01 : u^00 coefficient for exchange
    Parameter  1 _cx01      =  1.007000e+00 : u^01 coefficient for exchange
    Parameter  2 _cx10      =  2.590000e-01 : u^10 coefficient for exchange
    Parameter  3 _css00     =  4.430000e-01 : u^00 coefficient for same-spin correlation
    Parameter  4 _css04     = -1.437000e+00 : u^04 coefficient for same-spin correlation
    Parameter  5 _css10     = -4.535000e+00 : u^10 coefficient for same-spin correlation
    Parameter  6 _css20     = -3.390000e+00 : u^20 coefficient for same-spin correlation
    Parameter  7 _css43     =  4.278000e+00 : u^43 coefficient for same-spin correlation
    Parameter  8 _cos00     =  1.000000e+00 : u^00 coefficient for opposite-spin correlation
    Parameter  9 _cos10     =  1.358000e+00 : u^10 coefficient for opposite-spin correlation
    Parameter 10 _cos20     =  2.924000e+00 : u^20 coefficient for opposite-spin correlation
    Parameter 11 _cos21     = -8.812000e+00 : u^21 coefficient for opposite-spin correlation
    Parameter 12 _cos60     = -1.390000e+00 : u^60 coefficient for opposite-spin correlation
    Parameter 13 _cos61     =  9.142000e+00 : u^61 coefficient for opposite-spin correlation
    Parameter 14 _alpha     =  1.000000e+00 : fraction of HF exchange
    Parameter 15 _beta      = -8.500000e-01 : fraction of short-range exchange
    Parameter 16 _omega     =  3.000000e-01 : range-separation constant
 Long-range corrected/Screened/Range-Separated Hybrid DFT is turned on
   Amount of maximum screened exact exchange              ....  0.850000
   Range separation parameter mu (erf(mu*r12)/r12)        ....  0.300000
 RI-approximation to the Coulomb term is turned on
   Number of AuxJ basis functions       .... 191
   RIJ-COSX (HFX calculated with COS-X)).... on


General Settings:
 Integral files         IntName         .... orca
 Hartree-Fock type      HFTyp           .... UHF
 Total Charge           Charge          ....    0
 Multiplicity           Mult            ....    3
 Number of Electrons    NEL             ....   24
 Basis Dimension        Dim             ....  182
 Nuclear Repulsion      ENuc            ....     68.8863364186 Eh

Convergence Acceleration:
 AO-DIIS                CNVDIIS         .... on
   Start iteration      DIISMaxIt       ....    12
   Startup error        DIISStart       ....  0.200000
   # of expansion vecs  DIISMaxEq       ....     5
   Bias factor          DIISBfac        ....   1.050
   Max. coefficient     DIISMaxC        ....  10.000
 MO-DIIS                CNVKDIIS        .... off
 Trust-Rad. Augm. Hess. CNVTRAH         .... auto
   Auto Start mean grad. ratio tolernc. ....  1.125000
   Auto Start start iteration           ....    50
   Auto Start num. interpolation iter.  ....    10
   Max. Number of Micro iterations      ....    24
   Max. Number of Macro iterations      .... Maxiter - #DIIS iter
   Number of Davidson start vectors     ....     2
   Converg. threshold    (grad. norm)   ....   1.000e-05
   Grad. Scal. Fac. for Micro threshold ....   0.100
   Minimum threshold for Micro iter.    ....   1.000e-02
   NR start threshold (gradient norm)   ....   1.000e-04
   Initial trust radius                 ....   0.400
   Minimum AH scaling param. (alpha)    ....   1.000
   Maximum AH scaling param. (alpha)    .... 1000.000
   Quad. conv. algorithm                .... NR
   White noise on init. David. guess    .... on
   Maximum white noise                  ....   0.010
   Pseudo random numbers                .... off
   Inactive MOs                         .... canonical
   Orbital update algorithm             .... Taylor
   Preconditioner                       .... Diag
   Full preconditioner red. dimension   ....   250
 SOSCF                  CNVSOSCF        .... on
   Start iteration      SOSCFMaxIt      ....   150
   Startup grad/error   SOSCFStart      ....  0.003300
   Hessian update       SOSCFHessUp     .... L-BFGS
 Level Shifting         CNVShift        .... on
   Level shift para.    LevelShift      ....    0.2500
   Turn off err/grad.   ShiftErr        ....    0.0010
 Zerner damping         CNVZerner       .... off
 Static damping         CNVDamp         .... on
   Fraction old density DampFac         ....    0.7000
   Max. Damping (<1)    DampMax         ....    0.9800
   Min. Damping (>=0)   DampMin         ....    0.0000
   Turn off err/grad.   DampErr         ....    0.1000

SCF Procedure:
 Maximum # iterations   MaxIter         ....   125
 SCF integral mode      SCFMode         .... Direct
   Integral package                     .... SHARK and LIBINT hybrid scheme
 Reset frequency        DirectResetFreq ....    20
 Integral Threshold     Thresh          ....  2.500e-11 Eh
 Primitive CutOff       TCut            ....  2.500e-12 Eh

Convergence Tolerance:
 Convergence Check Mode ConvCheckMode   .... Total+1el-Energy
 Convergence forced     ConvForced      .... 1
 Energy Change          TolE            ....  1.000e-08 Eh
 1-El. energy change                    ....  1.000e-05 Eh
 Orbital Gradient       TolG            ....  1.000e-05
 Orbital Rotation angle TolX            ....  1.000e-05
 DIIS Error             TolErr          ....  5.000e-07

------------------------------
INITIAL GUESS: MODEL POTENTIAL
------------------------------
Loading Hartree-Fock densities                     ... done
Calculating cut-offs                               ... done
Initializing the effective Hamiltonian             ... done
Setting up the integral package (SHARK)            ... done
Starting the Coulomb interaction                   ... done (   0.0 sec)
Making the grid                                    ... done (   0.0 sec)
Mapping shells                                     ... done
Starting the XC term evaluation                    ... done (   0.0 sec)
  promolecular density results
     # of electrons  =     23.998117906
     EX              =    -19.448905115
     EC              =     -0.765553430
     EX+EC           =    -20.214458545
Transforming the Hamiltonian                       ... done (   0.0 sec)
Diagonalizing the Hamiltonian                      ... done (   0.0 sec)
Back transforming the eigenvectors                 ... done (   0.0 sec)
Now organizing SCF variables                       ... done
                      ------------------
                      INITIAL GUESS DONE (   0.1 sec)
                      ------------------
             **** ENERGY FILE WAS UPDATED (orca.en.tmp) ****
Finished Guess after   0.6 sec
Maximum memory used throughout the entire GUESS-calculation: 9.6 MB
[1741044060.073567] [ohm:360518:0]        ib_iface.c:1059 UCX  ERROR ibv_create_cq(cqe=256) failed: Connection timed out
[1741044060.079836] [ohm:360506:0]        ib_iface.c:1059 UCX  ERROR ibv_create_cq(cqe=256) failed: Connection timed out
[1741044060.081022] [ohm:360505:0]        ib_iface.c:1059 UCX  ERROR ibv_create_cq(cqe=256) failed: Connection timed out
[1741044060.095920] [ohm:360532:0]        ib_iface.c:1059 UCX  ERROR ibv_create_cq(cqe=256) failed: Connection timed out
[1741044060.096036] [ohm:360558:0]        ib_iface.c:1059 UCX  ERROR ibv_create_cq(cqe=256) failed: Connection timed out
[1741044060.111969] [ohm:360517:0]        ib_iface.c:1059 UCX  ERROR ibv_create_cq(cqe=256) failed: Connection timed out
[1741044060.118081] [ohm:360521:0]        ib_iface.c:1059 UCX  ERROR ibv_create_cq(cqe=256) failed: Connection timed out
[1741044060.119534] [ohm:360511:0]        ib_iface.c:1059 UCX  ERROR ibv_create_cq(cqe=256) failed: Connection timed out
[1741044060.119661] [ohm:360508:0]        ib_iface.c:1059 UCX  ERROR ibv_create_cq(cqe=256) failed: Connection timed out
[1741044060.120598] [ohm:360522:0]        ib_iface.c:1059 UCX  ERROR ibv_create_cq(cqe=256) failed: Connection timed out
[1741044060.120772] [ohm:360537:0]        ib_iface.c:1059 UCX  ERROR ibv_create_cq(cqe=256) failed: Connection timed out
[1741044060.126952] [ohm:360504:0]        ib_iface.c:1059 UCX  ERROR ibv_create_cq(cqe=256) failed: Connection timed out
[1741044060.135340] [ohm:360514:0]        ib_iface.c:1059 UCX  ERROR ibv_create_cq(cqe=256) failed: Connection timed out
[1741044060.138186] [ohm:360548:0]        ib_iface.c:1059 UCX  ERROR ibv_create_cq(cqe=256) failed: Connection timed out
[1741044060.139478] [ohm:360525:0]        ib_iface.c:1059 UCX  ERROR ibv_create_cq(cqe=256) failed: Connection timed out
[1741044060.140355] [ohm:360519:0]        ib_iface.c:1059 UCX  ERROR ibv_create_cq(cqe=256) failed: Connection timed out
[1741044060.140441] [ohm:360528:0]        ib_iface.c:1059 UCX  ERROR ibv_create_cq(cqe=256) failed: Connection timed out
[1741044060.140519] [ohm:360513:0]        ib_iface.c:1059 UCX  ERROR ibv_create_cq(cqe=256) failed: Connection timed out
[1741044060.142430] [ohm:360553:0]        ib_iface.c:1059 UCX  ERROR ibv_create_cq(cqe=256) failed: Connection timed out
[1741044060.142726] [ohm:360510:0]        ib_iface.c:1059 UCX  ERROR ibv_create_cq(cqe=256) failed: Connection timed out
[1741044060.142716] [ohm:360512:0]        ib_iface.c:1059 UCX  ERROR ibv_create_cq(cqe=256) failed: Connection timed out
[1741044060.144213] [ohm:360520:0]        ib_iface.c:1059 UCX  ERROR ibv_create_cq(cqe=256) failed: Connection timed out
[1741044060.145050] [ohm:360524:0]        ib_iface.c:1059 UCX  ERROR ibv_create_cq(cqe=256) failed: Connection timed out
[1741044060.145210] [ohm:360526:0]        ib_iface.c:1059 UCX  ERROR ibv_create_cq(cqe=256) failed: Connection timed out
[1741044060.145189] [ohm:360543:0]        ib_iface.c:1059 UCX  ERROR ibv_create_cq(cqe=256) failed: Connection timed out
[1741044060.145271] [ohm:360530:0]        ib_iface.c:1059 UCX  ERROR ibv_create_cq(cqe=256) failed: Connection timed out
[1741044060.145605] [ohm:360509:0]        ib_iface.c:1059 UCX  ERROR ibv_create_cq(cqe=256) failed: Connection timed out
[1741044060.145858] [ohm:360516:0]        ib_iface.c:1059 UCX  ERROR ibv_create_cq(cqe=256) failed: Connection timed out
[1741044060.145870] [ohm:360515:0]        ib_iface.c:1059 UCX  ERROR ibv_create_cq(cqe=256) failed: Connection timed out
[1741044060.145850] [ohm:360538:0]        ib_iface.c:1059 UCX  ERROR ibv_create_cq(cqe=256) failed: Connection timed out
[1741044060.146026] [ohm:360507:0]        ib_iface.c:1059 UCX  ERROR ibv_create_cq(cqe=256) failed: Connection timed out
[1741044060.146219] [ohm:360523:0]        ib_iface.c:1059 UCX  ERROR ibv_create_cq(cqe=256) failed: Connection timed out


           ************************************************************
           *        Program running with 32 parallel MPI-processes    *
           *              working on a common directory               *
           ************************************************************

-------------------------------------------------------------------------------------------
                                      ORCA LEAN-SCF
                              memory conserving SCF solver
-------------------------------------------------------------------------------------------

----------------------------------------D-I-I-S--------------------------------------------
Iteration    Energy (Eh)           Delta-E    RMSDP     MaxDP     DIISErr   Damp  Time(sec)
-------------------------------------------------------------------------------------------
               ***  Starting incremental Fock matrix formation  ***
    1    -153.6698953816241158     0.00e+00  7.73e-04  1.84e-02  8.43e-02  0.700   0.3
    2    -153.6984072782827582    -2.85e-02  6.98e-04  1.69e-02  5.18e-02  0.700   0.3
                               ***Turning on AO-DIIS***
    3    -153.7144529086378668    -1.60e-02  5.90e-04  1.70e-02  2.92e-02  0.700   0.2
    4    -153.7245662273832920    -1.01e-02  1.50e-03  4.32e-02  2.41e-02  0.000   0.2
    5    -153.7489320233014212    -2.44e-02  1.92e-04  7.14e-03  9.48e-03  0.000   0.2
    6    -153.7499116334215614    -9.80e-04  1.60e-04  5.91e-03  5.95e-03  0.000   0.2
    7    -153.7505025730032742    -5.91e-04  9.45e-05  2.91e-03  4.07e-03  0.000   0.2
                              *** Initializing SOSCF ***
---------------------------------------S-O-S-C-F--------------------------------------
Iteration    Energy (Eh)           Delta-E    RMSDP     MaxDP     MaxGrad    Time(sec)
--------------------------------------------------------------------------------------
    8    -153.7507512350516947    -2.49e-04  6.24e-05  2.38e-03  1.65e-03     0.3
               *** Restarting incremental Fock matrix formation ***
    9    -153.7508542355539589    -1.03e-04  3.70e-05  1.04e-03  2.22e-03     0.3
   10    -153.7509018846771767    -4.76e-05  1.55e-04  3.82e-03  2.05e-03     0.2
   11    -153.7509999782636783    -9.81e-05  7.27e-05  2.66e-03  1.89e-03     0.2
   12    -153.7510511627058349    -5.12e-05  2.08e-04  8.24e-03  2.05e-03     0.2
   13    -153.7511859060656718    -1.35e-04  5.41e-04  2.32e-02  2.12e-03     0.2
   14    -153.7514342577097466    -2.48e-04  3.25e-04  1.36e-02  1.57e-03     0.2
   15    -153.7515558648322553    -1.22e-04  1.80e-04  6.89e-03  1.19e-03     0.3
   16    -153.7516159767902479    -6.01e-05  3.27e-05  9.65e-04  8.13e-04     0.2
   17    -153.7516222903046810    -6.31e-06  1.27e-05  3.54e-04  4.80e-04     0.2
   18    -153.7516239698340712    -1.68e-06  7.95e-06  2.20e-04  1.99e-04     0.2
   19    -153.7516245617690060    -5.92e-07  4.25e-06  1.37e-04  5.31e-05     0.2
   20    -153.7516246758510476    -1.14e-07  1.16e-06  2.81e-05  1.89e-05     0.2
   21    -153.7516246852003690    -9.35e-09  5.84e-07  2.17e-05  8.02e-06     0.2
                 **** Energy Check signals convergence ****

               *****************************************************
               *                     SUCCESS                       *
               *           SCF CONVERGED AFTER  21 CYCLES          *
               *****************************************************

Recomputing exchange energy using gridx3       ... done (    0.255 sec)
Old exchange energy                            :     -6.190806224 Eh
New exchange energy                            :     -6.190801797 Eh
Exchange energy change after final integration :      0.000004427 Eh
Total energy after final integration           :   -153.751620258 Eh
             **** ENERGY FILE WAS UPDATED (orca.en.tmp) ****

----------------
TOTAL SCF ENERGY
----------------

Total Energy       :       -153.75162025807384 Eh           -4183.79429 eV

Components:
Nuclear Repulsion  :         68.88633641857115 Eh            1874.49251 eV
Electronic Energy  :       -222.63796110377152 Eh           -6058.28692 eV
One Electron Energy:       -344.35899629988967 Eh           -9370.48468 eV
Two Electron Energy:        121.72103519611815 Eh            3312.19776 eV

Virial components:
Potential Energy   :       -307.03680854555734 Eh           -8354.89632 eV
Kinetic Energy     :        153.28518828748349 Eh            4171.10203 eV
Virial Ratio       :          2.00304290307368

DFT components:
N(Alpha)           :       12.999982511522 electrons
N(Beta)            :       10.999978934241 electrons
N(Total)           :       23.999961445763 electrons
E(XC)              :      -14.682789660881 Eh       

---------------
SCF CONVERGENCE
---------------

  Last Energy change         ...    9.3493e-09  Tolerance :   1.0000e-08
  Last MAX-Density change    ...    2.1680e-05  Tolerance :   1.0000e-07
  Last RMS-Density change    ...    5.8408e-07  Tolerance :   5.0000e-09
  Last DIIS Error            ...    1.6504e-03  Tolerance :   5.0000e-07
  Last Orbital Gradient      ...    8.0152e-06  Tolerance :   1.0000e-05
  Last Orbital Rotation      ...    1.0296e-04  Tolerance :   1.0000e-05


----------------------
UHF SPIN CONTAMINATION
----------------------

Warning: in a DFT calculation there is little theoretical justification to 
         calculate <S**2> as in Hartree-Fock theory. We will do it anyways
         but you should keep in mind that the values have only limited relevance

Expectation value of <S**2>     :     2.008579
Ideal value S*(S+1) for S=1.0   :     2.000000
Deviation                       :     0.008579

----------------
ORBITAL ENERGIES
----------------
                 SPIN UP ORBITALS
  NO   OCC          E(Eh)            E(eV) 
   0   1.0000     -19.393612      -527.7270 
   1   1.0000     -10.419447      -283.5276 
   2   1.0000     -10.358759      -281.8762 
   3   1.0000      -1.168163       -31.7873 
   4   1.0000      -0.861489       -23.4423 
   5   1.0000      -0.737188       -20.0599 
   6   1.0000      -0.619990       -16.8708 
   7   1.0000      -0.594613       -16.1802 
   8   1.0000      -0.535435       -14.5699 
   9   1.0000      -0.504787       -13.7359 
  10   1.0000      -0.446925       -12.1614 
  11   1.0000      -0.418733       -11.3943 
  12   1.0000      -0.308423        -8.3926 
  13   0.0000       0.040381         1.0988 
  14   0.0000       0.061675         1.6783 
  15   0.0000       0.075749         2.0612 
  16   0.0000       0.086456         2.3526 
  17   0.0000       0.114963         3.1283 
  18   0.0000       0.122276         3.3273 
  19   0.0000       0.133404         3.6301 
  20   0.0000       0.139306         3.7907 
  21   0.0000       0.170170         4.6306 
  22   0.0000       0.191932         5.2227 
  23   0.0000       0.202987         5.5236 

                 SPIN DOWN ORBITALS
  NO   OCC          E(Eh)            E(eV) 
   0   1.0000     -19.366626      -526.9927 
   1   1.0000     -10.420784      -283.5639 
   2   1.0000     -10.344971      -281.5010 
   3   1.0000      -1.107983       -30.1498 
   4   1.0000      -0.827260       -22.5109 
   5   1.0000      -0.712818       -19.3968 
   6   1.0000      -0.596320       -16.2267 
   7   1.0000      -0.549443       -14.9511 
   8   1.0000      -0.505791       -13.7633 
   9   1.0000      -0.484495       -13.1838 
  10   1.0000      -0.379443       -10.3252 
  11   0.0000      -0.063294        -1.7223 
  12   0.0000       0.020275         0.5517 
  13   0.0000       0.039149         1.0653 
  14   0.0000       0.061815         1.6821 
  15   0.0000       0.075494         2.0543 
  16   0.0000       0.091799         2.4980 
  17   0.0000       0.115305         3.1376 
  18   0.0000       0.125627         3.4185 
  19   0.0000       0.135111         3.6766 
  20   0.0000       0.142709         3.8833 
  21   0.0000       0.177925         4.8416 
*Only the first 10 virtual orbitals were printed.

                    ********************************
                    * MULLIKEN POPULATION ANALYSIS *
                    ********************************

--------------------------------------------
MULLIKEN ATOMIC CHARGES AND SPIN POPULATIONS
--------------------------------------------
   0 O :   -0.291715    1.005423
   1 C :   -0.687850    0.861524
   2 C :    0.057455   -0.020212
   3 H :    0.284920    0.018039
   4 H :    0.244565    0.022800
   5 H :    0.184160    0.090073
   6 H :    0.208465    0.022353
Sum of atomic charges         :    0.0000000
Sum of atomic spin populations:    2.0000000

-----------------------------------------------------
MULLIKEN REDUCED ORBITAL CHARGES AND SPIN POPULATIONS
-----------------------------------------------------
CHARGE
  0 O s       :     3.996678  s :     3.996678
      pz      :     1.402835  p :     4.275510
      px      :     1.426625
      py      :     1.446050
      dz2     :     0.002627  d :     0.018359
      dxz     :     0.000650
      dyz     :     0.005380
      dx2y2   :     0.002917
      dxy     :     0.006785
      f0      :     0.000103  f :     0.001167
      f+1     :     0.000059
      f-1     :     0.000163
      f+2     :     0.000210
      f-2     :     0.000133
      f+3     :     0.000307
      f-3     :     0.000191

  1 C s       :     3.615087  s :     3.615087
      pz      :     1.155930  p :     3.029400
      px      :     0.909454
      py      :     0.964015
      dz2     :     0.013643  d :     0.039312
      dxz     :    -0.009340
      dyz     :     0.014635
      dx2y2   :     0.009306
      dxy     :     0.011068
      f0      :     0.000635  f :     0.004052
      f+1     :     0.000387
      f-1     :     0.000237
      f+2     :     0.000348
      f-2     :     0.000499
      f+3     :     0.001150
      f-3     :     0.000796

  2 C s       :     3.156397  s :     3.156397
      pz      :     1.071054  p :     2.640083
      px      :     0.868132
      py      :     0.700897
      dz2     :     0.031197  d :     0.135705
      dxz     :     0.041439
      dyz     :     0.012114
      dx2y2   :     0.036975
      dxy     :     0.013980
      f0      :     0.000955  f :     0.010361
      f+1     :     0.000803
      f-1     :     0.001338
      f+2     :     0.001227
      f-2     :     0.001433
      f+3     :     0.002325
      f-3     :     0.002280

  3 H s       :     0.665112  s :     0.665112
      pz      :     0.010539  p :     0.047702
      px      :     0.014200
      py      :     0.022963
      dz2     :     0.000687  d :     0.002266
      dxz     :     0.000412
      dyz     :     0.000454
      dx2y2   :     0.000393
      dxy     :     0.000320

  4 H s       :     0.686699  s :     0.686699
      pz      :     0.014309  p :     0.066177
      px      :     0.016749
      py      :     0.035119
      dz2     :     0.000599  d :     0.002559
      dxz     :     0.000914
      dyz     :     0.000920
      dx2y2   :     0.000070
      dxy     :     0.000056

  5 H s       :     0.770221  s :     0.770221
      pz      :     0.015528  p :     0.043081
      px      :     0.014301
      py      :     0.013252
      dz2     :     0.000656  d :     0.002538
      dxz     :     0.000515
      dyz     :     0.000306
      dx2y2   :     0.000386
      dxy     :     0.000674

  6 H s       :     0.750002  s :     0.750002
      pz      :     0.024517  p :     0.039378
      px      :     0.004818
      py      :     0.010043
      dz2     :     0.000698  d :     0.002155
      dxz     :     0.000641
      dyz     :     0.000570
      dx2y2   :     0.000110
      dxy     :     0.000136


SPIN
  0 O s       :     0.013449  s :     0.013449
      pz      :     0.457394  p :     0.995316
      px      :     0.452017
      py      :     0.085905
      dz2     :    -0.000040  d :    -0.003214
      dxz     :     0.000007
      dyz     :    -0.001833
      dx2y2   :    -0.000089
      dxy     :    -0.001258
      f0      :    -0.000033  f :    -0.000128
      f+1     :     0.000013
      f-1     :    -0.000017
      f+2     :    -0.000006
      f-2     :    -0.000045
      f+3     :    -0.000019
      f-3     :    -0.000021

  1 C s       :     0.006699  s :     0.006699
      pz      :     0.005629  p :     0.861909
      px      :     0.149813
      py      :     0.706467
      dz2     :    -0.002857  d :    -0.006281
      dxz     :    -0.004014
      dyz     :    -0.000731
      dx2y2   :     0.001414
      dxy     :    -0.000092
      f0      :    -0.000223  f :    -0.000803
      f+1     :    -0.000048
      f-1     :     0.000023
      f+2     :    -0.000009
      f-2     :    -0.000153
      f+3     :    -0.000233
      f-3     :    -0.000160

  2 C s       :     0.009097  s :     0.009097
      pz      :     0.006301  p :    -0.069566
      px      :    -0.016961
      py      :    -0.058906
      dz2     :     0.001944  d :     0.037042
      dxz     :     0.006419
      dyz     :     0.007082
      dx2y2   :     0.015424
      dxy     :     0.006173
      f0      :     0.000135  f :     0.003215
      f+1     :     0.000117
      f-1     :     0.000399
      f+2     :     0.000583
      f-2     :     0.000050
      f+3     :     0.001792
      f-3     :     0.000139

  3 H s       :    -0.010117  s :    -0.010117
      pz      :    -0.000043  p :     0.027182
      px      :     0.004688
      py      :     0.022537
      dz2     :     0.000159  d :     0.000974
      dxz     :     0.000148
      dyz     :     0.000293
      dx2y2   :     0.000298
      dxy     :     0.000076

  4 H s       :    -0.004955  s :    -0.004955
      pz      :    -0.000253  p :     0.026760
      px      :     0.001833
      py      :     0.025181
      dz2     :     0.000002  d :     0.000995
      dxz     :     0.000227
      dyz     :     0.000734
      dx2y2   :     0.000022
      dxy     :     0.000010

  5 H s       :     0.079324  s :     0.079324
      pz      :     0.002238  p :     0.010672
      px      :     0.005109
      py      :     0.003324
      dz2     :     0.000018  d :     0.000077
      dxz     :     0.000051
      dyz     :    -0.000016
      dx2y2   :     0.000024
      dxy     :    -0.000001

  6 H s       :     0.021342  s :     0.021342
      pz      :     0.002298  p :     0.001035
      px      :    -0.002568
      py      :     0.001305
      dz2     :    -0.000017  d :    -0.000024
      dxz     :     0.000017
      dyz     :    -0.000028
      dx2y2   :     0.000002
      dxy     :     0.000001



                     *******************************
                     * LOEWDIN POPULATION ANALYSIS *
                     *******************************

-------------------------------------------
LOEWDIN ATOMIC CHARGES AND SPIN POPULATIONS
-------------------------------------------
   0 O :    0.015450    0.970661
   1 C :    0.229802    0.638570
   2 C :   -0.184690    0.149238
   3 H :   -0.083248    0.093108
   4 H :   -0.068667    0.069989
   5 H :    0.047979    0.064963
   6 H :    0.043374    0.013471

----------------------------------------------------
LOEWDIN REDUCED ORBITAL CHARGES AND SPIN POPULATIONS
----------------------------------------------------
CHARGE
  0 O s       :     3.498241  s :     3.498241
      pz      :     1.327010  p :     4.182858
      px      :     1.342719
      py      :     1.513129
      dz2     :     0.043111  d :     0.299765
      dxz     :     0.023377
      dyz     :     0.067210
      dx2y2   :     0.064592
      dxy     :     0.101475
      f0      :     0.000266  f :     0.003685
      f+1     :     0.000167
      f-1     :     0.000645
      f+2     :     0.000575
      f-2     :     0.000396
      f+3     :     0.000843
      f-3     :     0.000794

  1 C s       :     2.720656  s :     2.720656
      pz      :     0.972684  p :     2.588874
      px      :     0.873567
      py      :     0.742623
      dz2     :     0.086922  d :     0.434206
      dxz     :     0.107673
      dyz     :     0.060855
      dx2y2   :     0.100193
      dxy     :     0.078562
      f0      :     0.004733  f :     0.026462
      f+1     :     0.004012
      f-1     :     0.002435
      f+2     :     0.002112
      f-2     :     0.002803
      f+3     :     0.006074
      f-3     :     0.004293

  2 C s       :     2.682394  s :     2.682394
      pz      :     0.906287  p :     2.579308
      px      :     0.903580
      py      :     0.769441
      dz2     :     0.129997  d :     0.845163
      dxz     :     0.195751
      dyz     :     0.121813
      dx2y2   :     0.222295
      dxy     :     0.175308
      f0      :     0.007016  f :     0.077825
      f+1     :     0.004840
      f-1     :     0.009064
      f+2     :     0.011952
      f-2     :     0.011031
      f+3     :     0.018354
      f-3     :     0.015568

  3 H s       :     0.738968  s :     0.738968
      pz      :     0.114264  p :     0.309594
      px      :     0.089588
      py      :     0.105742
      dz2     :     0.009094  d :     0.034686
      dxz     :     0.007670
      dyz     :     0.008474
      dx2y2   :     0.005093
      dxy     :     0.004356

  4 H s       :     0.719025  s :     0.719025
      pz      :     0.136953  p :     0.315245
      px      :     0.085874
      py      :     0.092418
      dz2     :     0.011995  d :     0.034398
      dxz     :     0.010621
      dyz     :     0.010627
      dx2y2   :     0.000639
      dxy     :     0.000516

  5 H s       :     0.671309  s :     0.671309
      pz      :     0.098129  p :     0.253120
      px      :     0.094170
      py      :     0.060821
      dz2     :     0.006505  d :     0.027593
      dxz     :     0.007965
      dyz     :     0.003186
      dx2y2   :     0.004705
      dxy     :     0.005231

  6 H s       :     0.700712  s :     0.700712
      pz      :     0.121001  p :     0.231880
      px      :     0.066416
      py      :     0.044463
      dz2     :     0.009210  d :     0.024034
      dxz     :     0.007715
      dyz     :     0.005002
      dx2y2   :     0.001084
      dxy     :     0.001024


SPIN
  0 O s       :     0.027967  s :     0.027967
      pz      :     0.414454  p :     0.913788
      px      :     0.420093
      py      :     0.079241
      dz2     :     0.006143  d :     0.028843
      dxz     :     0.001828
      dyz     :     0.003572
      dx2y2   :     0.000472
      dxy     :     0.016828
      f0      :    -0.000027  f :     0.000062
      f+1     :     0.000058
      f-1     :     0.000036
      f+2     :     0.000050
      f-2     :    -0.000063
      f+3     :     0.000021
      f-3     :    -0.000012

  1 C s       :     0.026680  s :     0.026680
      pz      :     0.012631  p :     0.609776
      px      :     0.108585
      py      :     0.488560
      dz2     :    -0.001808  d :     0.002112
      dxz     :    -0.000636
      dyz     :    -0.001111
      dx2y2   :     0.004114
      dxy     :     0.001553
      f0      :    -0.000335  f :     0.000002
      f+1     :     0.000237
      f-1     :     0.000041
      f+2     :     0.000201
      f-2     :    -0.000243
      f+3     :     0.000251
      f-3     :    -0.000148

  2 C s       :    -0.004173  s :    -0.004173
      pz      :     0.002490  p :    -0.015479
      px      :    -0.000057
      py      :    -0.017912
      dz2     :     0.011921  d :     0.145293
      dxz     :     0.014853
      dyz     :     0.028928
      dx2y2   :     0.051295
      dxy     :     0.038296
      f0      :     0.000790  f :     0.023597
      f+1     :     0.000884
      f-1     :     0.003038
      f+2     :     0.004860
      f-2     :     0.000619
      f+3     :     0.012034
      f-3     :     0.001373

  3 H s       :    -0.006631  s :    -0.006631
      pz      :     0.002892  p :     0.088364
      px      :     0.013515
      py      :     0.071958
      dz2     :     0.001070  d :     0.011374
      dxz     :     0.002093
      dyz     :     0.003738
      dx2y2   :     0.003811
      dxy     :     0.000662

  4 H s       :    -0.010507  s :    -0.010507
      pz      :     0.003719  p :     0.070198
      px      :     0.010556
      py      :     0.055923
      dz2     :     0.000733  d :     0.010297
      dxz     :     0.001973
      dyz     :     0.007217
      dx2y2   :     0.000335
      dxy     :     0.000039

  5 H s       :     0.057239  s :     0.057239
      pz      :     0.000356  p :     0.008169
      px      :     0.001253
      py      :     0.006560
      dz2     :    -0.000020  d :    -0.000445
      dxz     :    -0.000030
      dyz     :    -0.000143
      dx2y2   :    -0.000011
      dxy     :    -0.000240

  6 H s       :     0.010395  s :     0.010395
      pz      :     0.001191  p :     0.003345
      px      :    -0.000806
      py      :     0.002960
      dz2     :    -0.000034  d :    -0.000269
      dxz     :     0.000112
      dyz     :    -0.000309
      dx2y2   :     0.000018
      dxy     :    -0.000056



                      *****************************
                      * MAYER POPULATION ANALYSIS *
                      *****************************

  NA   - Mulliken gross atomic population
  ZA   - Total nuclear charge
  QA   - Mulliken gross atomic charge
  VA   - Mayer's total valence
  BVA  - Mayer's bonded valence
  FA   - Mayer's free valence

  ATOM       NA         ZA         QA         VA         BVA        FA
  0 O      8.2917     8.0000    -0.2917     1.8798     1.0562     0.8237
  1 C      6.6878     6.0000    -0.6878     3.5461     2.8290     0.7171
  2 C      5.9425     6.0000     0.0575     3.4331     3.4210     0.0121
  3 H      0.7151     1.0000     0.2849     0.9565     0.9559     0.0006
  4 H      0.7554     1.0000     0.2446     1.0110     1.0105     0.0006
  5 H      0.8158     1.0000     0.1842     1.0475     1.0412     0.0063
  6 H      0.7915     1.0000     0.2085     1.0354     1.0350     0.0004

  Mayer bond orders larger than 0.100000
B(  0-O ,  1-C ) :   0.1606 B(  0-O ,  2-C ) :   0.8112 B(  1-C ,  2-C ) :   0.7297 
B(  1-C ,  3-H ) :   0.9575 B(  1-C ,  4-H ) :   0.9968 B(  2-C ,  5-H ) :   0.9582 
B(  2-C ,  6-H ) :   0.9774 

-------
TIMINGS
-------

Total SCF time: 0 days 0 hours 0 min 6 sec 

Total time                  ....       6.124 sec
Sum of individual times     ....       6.103 sec  ( 99.7%)

SCF preparation             ....       0.600 sec  (  9.8%)
Fock matrix formation       ....       4.611 sec  ( 75.3%)
  Startup                   ....       0.048 sec  (  1.0% of F)
  Split-RI-J                ....       0.268 sec  (  5.8% of F)
  Chain of spheres X        ....       2.849 sec  ( 61.8% of F)
  XC integration            ....       1.269 sec  ( 27.5% of F)
    XC Preparation          ....       0.000 sec  (  0.0% of XC)
    Basis function eval.    ....       0.080 sec  (  6.3% of XC)
    Density eval.           ....       0.305 sec  ( 24.0% of XC)
    XC-Functional eval.     ....       0.029 sec  (  2.3% of XC)
    XC-Potential eval.      ....       0.521 sec  ( 41.0% of XC)
Diagonalization             ....       0.000 sec  (  0.0%)
Density matrix formation    ....       0.116 sec  (  1.9%)
Total Energy calculation    ....       0.081 sec  (  1.3%)
Population analysis         ....       0.026 sec  (  0.4%)
Orbital Transformation      ....       0.054 sec  (  0.9%)
Orbital Orthonormalization  ....       0.000 sec  (  0.0%)
DIIS solution               ....       0.358 sec  (  5.8%)
SOSCF solution              ....       0.254 sec  (  4.1%)
Finished LeanSCF after   6.1 sec

Maximum memory used throughout the entire LEANSCF-calculation: 14.6 MB
[1741044066.512582] [ohm:360700:0]        ib_iface.c:1059 UCX  ERROR ibv_create_cq(cqe=256) failed: Connection timed out
[1741044066.512605] [ohm:360711:0]        ib_iface.c:1059 UCX  ERROR ibv_create_cq(cqe=256) failed: Connection timed out
[1741044066.513022] [ohm:360705:0]        ib_iface.c:1059 UCX  ERROR ibv_create_cq(cqe=256) failed: Connection timed out
[1741044066.513830] [ohm:360702:0]        ib_iface.c:1059 UCX  ERROR ibv_create_cq(cqe=256) failed: Connection timed out
[1741044066.515732] [ohm:360704:0]        ib_iface.c:1059 UCX  ERROR ibv_create_cq(cqe=256) failed: Connection timed out
[1741044066.515735] [ohm:360708:0]        ib_iface.c:1059 UCX  ERROR ibv_create_cq(cqe=256) failed: Connection timed out
[1741044066.515783] [ohm:360709:0]        ib_iface.c:1059 UCX  ERROR ibv_create_cq(cqe=256) failed: Connection timed out
[1741044066.531008] [ohm:360715:0]        ib_iface.c:1059 UCX  ERROR ibv_create_cq(cqe=256) failed: Connection timed out
[1741044066.544271] [ohm:360706:0]        ib_iface.c:1059 UCX  ERROR ibv_create_cq(cqe=256) failed: Connection timed out
[1741044066.544408] [ohm:360710:0]        ib_iface.c:1059 UCX  ERROR ibv_create_cq(cqe=256) failed: Connection timed out
[1741044066.546786] [ohm:360734:0]        ib_iface.c:1059 UCX  ERROR ibv_create_cq(cqe=256) failed: Connection timed out
[1741044066.552000] [ohm:360707:0]        ib_iface.c:1059 UCX  ERROR ibv_create_cq(cqe=256) failed: Connection timed out
[1741044066.563769] [ohm:360716:0]        ib_iface.c:1059 UCX  ERROR ibv_create_cq(cqe=256) failed: Connection timed out
[1741044066.568227] [ohm:360728:0]        ib_iface.c:1059 UCX  ERROR ibv_create_cq(cqe=256) failed: Connection timed out
[1741044066.571461] [ohm:360738:0]        ib_iface.c:1059 UCX  ERROR ibv_create_cq(cqe=256) failed: Connection timed out
[1741044066.571498] [ohm:360742:0]        ib_iface.c:1059 UCX  ERROR ibv_create_cq(cqe=256) failed: Connection timed out
[1741044066.571617] [ohm:360712:0]        ib_iface.c:1059 UCX  ERROR ibv_create_cq(cqe=256) failed: Connection timed out
[1741044066.573091] [ohm:360741:0]        ib_iface.c:1059 UCX  ERROR ibv_create_cq(cqe=256) failed: Connection timed out
[1741044066.580530] [ohm:360737:0]        ib_iface.c:1059 UCX  ERROR ibv_create_cq(cqe=256) failed: Connection timed out
[1741044066.583909] [ohm:360740:0]        ib_iface.c:1059 UCX  ERROR ibv_create_cq(cqe=256) failed: Connection timed out
[1741044066.585245] [ohm:360725:0]        ib_iface.c:1059 UCX  ERROR ibv_create_cq(cqe=256) failed: Connection timed out
[1741044066.585261] [ohm:360701:0]        ib_iface.c:1059 UCX  ERROR ibv_create_cq(cqe=256) failed: Connection timed out
[1741044066.585460] [ohm:360714:0]        ib_iface.c:1059 UCX  ERROR ibv_create_cq(cqe=256) failed: Connection timed out
[1741044066.586319] [ohm:360703:0]        ib_iface.c:1059 UCX  ERROR ibv_create_cq(cqe=256) failed: Connection timed out
[1741044066.586596] [ohm:360735:0]        ib_iface.c:1059 UCX  ERROR ibv_create_cq(cqe=256) failed: Connection timed out
[1741044066.588479] [ohm:360744:0]        ib_iface.c:1059 UCX  ERROR ibv_create_cq(cqe=256) failed: Connection timed out
[1741044066.588743] [ohm:360723:0]        ib_iface.c:1059 UCX  ERROR ibv_create_cq(cqe=256) failed: Connection timed out
[1741044066.589029] [ohm:360736:0]        ib_iface.c:1059 UCX  ERROR ibv_create_cq(cqe=256) failed: Connection timed out
[1741044066.589210] [ohm:360739:0]        ib_iface.c:1059 UCX  ERROR ibv_create_cq(cqe=256) failed: Connection timed out
[1741044066.589245] [ohm:360713:0]        ib_iface.c:1059 UCX  ERROR ibv_create_cq(cqe=256) failed: Connection timed out
[1741044066.589613] [ohm:360749:0]        ib_iface.c:1059 UCX  ERROR ibv_create_cq(cqe=256) failed: Connection timed out
[1741044066.597633] [ohm:360743:0]        ib_iface.c:1059 UCX  ERROR ibv_create_cq(cqe=256) failed: Connection timed out


           ************************************************************
           *        Program running with 32 parallel MPI-processes    *
           *              working on a common directory               *
           ************************************************************

------------------------------------------------------------------------------
                         ORCA PROPERTY INTEGRAL CALCULATIONS
------------------------------------------------------------------------------

GBWName                                   ... orca.gbw
Number of atoms                           ...      7
Number of basis functions                 ...    182
Max core memory                           ...   1024 MB

Dipole integrals                          ... YES
Quadrupole integrals                      ...  NO
Linear momentum integrals                 ... YES
Angular momentum integrals                ... YES
Higher moments length integrals           ...  NO
Higher moments velocity integrals         ...  NO
Kinetic energy integrals                  ...  NO
GIAO right hand sides                     ...  NO
GIAO dipole derivative integrals          ...  NO
SOC integrals                             ...  NO
EPR diamagnetic integrals (GIAO)          ...  NO
EPR gauge integrals                       ...  NO
Field gradient integrals                  ...  NO (   0 nuclei)
Spin-dipole/Fermi contact integrals       ...  NO (   0 nuclei)
Contact density integrals                 ...  NO (   0 nuclei)
Nucleus-orbit integrals                   ...  NO (   0 nuclei)
Geometric perturbations                   ...  NO (   7 nuclei)

Choice of electric origin   ... Center of mass
Position of electric origin ... ( -0.0383, -0.0479,  0.0001) 
Choice of magnetic origin   ... GIAO
Position of magnetic origin ... (  0.0000,  0.0000,  0.0000) 

Calculating integrals                     ... Electric Dipole (Length)     done (  0.0 sec)
Calculating integrals                     ... Linear Momentum              done (  0.0 sec)
Calculating integrals                     ... Angular Momentum  (ElOri)    done (  0.0 sec)

Property integrals calculated in   0.0 sec

Maximum memory used throughout the entire PROPINT-calculation: 10.2 MB
[1741044067.434162] [ohm:360899:0]        ib_iface.c:1059 UCX  ERROR ibv_create_cq(cqe=256) failed: Connection timed out
[1741044067.434158] [ohm:360877:0]        ib_iface.c:1059 UCX  ERROR ibv_create_cq(cqe=256) failed: Connection timed out
[1741044067.434164] [ohm:360876:0]        ib_iface.c:1059 UCX  ERROR ibv_create_cq(cqe=256) failed: Connection timed out
[1741044067.434547] [ohm:360886:0]        ib_iface.c:1059 UCX  ERROR ibv_create_cq(cqe=256) failed: Connection timed out
[1741044067.435053] [ohm:360874:0]        ib_iface.c:1059 UCX  ERROR ibv_create_cq(cqe=256) failed: Connection timed out
[1741044067.450142] [ohm:360871:0]        ib_iface.c:1059 UCX  ERROR ibv_create_cq(cqe=256) failed: Connection timed out
[1741044067.494498] [ohm:360880:0]        ib_iface.c:1059 UCX  ERROR ibv_create_cq(cqe=256) failed: Connection timed out
[1741044067.494937] [ohm:360889:0]        ib_iface.c:1059 UCX  ERROR ibv_create_cq(cqe=256) failed: Connection timed out
[1741044067.496490] [ohm:360867:0]        ib_iface.c:1059 UCX  ERROR ibv_create_cq(cqe=256) failed: Connection timed out
[1741044067.501706] [ohm:360869:0]        ib_iface.c:1059 UCX  ERROR ibv_create_cq(cqe=256) failed: Connection timed out
[1741044067.501705] [ohm:360873:0]        ib_iface.c:1059 UCX  ERROR ibv_create_cq(cqe=256) failed: Connection timed out
[1741044067.507073] [ohm:360888:0]        ib_iface.c:1059 UCX  ERROR ibv_create_cq(cqe=256) failed: Connection timed out
[1741044067.507103] [ohm:360885:0]        ib_iface.c:1059 UCX  ERROR ibv_create_cq(cqe=256) failed: Connection timed out
[1741044067.507287] [ohm:360896:0]        ib_iface.c:1059 UCX  ERROR ibv_create_cq(cqe=256) failed: Connection timed out
[1741044067.507858] [ohm:360887:0]        ib_iface.c:1059 UCX  ERROR ibv_create_cq(cqe=256) failed: Connection timed out
[1741044067.507902] [ohm:360912:0]        ib_iface.c:1059 UCX  ERROR ibv_create_cq(cqe=256) failed: Connection timed out
[1741044067.508178] [ohm:360927:0]        ib_iface.c:1059 UCX  ERROR ibv_create_cq(cqe=256) failed: Connection timed out
[1741044067.509552] [ohm:360884:0]        ib_iface.c:1059 UCX  ERROR ibv_create_cq(cqe=256) failed: Connection timed out
[1741044067.509799] [ohm:360872:0]        ib_iface.c:1059 UCX  ERROR ibv_create_cq(cqe=256) failed: Connection timed out
[1741044067.509976] [ohm:360879:0]        ib_iface.c:1059 UCX  ERROR ibv_create_cq(cqe=256) failed: Connection timed out
[1741044067.509974] [ohm:360882:0]        ib_iface.c:1059 UCX  ERROR ibv_create_cq(cqe=256) failed: Connection timed out
[1741044067.509997] [ohm:360891:0]        ib_iface.c:1059 UCX  ERROR ibv_create_cq(cqe=256) failed: Connection timed out
[1741044067.510125] [ohm:360875:0]        ib_iface.c:1059 UCX  ERROR ibv_create_cq(cqe=256) failed: Connection timed out
[1741044067.510962] [ohm:360911:0]        ib_iface.c:1059 UCX  ERROR ibv_create_cq(cqe=256) failed: Connection timed out
[1741044067.511111] [ohm:360878:0]        ib_iface.c:1059 UCX  ERROR ibv_create_cq(cqe=256) failed: Connection timed out
[1741044067.513137] [ohm:360933:0]        ib_iface.c:1059 UCX  ERROR ibv_create_cq(cqe=256) failed: Connection timed out
[1741044067.513669] [ohm:360883:0]        ib_iface.c:1059 UCX  ERROR ibv_create_cq(cqe=256) failed: Connection timed out
[1741044067.514028] [ohm:360905:0]        ib_iface.c:1059 UCX  ERROR ibv_create_cq(cqe=256) failed: Connection timed out
[1741044067.514225] [ohm:360881:0]        ib_iface.c:1059 UCX  ERROR ibv_create_cq(cqe=256) failed: Connection timed out
[1741044067.514855] [ohm:360921:0]        ib_iface.c:1059 UCX  ERROR ibv_create_cq(cqe=256) failed: Connection timed out
[1741044067.515464] [ohm:360868:0]        ib_iface.c:1059 UCX  ERROR ibv_create_cq(cqe=256) failed: Connection timed out
[1741044067.515567] [ohm:360870:0]        ib_iface.c:1059 UCX  ERROR ibv_create_cq(cqe=256) failed: Connection timed out


           ************************************************************
           *        Program running with 32 parallel MPI-processes    *
           *              working on a common directory               *
           ************************************************************
------------------------------------------------------------------------------
                        ORCA TD-DFT/TDA CALCULATION
------------------------------------------------------------------------------

Input orbitals are from        ... orca.gbw
CI-vector output               ... orca.cis
Solver                         ... FN-2001
Tamm-Dancoff approximation     ... operative
CIS-Integral strategy          ... AO-integrals
Integral handling              ... AO integral Direct
Max. core memory used          ... 512 MB
Reference state                ... UHF
Follow IRoot                   ... off
Number of operators            ... 2
Orbital ranges used for CIS calculation:
 Operator 0:  Orbitals   3... 12  to  11...181

-------------------
XC-INTEGRATION GRID
-------------------

General Integration Accuracy     IntAcc      ... 3.467
Radial Grid Type                 RadialGrid  ... OptM3 with GC (2021)
Angular Grid (max. ang.)         AngularGrid ... 1 (Lebedev-50)
Angular grid pruning method      GridPruning ... 4 (adaptive)
Weight generation scheme         WeightScheme... mBecke (2022)
Basis function cutoff            BFCut       ... 1.0000e-11
[...]
=> NOW LEAVING ORCA_CIS


-------------------------------------------------------------------------------
                          DFT DISPERSION CORRECTION                            
                                                                               
                              DFTD3 V3.1  Rev 1                                
                          USING Becke-Johnson damping                          
-------------------------------------------------------------------------------
The WB97M functional is recognized
Active option DFTDOPT                   ...         4   

molecular C6(AA) [au] = 393.294694 


            DFT-D V3
 parameters
 s6 scaling factor         :     1.0000 
 a1 scaling factor         :     0.5660 
 s8 scaling factor         :     0.3908 
 a2 scaling factor         :     3.1280 
 ad hoc parameters k1-k3   :    16.0000     1.3333    -4.0000 

 Edisp/kcal,au: -3.513627507772  -0.005599321250 
 E6   /kcal   :  -2.829263090 
 E8   /kcal   :  -0.684364418 
 % E8         :  19.477432269 

-------------------------   ----------------
Dispersion correction           -0.005599321
-------------------------   ----------------


-------------------------   --------------------
FINAL SINGLE POINT ENERGY      -153.713670069411
-------------------------   --------------------

[1741044074.084848] [ohm:361069:0]        ib_iface.c:1059 UCX  ERROR ibv_create_cq(cqe=256) failed: Connection timed out
[1741044074.084848] [ohm:361073:0]        ib_iface.c:1059 UCX  ERROR ibv_create_cq(cqe=256) failed: Connection timed out
[1741044074.088964] [ohm:361070:0]        ib_iface.c:1059 UCX  ERROR ibv_create_cq(cqe=256) failed: Connection timed out
[1741044074.088986] [ohm:361067:0]        ib_iface.c:1059 UCX  ERROR ibv_create_cq(cqe=256) failed: Connection timed out
[1741044074.090407] [ohm:361071:0]        ib_iface.c:1059 UCX  ERROR ibv_create_cq(cqe=256) failed: Connection timed out
[1741044074.115804] [ohm:361094:0]        ib_iface.c:1059 UCX  ERROR ibv_create_cq(cqe=256) failed: Connection timed out
[1741044074.133494] [ohm:361100:0]        ib_iface.c:1059 UCX  ERROR ibv_create_cq(cqe=256) failed: Connection timed out
[1741044074.133593] [ohm:361099:0]        ib_iface.c:1059 UCX  ERROR ibv_create_cq(cqe=256) failed: Connection timed out
[1741044074.144675] [ohm:361072:0]        ib_iface.c:1059 UCX  ERROR ibv_create_cq(cqe=256) failed: Connection timed out
[1741044074.148933] [ohm:361084:0]        ib_iface.c:1059 UCX  ERROR ibv_create_cq(cqe=256) failed: Connection timed out
[1741044074.148933] [ohm:361080:0]        ib_iface.c:1059 UCX  ERROR ibv_create_cq(cqe=256) failed: Connection timed out
[1741044074.148963] [ohm:361076:0]        ib_iface.c:1059 UCX  ERROR ibv_create_cq(cqe=256) failed: Connection timed out
[1741044074.159041] [ohm:361068:0]        ib_iface.c:1059 UCX  ERROR ibv_create_cq(cqe=256) failed: Connection timed out
[1741044074.159299] [ohm:361077:0]        ib_iface.c:1059 UCX  ERROR ibv_create_cq(cqe=256) failed: Connection timed out
[1741044074.162567] [ohm:361079:0]        ib_iface.c:1059 UCX  ERROR ibv_create_cq(cqe=256) failed: Connection timed out
[1741044074.165474] [ohm:361078:0]        ib_iface.c:1059 UCX  ERROR ibv_create_cq(cqe=256) failed: Connection timed out
[1741044074.166257] [ohm:361109:0]        ib_iface.c:1059 UCX  ERROR ibv_create_cq(cqe=256) failed: Connection timed out
[1741044074.166300] [ohm:361114:0]        ib_iface.c:1059 UCX  ERROR ibv_create_cq(cqe=256) failed: Connection timed out
[1741044074.166544] [ohm:361106:0]        ib_iface.c:1059 UCX  ERROR ibv_create_cq(cqe=256) failed: Connection timed out
[1741044074.177058] [ohm:361107:0]        ib_iface.c:1059 UCX  ERROR ibv_create_cq(cqe=256) failed: Connection timed out
[1741044074.177542] [ohm:361103:0]        ib_iface.c:1059 UCX  ERROR ibv_create_cq(cqe=256) failed: Connection timed out
[1741044074.177539] [ohm:361104:0]        ib_iface.c:1059 UCX  ERROR ibv_create_cq(cqe=256) failed: Connection timed out
[1741044074.178066] [ohm:361122:0]        ib_iface.c:1059 UCX  ERROR ibv_create_cq(cqe=256) failed: Connection timed out
[1741044074.178140] [ohm:361102:0]        ib_iface.c:1059 UCX  ERROR ibv_create_cq(cqe=256) failed: Connection timed out
[1741044074.178605] [ohm:361108:0]        ib_iface.c:1059 UCX  ERROR ibv_create_cq(cqe=256) failed: Connection timed out
[1741044074.178695] [ohm:361116:0]        ib_iface.c:1059 UCX  ERROR ibv_create_cq(cqe=256) failed: Connection timed out
[1741044074.178981] [ohm:361095:0]        ib_iface.c:1059 UCX  ERROR ibv_create_cq(cqe=256) failed: Connection timed out
[1741044074.179582] [ohm:361105:0]        ib_iface.c:1059 UCX  ERROR ibv_create_cq(cqe=256) failed: Connection timed out
[1741044074.179761] [ohm:361101:0]        ib_iface.c:1059 UCX  ERROR ibv_create_cq(cqe=256) failed: Connection timed out
[1741044074.179820] [ohm:361089:0]        ib_iface.c:1059 UCX  ERROR ibv_create_cq(cqe=256) failed: Connection timed out
[1741044074.179850] [ohm:361086:0]        ib_iface.c:1059 UCX  ERROR ibv_create_cq(cqe=256) failed: Connection timed out
[1741044074.180097] [ohm:361081:0]        ib_iface.c:1059 UCX  ERROR ibv_create_cq(cqe=256) failed: Connection timed out


           ************************************************************
           *        Program running with 32 parallel MPI-processes    *
           *              working on a common directory               *
           ************************************************************

------------------------------------------------------------------------------
                              ORCA PROPERTY CALCULATIONS
------------------------------------------------------------------------------

GBWName                                 ... orca.gbw
Number of atoms                         ...      7
Number of basis functions               ...    182
Max core memory                         ...   1024 MB

Electric properties:
Dipole moment                           ... YES
Quadrupole moment                       ...  NO
Static polarizability (Dipole/Dipole)   ...  NO
Static polarizability (Dipole/Quad.)    ...  NO
Static polarizability (Quad./Quad.)     ...  NO
Static polarizability (Velocity)        ...  NO

Atomic electric properties:
Dipole moment                           ...  NO
Quadrupole moment                       ...  NO
Static polarizability                   ...  NO

Choice of electric origin               ... Center of mass
Position of electric origin             ...    -0.038334    -0.047942     0.000142

General magnetic properties:
Magnetizability                         ...  NO

EPR properties:
g-Tensor (aka g-matrix)                 ...  NO
Zero-Field splitting spin-orbit         ...  NO
Zero-field splitting spin-spin          ...  NO
Hyperfine couplings                     ...  NO (   0 nuclei)
Quadrupole couplings                    ...  NO (   0 nuclei)
Contact density                         ...  NO (   0 nuclei)

NMR properties:
Chemical shifts                         ...  NO (   0 nuclei)
Spin-rotation constants                 ...  NO (   0 nuclei)
Spin-spin couplings                     ...  NO (   0 nuclei,    0 pairs)

Choice of magnetic origin               ... GIAO
Position of magnetic origin             ...     0.000000     0.000000     0.000000

Properties with geometric perturbations:
SCF Hessian                             ...  NO
IR spectrum                             ...  NO
VCD spectrum                            ...  NO
X-ray spectroscopy properties:
SCF XES/XAS/RIXS spectra                ...  NO


-------------
DIPOLE MOMENT
-------------

Method             : SCF
Type of density    : Electron Density
Multiplicity       :   3
Irrep              :   0
Energy             :  -153.7516202580738423 Eh
Relativity type    : 
Basis              : AO
                                X                 Y                 Z
Electronic contribution:     -0.138063031       2.227249088      -0.401197965
Nuclear contribution   :     -0.235406963      -2.881181165       0.581265536
                        -----------------------------------------
Total Dipole Moment    :     -0.373469994      -0.653932077       0.180067571
                        -----------------------------------------
Magnitude (a.u.)       :      0.774294084
Magnitude (Debye)      :      1.968099154



--------------------
Rotational spectrum 
--------------------
 
Rotational constants in cm-1:             1.036969             0.446327             0.353833 
Rotational constants in MHz :         31087.540887         13380.539960         10607.636853 

Dipole components along the rotational axes: 
x,y,z [a.u.] :    -0.400104    -0.648813    -0.135977 
x,y,z [Debye]:    -1.016983    -1.649152    -0.345626 

 

-------------
DIPOLE MOMENT
-------------

Method             : TDA/CIS
Type of density    : Electron Density
Level              : Relaxed density
State              :   2
Multiplicity       :   3
Irrep              :   0
Energy             :     0.0000000000000000 Eh
Relativity type    : 
Basis              : AO
                                X                 Y                 Z
Electronic contribution:     -0.191746459       2.249755060      -0.321969104
Nuclear contribution   :     -0.235406963      -2.881181165       0.581265536
                        -----------------------------------------
Total Dipole Moment    :     -0.427153422      -0.631426105       0.259296432
                        -----------------------------------------
Magnitude (a.u.)       :      0.805228918
Magnitude (Debye)      :      2.046729254



--------------------
Rotational spectrum 
--------------------
 
Rotational constants in cm-1:             1.036969             0.446327             0.353833 
Rotational constants in MHz :         31087.540887         13380.539960         10607.636853 

Dipole components along the rotational axes: 
x,y,z [a.u.] :    -0.364513    -0.714386    -0.071952 
x,y,z [Debye]:    -0.926519    -1.815824    -0.182887 

 

Dipole moment calculation done in   0.0 sec 

Maximum memory used throughout the entire PROP-calculation: 7.4 MB
[1741044075.075466] [ohm:361243:0]        ib_iface.c:1059 UCX  ERROR ibv_create_cq(cqe=256) failed: Connection timed out
[1741044075.075535] [ohm:361244:0]        ib_iface.c:1059 UCX  ERROR ibv_create_cq(cqe=256) failed: Connection timed out
[1741044075.083035] [ohm:361248:0]        ib_iface.c:1059 UCX  ERROR ibv_create_cq(cqe=256) failed: Connection timed out
[1741044075.083051] [ohm:361247:0]        ib_iface.c:1059 UCX  ERROR ibv_create_cq(cqe=256) failed: Connection timed out
[1741044075.097960] [ohm:361250:0]        ib_iface.c:1059 UCX  ERROR ibv_create_cq(cqe=256) failed: Connection timed out
[1741044075.098441] [ohm:361251:0]        ib_iface.c:1059 UCX  ERROR ibv_create_cq(cqe=256) failed: Connection timed out
[1741044075.102282] [ohm:361240:0]        ib_iface.c:1059 UCX  ERROR ibv_create_cq(cqe=256) failed: Connection timed out
[1741044075.102276] [ohm:361239:0]        ib_iface.c:1059 UCX  ERROR ibv_create_cq(cqe=256) failed: Connection timed out
[1741044075.102586] [ohm:361245:0]        ib_iface.c:1059 UCX  ERROR ibv_create_cq(cqe=256) failed: Connection timed out
[1741044075.104678] [ohm:361249:0]        ib_iface.c:1059 UCX  ERROR ibv_create_cq(cqe=256) failed: Connection timed out
[1741044075.106094] [ohm:361241:0]        ib_iface.c:1059 UCX  ERROR ibv_create_cq(cqe=256) failed: Connection timed out
[1741044075.111893] [ohm:361257:0]        ib_iface.c:1059 UCX  ERROR ibv_create_cq(cqe=256) failed: Connection timed out
[1741044075.111889] [ohm:361270:0]        ib_iface.c:1059 UCX  ERROR ibv_create_cq(cqe=256) failed: Connection timed out
[1741044075.113860] [ohm:361242:0]        ib_iface.c:1059 UCX  ERROR ibv_create_cq(cqe=256) failed: Connection timed out
[1741044075.116016] [ohm:361238:0]        ib_iface.c:1059 UCX  ERROR ibv_create_cq(cqe=256) failed: Connection timed out
[1741044075.118834] [ohm:361246:0]        ib_iface.c:1059 UCX  ERROR ibv_create_cq(cqe=256) failed: Connection timed out
[1741044075.119536] [ohm:361267:0]        ib_iface.c:1059 UCX  ERROR ibv_create_cq(cqe=256) failed: Connection timed out
[1741044075.121421] [ohm:361255:0]        ib_iface.c:1059 UCX  ERROR ibv_create_cq(cqe=256) failed: Connection timed out
[1741044075.122633] [ohm:361275:0]        ib_iface.c:1059 UCX  ERROR ibv_create_cq(cqe=256) failed: Connection timed out
[1741044075.122883] [ohm:361262:0]        ib_iface.c:1059 UCX  ERROR ibv_create_cq(cqe=256) failed: Connection timed out
[1741044075.123489] [ohm:361252:0]        ib_iface.c:1059 UCX  ERROR ibv_create_cq(cqe=256) failed: Connection timed out
[1741044075.123808] [ohm:361277:0]        ib_iface.c:1059 UCX  ERROR ibv_create_cq(cqe=256) failed: Connection timed out
[1741044075.125114] [ohm:361261:0]        ib_iface.c:1059 UCX  ERROR ibv_create_cq(cqe=256) failed: Connection timed out
[1741044075.125516] [ohm:361253:0]        ib_iface.c:1059 UCX  ERROR ibv_create_cq(cqe=256) failed: Connection timed out
[1741044075.126322] [ohm:361256:0]        ib_iface.c:1059 UCX  ERROR ibv_create_cq(cqe=256) failed: Connection timed out
[1741044075.129661] [ohm:361272:0]        ib_iface.c:1059 UCX  ERROR ibv_create_cq(cqe=256) failed: Connection timed out
[1741044075.131531] [ohm:361292:0]        ib_iface.c:1059 UCX  ERROR ibv_create_cq(cqe=256) failed: Connection timed out
[1741044075.131655] [ohm:361269:0]        ib_iface.c:1059 UCX  ERROR ibv_create_cq(cqe=256) failed: Connection timed out
[1741044075.131872] [ohm:361265:0]        ib_iface.c:1059 UCX  ERROR ibv_create_cq(cqe=256) failed: Connection timed out
[1741044075.132127] [ohm:361271:0]        ib_iface.c:1059 UCX  ERROR ibv_create_cq(cqe=256) failed: Connection timed out
[1741044075.132546] [ohm:361273:0]        ib_iface.c:1059 UCX  ERROR ibv_create_cq(cqe=256) failed: Connection timed out
[1741044075.134300] [ohm:361281:0]        ib_iface.c:1059 UCX  ERROR ibv_create_cq(cqe=256) failed: Connection timed out

--------------------------------
SUGGESTED CITATIONS FOR THIS RUN
--------------------------------

Below you find a list of papers that are relevant to this ORCA run
We neither can nor want to force you to cite these papers, but we appreciate if you do
You receive ORCA, which is the product of decades of hard work by many enthusiastic individuals, for free
The only thing we kindly ask in return is that you cite our papers,
We deeply appreciate it, if you show your appreciation for ORCA by not just citing the generic ORCA reference.

Please note that relegating all ORCA citations to the supporting information does *not* help us.
SI sections are not indexed - citations you put there will not count into any citation statistics
But we need these citations in order to attract the funding resources that allow us to do what we are doing

Therefore, if you are a happy ORCA user, please consider citing a few of the papers listed below in the main body of your paper

In addition to the list printed below, the program has created the file orca.bibtex that contains the list in bibtex format
You can import this file easily into all common literature databanks and citation aid programs


List of essential papers. We consider these as the minimum necessary citations

  1. Neese,F.
     Software update: the ORCA program system, version 5.0
     WIRES Comput. Molec. Sci., 2022 12(1)e1606
     doi.org/10.1002/wcms.1606

List of papers to cite with high priority. The work reported in these papers was absolutely
necessary for this run to complete.
Our perspective: the developers of density functionals and basis sets usually get cited in chemistry papers
Good! But without the algorithms to do something with them, the functionals or basis sets would not do anything.
Hence, in our opinion, the algorithm design and method developments papers are equally worthy of getting cited

  1. Neese,F.; Olbrich,G.
     Efficient use of the resolution of the identity approximation in time-dependent density functional calculations with hybrid density functionals
     Chem. Phys. Lett., 2002 362 170-178
     doi.org/10.1016/s0009-2614(02)01053-9
  2. Neese,F.
     An improvement of the resolution of the identity approximation for the formation of the Coulomb matrix
     J. Comp. Chem., 2003 24(14)1740-1747
     doi.org/10.1002/jcc.10318
  3. Neese,F.; Wennmohs,F.; Hansen,A.; Becker,U.
     Efficient, approximate and parallel Hartree-Fock and hybrid DFT calculations. A 'chain-of-spheres' algorithm for the Hartree-Fock exchange
     Chem. Phys., 2009 356(1-3)98-109
     doi.org/10.1016/j.chemphys.2008.10.036
  4. Petrenko,T.; Kossmann,S.; Neese,F.
     Efficient time-dependent density functional theory approximations for hybrid density functionals: Analytical gradients and parallelization
     J. Chem. Phys., 2011 134 054116
     doi.org/10.1063/1.3533441
  5. Helmich-Paris,B.; de Souza,B.; Neese,F.; Izsák,R.
     An improved chain of spheres for exchange algorithm
     J. Chem. Phys., 2021 155 104109
     doi.org/doi: 10.1063/5.0058766.
  6. Neese,F.
     The SHARK Integral Generation and Digestion System
     J. Comp. Chem., 2022  1-16
     doi.org/10.1002/jcc.26942
  7. Lehtola,S.; Steigemann,C.; Oliveira,M.; Marques,M.
     Recent developments in Libxc - A comprehensive library of functionals for density functional theory
     Software X, 2018 7 
     doi.org/10.1016/j.softx.2017.11.002
  8. Grimme,S.; Antony,J.; Ehrlich,S.; Krieg,H.
     A consistent and accurate ab initio parametrization of density functional dispersion correction (DFT-D) for the 94 elements H-Pu
     J. Chem. Phys., 2010 132 154104-XXXX
     doi.org/10.1063/1.3382344
  9. Grimme,S.; Ehrlich,S.; Goerigk,L.
     Effect of the damping function in dispersion corrected density functional theory
     J. Comput. Chem., 2011 32(7)1456-1465
     doi.org/10.1002/jcc.21759

List of suggested additional citations. These are papers that are important in the 'surrounding' of 
of this run, or papers that preceded the highly important papers. If you like your results we are grateful for a citation.

  1. Izsak,R.; Neese,F.
     An overlap fitted chain of spheres exchange method
     J. Chem. Phys., 2011 135 144105
     doi.org/10.1063/1.3646921
  2. Izsak,R.; Hansen,A.; Neese,F.
     The resolution of identity and chain of spheres approximations for the LPNO-CCSD singles Fock term
     Molec. Phys., 2012 110 2413-2417
     doi.org/10.1080/00268976.2012.687466
  3. Neese,F.
     The ORCA program system
     WIRES Comput. Molec. Sci., 2012 2(1)73-78
     doi.org/10.1002/wcms.81
  4. Izsak,R.; Neese,F.; Klopper,W.
     Robust fitting techniques in the chain of spheres approximation to the Fock exchange: The role of the complementary space
     J. Chem. Phys., 2013 139 
     doi.org/10.1063/1.4819264
  5. Neese,F.
     Software update: the ORCA program system, version 4.0
     WIRES Comput. Molec. Sci., 2018 8(1)1-6
     doi.org/10.1002/wcms.1327
  6. Neese,F.; Wennmohs,F.; Becker,U.; Riplinger,C.
     The ORCA quantum chemistry program package
     J. Chem. Phys., 2020 152 Art. No. L224108
     doi.org/10.1063/5.0004608

List of optional additional citations

  1. Neese,F.
     Approximate second-order SCF convergence for spin unrestricted wavefunctions
     Chem. Phys. Lett., 2000 325(1-3)93-98
     doi.org/10.1016/s0009-2614(00)00662-x

Timings for individual modules:

Sum of individual times          ...       17.118 sec (=   0.285 min)
Startup calculation              ...        1.199 sec (=   0.020 min)   7.0 %
SCF iterations                   ...        7.402 sec (=   0.123 min)  43.2 %
Property integrals               ...        0.910 sec (=   0.015 min)   5.3 %
Property calculations            ...        0.997 sec (=   0.017 min)   5.8 %
CIS module                       ...        6.611 sec (=   0.110 min)  38.6 %
                             ****ORCA TERMINATED NORMALLY****
TOTAL RUN TIME: 0 days 0 hours 0 minutes 18 seconds 46 msec
