
                                 *****************
                                 * O   R   C   A *
                                 *****************

                                            #,                                       
                                            ###                                      
                                            ####                                     
                                            #####                                    
                                            ######                                   
                                           ########,                                 
                                     ,,################,,,,,                         
                               ,,#################################,,                 
                          ,,##########################################,,             
                       ,#########################################, ''#####,          
                    ,#############################################,,   '####,        
                  ,##################################################,,,,####,       
                ,###########''''           ''''###############################       
              ,#####''   ,,,,##########,,,,          '''####'''          '####       
            ,##' ,,,,###########################,,,                        '##       
           ' ,,###''''                  '''############,,,                           
         ,,##''                                '''############,,,,        ,,,,,,###''
      ,#''                                            '''#######################'''  
     '                                                          ''''####''''         
             ,#######,   #######,   ,#######,      ##                                
            ,#'     '#,  ##    ##  ,#'     '#,    #''#        ,####,   ,####,        
            ##       ##  ##   ,#'  ##            #'  '#       #'       #'  '#        
            ##       ##  #######   ##           ,######,      #####,   #    #        
            '#,     ,#'  ##    ##  '#,     ,#' ,#      #,     #,   #   #,  ,#        
             '#######'   ##     ##  '#######'  #'      '#     '####' # '####'        



                #########################################################
                #                        -***-                          #
                #          Department of theory and spectroscopy        #
                #                                                       #
                #                      Frank Neese                      #
                #                                                       #
                #     Directorship, Architecture, Infrastructure        #
                #                    SHARK, DRIVERS                     #
                #        Core code/Algorithms in most modules           #
                #                                                       #
                #        Max Planck Institute fuer Kohlenforschung      #
                #                Kaiser Wilhelm Platz 1                 #
                #                 D-45470 Muelheim/Ruhr                 #
                #                      Germany                          #
                #                                                       #
                #                  All rights reserved                  #
                #                        -***-                          #
                #########################################################


                         Program Version 6.0.0  -   RELEASE  -


 With contributions from (in alphabetic order):
   Daniel Aravena         : Magnetic Suceptibility
   Michael Atanasov       : Ab Initio Ligand Field Theory (pilot matlab implementation)
   Alexander A. Auer      : GIAO ZORA, VPT2 properties, NMR spectrum
   Ute Becker             : All parallelization in ORCA, NUMFREQ, NUMCALC
   Giovanni Bistoni       : ED, misc. LED, open-shell LED, HFLD
   Martin Brehm           : Molecular dynamics
   Dmytro Bykov           : pre 5.0 version of the SCF Hessian
   Marcos Casanova-Páez   : Triplet and SCS-CIS(D). UHF-(DLPNO)-IP/EA/STEOM-CCSD. UHF-CVS-IP/STEOM-CCSD
   Vijay G. Chilkuri      : MRCI spin determinant printing, contributions to CSF-ICE
   Pauline Colinet        : FMM embedding
   Dipayan Datta          : RHF DLPNO-CCSD density
   Achintya Kumar Dutta   : EOM-CC, STEOM-CC
   Nicolas Foglia         : Exact transition moments, OPA infrastructure, MCD improvements
   Dmitry Ganyushin       : Spin-Orbit,Spin-Spin,Magnetic field MRCI
   Miquel Garcia          : C-PCM and meta-GGA Hessian, CCSD/C-PCM, Gaussian charge scheme
   Tiago L. C. Gouveia    : GS-ROHF, GS-ROCIS
   Yang Guo               : DLPNO-NEVPT2, F12-NEVPT2, CIM, IAO-localization
   Andreas Hansen         : Spin unrestricted coupled pair/coupled cluster methods
   Ingolf Harden          : AUTO-CI MPn and infrastructure 
   Benjamin Helmich-Paris : MC-RPA, TRAH-(SCF,CASSCF), AVAS, COSX integrals, SCF dyn. polar.
   Lee Huntington         : MR-EOM, pCC
   Robert Izsak           : Overlap fitted RIJCOSX, COSX-SCS-MP3, EOM
   Riya Kayal             : Wick's Theorem for AUTO-CI, AUTO-CI UHF-CCSDT
   Emily Kempfer          : AUTO-CI, RHF CISDT and CCSDT
   Christian Kollmar      : KDIIS, OOCD, Brueckner-CCSD(T), CCSD density, CASPT2, CASPT2-K, improved NEVPT2
   Axel Koslowski         : Symmetry handling
   Simone Kossmann        : Meta GGA functionals, TD-DFT gradient, OOMP2, (MP2 Hessian; deprecated post 5.0)
   Lucas Lang             : DCDCAS
   Marvin Lechner         : AUTO-CI (C++ implementation), FIC-MRCC
   Spencer Leger          : CASSCF response
   Dagmar Lenk            : GEPOL surface, SMD, ORCA-2-JSON
   Dimitrios Liakos       : Extrapolation schemes; Compound Job, initial MDCI parallelization
   Dimitrios Manganas     : Further ROCIS development; embedding schemes. LFT, Crystal Embedding
   Dimitrios Pantazis     : SARC Basis sets
   Anastasios Papadopoulos: AUTO-CI, single reference methods and gradients
   Taras Petrenko         : pre 6.0 DFT Hessian and TD-DFT gradient, (ASA, deprecated), ECA, 1-Electron XAS/XES, NRVS
   Peter Pinski           : DLPNO-MP2, DLPNO-MP2 Gradient
   Christoph Reimann      : Effective Core Potentials
   Marius Retegan         : Local ZFS, SOC
   Christoph Riplinger    : Optimizer, TS searches, QM/MM, DLPNO-CCSD(T), (RO)-DLPNO pert. Triples
   Michael Roemelt        : Original ROCIS implementation
   Masaaki Saitow         : Open-shell DLPNO-CCSD energy and density
   Barbara Sandhoefer     : DKH picture change effects
   Kantharuban Sivalingam : CASSCF convergence/infrastructure, NEVPT2 and variants, FIC-MRCI
   Bernardo de Souza      : ESD, SOC TD-DFT
   Georgi Stoychev        : AutoAux, RI-MP2 NMR, DLPNO-MP2 response, X2C
   Van Anh Tran           : RI-MP2 g-tensors
   Willem Van den Heuvel  : Paramagnetic NMR
   Zikuan Wang            : NOTCH, Electric field optimization 
   Frank Wennmohs         : Technical directorship and infrastructure
   Hang Xu                : AUTO-CI-Response properties 


 We gratefully acknowledge several colleagues who have allowed us to
 interface, adapt or use parts of their codes:
   Stefan Grimme, W. Hujo, H. Kruse, P. Pracht,  : VdW corrections, initial TS optimization,
                  C. Bannwarth, S. Ehlert,         DFT functionals, gCP, sTDA/sTD-DF
                  L. Wittmann, M. Mueller
   Ed Valeev, F. Pavosevic, A. Kumar             : LibInt (2-el integral package), F12 methods
   Garnet Chan, S. Sharma, J. Yang, R. Olivares  : DMRG
   Ulf Ekstrom                                   : XCFun DFT Library
   Mihaly Kallay                                 : mrcc  (arbitrary order and MRCC methods)
   Frank Weinhold                                : gennbo (NPA and NBO analysis)
   Simon Mueller                                 : openCOSMO-RS
   Christopher J. Cramer and Donald G. Truhlar   : smd solvation model
   Lars Goerigk                                  : TD-DFT with DH, B97 family of functionals
   V. Asgeirsson, H. Jonsson                     : NEB implementation
   FAccTs GmbH                                   : IRC, NEB, NEB-TS, DLPNO-Multilevel, CI-OPT
                                                   MM, QMMM, 2- and 3-layer-ONIOM, Crystal-QMMM,
                                                   LR-CPCM, SF, NACMEs, symmetry and pop. for TD-DFT,
                                                   nearIR, NL-DFT gradient (VV10), updates on ESD,
                                                   ML-optimized integration grids, MBIS, APM,
                                                   GOAT, DOCKER, SOLVATOR, interface openCOSMO-RS
   S Lehtola, MJT Oliveira, MAL Marques          : LibXC Library
   Liviu Ungur et al                             : ANISO software


 Your calculation uses the libint2 library for the computation of 2-el integrals
 For citations please refer to: http://libint.valeyev.net

 Your ORCA version has been built with support for libXC version: 6.2.2
 For citations please refer to: https://libxc.gitlab.io

 This ORCA versions uses:
   CBLAS   interface :  Fast vector & matrix operations
   LAPACKE interface :  Fast linear algebra routines
   SCALAPACK package :  Parallel linear algebra routines
   Shared memory     :  Shared parallel matrices
   BLAS/LAPACK       :  OpenBLAS 0.3.27  USE64BITINT DYNAMIC_ARCH NO_AFFINITY Zen SINGLE_THREADED
        Core in use  :  Zen
   Copyright (c) 2011-2014, The OpenBLAS Project


Your calculation utilizes the atom-pairwise dispersion correction
with the Becke-Johnson damping scheme (D3BJ)


Warning: RI is on but no J-basis has been assigned. Assigning Def2/J (nothing to worry about!)
================================================================================

----- Orbital basis set information -----
Your calculation utilizes the basis: def2-TZVPPD
   F. Weigend and R. Ahlrichs, Phys. Chem. Chem. Phys. 7, 3297 (2005).
   D. Rappoport and F. Furche, J. Chem. Phys. 133, 134105 (2010)
   D. Rappoport, J. Chem. Phys. 155, 124102 (2021).

----- AuxJ basis set information -----
Your calculation utilizes the auxiliary basis: def2/J
   F. Weigend, Phys. Chem. Chem. Phys. 8, 1057 (2006).

================================================================================
                                        WARNINGS
                       Please study these warnings very carefully!
================================================================================

Using LibXC functional ID 531 : wB97M-V exchange-correlation functional
[ 1]  N. Mardirossian and M. Head-Gordon.,  J. Chem. Phys. 144, 214110 (2016)
Using LibXC functional ID 531 : wB97M-V exchange-correlation functional
[ 1]  N. Mardirossian and M. Head-Gordon.,  J. Chem. Phys. 144, 214110 (2016)

WARNING: B97M-V or wB97M-V functional requested.
  ===> : libXC variant has now been activated.
         Any manually given DFX/HFX/RangeSep scaling parameters are IGNORED!

Your calculation utilizes LibXC
 by S Lehtola, C Steigemann, MJT Oliveira & MAL Marques
Please cite in your paper:
 S Lehtola, C Steigemann, MJT Oliveira & MAL Marques, SoftwareX, 7, (2018), 1.
   

INFO   : Checking CIS options ...

WARNING: CIS/ROCIS methods need fully converged wavefunctions
  ===> : Setting SCFConvForced true
         You can overwrite this default with %scf ConvForced false 


================================================================================
                                       INPUT FILE
================================================================================
NAME = orca.inp
|  1> ! ENGRAD wB97M-D3BJ def2-TZVPPD 
|  2> %pal nprocs 8 end%pal nprocs 16 end 
|  3> %tddft nroots 4 Iroot 1 end 
|  4> *xyz 0 1 
|  5> O   1.46891798079737 1.02315377125307 -0.05665228497543
|  6> C   0.94326161487178 -0.01089367182443 0.24946597363317
|  7> C   -0.31018492719935 -0.67202574243949 -0.23341644303589
|  8> H   1.43978072335934 -0.6276472502299 1.03120329162598
|  9> H   -0.0470801731722 -1.6586325325093 -0.61521033786492
| 10> H   -0.82324634658301 -0.09744040644048 -1.00003792110245
| 11> H   -0.96495678958671 -0.82446574875168 0.62464772171953
| 12> *
| 13> 
| 14>                          ****END OF INPUT****
================================================================================

                     *******************************
                     * Energy+Gradient Calculation *
                     *******************************

---------------------------------
CARTESIAN COORDINATES (ANGSTROEM)
---------------------------------
  O      1.468918    1.023154   -0.056652
  C      0.943262   -0.010894    0.249466
  C     -0.310185   -0.672026   -0.233416
  H      1.439781   -0.627647    1.031203
  H     -0.047080   -1.658633   -0.615210
  H     -0.823246   -0.097440   -1.000038
  H     -0.964957   -0.824466    0.624648

----------------------------
CARTESIAN COORDINATES (A.U.)
----------------------------
  NO LB      ZA    FRAG     MASS         X           Y           Z
   0 O     8.0000    0    15.999    2.775853    1.933480   -0.107057
   1 C     6.0000    0    12.011    1.782506   -0.020586    0.471422
   2 C     6.0000    0    12.011   -0.586165   -1.269945   -0.441093
   3 H     1.0000    0     1.008    2.720791   -1.186081    1.948692
   4 H     1.0000    0     1.008   -0.088969   -3.134361   -1.162579
   5 H     1.0000    0     1.008   -1.555710   -0.184136   -1.889798
   6 H     1.0000    0     1.008   -1.823504   -1.558014    1.180413

--------------------------------
INTERNAL COORDINATES (ANGSTROEM)
--------------------------------
 O      0   0   0     0.000000000000     0.00000000     0.00000000
 C      1   0   0     1.199698761284     0.00000000     0.00000000
 C      2   1   0     1.497130347349   131.69492061     0.00000000
 H      2   1   3     1.112667711364   117.48478422   179.99739594
 H      3   2   1     1.090130105965   108.09285337   122.21535077
 H      3   2   1     1.086779103147   112.91078771     0.03741922
 H      3   2   1     1.090063419318   108.10541927   237.83105911

---------------------------
INTERNAL COORDINATES (A.U.)
---------------------------
 O      0   0   0     0.000000000000     0.00000000     0.00000000
 C      1   0   0     2.267102102032     0.00000000     0.00000000
 C      2   1   0     2.829166343272   131.69492061     0.00000000
 H      2   1   3     2.102637252535   117.48478422   179.99739594
 H      3   2   1     2.060047350617   108.09285337   122.21535077
 H      3   2   1     2.053714873017   112.91078771     0.03741922
 H      3   2   1     2.059921331118   108.10541927   237.83105911

---------------------
BASIS SET INFORMATION
---------------------
There are 3 groups of distinct atoms

 Group   1 Type O   : 12s7p3d1f contracted to 6s4p3d1f pattern {621111/4111/111/1}
 Group   2 Type C   : 12s6p3d1f contracted to 6s3p3d1f pattern {621111/411/111/1}
 Group   3 Type H   : 5s3p1d contracted to 3s3p1d pattern {311/111/1}

Atom   0O    basis set group =>   1
Atom   1C    basis set group =>   2
Atom   2C    basis set group =>   2
Atom   3H    basis set group =>   3
Atom   4H    basis set group =>   3
Atom   5H    basis set group =>   3
Atom   6H    basis set group =>   3
---------------------------------
AUXILIARY/J BASIS SET INFORMATION
---------------------------------
There are 3 groups of distinct atoms

 Group   1 Type O   : 12s5p4d2f1g contracted to 6s4p3d1f1g pattern {711111/2111/211/2/1}
 Group   2 Type C   : 12s5p4d2f1g contracted to 6s4p3d1f1g pattern {711111/2111/211/2/1}
 Group   3 Type H   : 5s2p1d contracted to 3s1p1d pattern {311/2/1}

Atom   0O    basis set group =>   1
Atom   1C    basis set group =>   2
Atom   2C    basis set group =>   2
Atom   3H    basis set group =>   3
Atom   4H    basis set group =>   3
Atom   5H    basis set group =>   3
Atom   6H    basis set group =>   3
[1741192043.077485] [ohm:220608:0]        ib_iface.c:1059 UCX  ERROR ibv_create_cq(cqe=256) failed: Connection timed out
[1741192043.077486] [ohm:220604:0]        ib_iface.c:1059 UCX  ERROR ibv_create_cq(cqe=256) failed: Connection timed out
[1741192043.082066] [ohm:220606:0]        ib_iface.c:1059 UCX  ERROR ibv_create_cq(cqe=256) failed: Connection timed out
[1741192043.110704] [ohm:220610:0]        ib_iface.c:1059 UCX  ERROR ibv_create_cq(cqe=256) failed: Connection timed out
[1741192043.115703] [ohm:220611:0]        ib_iface.c:1059 UCX  ERROR ibv_create_cq(cqe=256) failed: Connection timed out
[1741192043.136929] [ohm:220613:0]        ib_iface.c:1059 UCX  ERROR ibv_create_cq(cqe=256) failed: Connection timed out
[1741192043.138148] [ohm:220607:0]        ib_iface.c:1059 UCX  ERROR ibv_create_cq(cqe=256) failed: Connection timed out
[1741192043.138396] [ohm:220619:0]        ib_iface.c:1059 UCX  ERROR ibv_create_cq(cqe=256) failed: Connection timed out
[1741192043.146266] [ohm:220636:0]        ib_iface.c:1059 UCX  ERROR ibv_create_cq(cqe=256) failed: Connection timed out
[1741192043.147560] [ohm:220628:0]        ib_iface.c:1059 UCX  ERROR ibv_create_cq(cqe=256) failed: Connection timed out
[1741192043.149958] [ohm:220609:0]        ib_iface.c:1059 UCX  ERROR ibv_create_cq(cqe=256) failed: Connection timed out
[1741192043.160879] [ohm:220605:0]        ib_iface.c:1059 UCX  ERROR ibv_create_cq(cqe=256) failed: Connection timed out
[1741192043.178643] [ohm:220633:0]        ib_iface.c:1059 UCX  ERROR ibv_create_cq(cqe=256) failed: Connection timed out
[1741192043.205619] [ohm:220625:0]        ib_iface.c:1059 UCX  ERROR ibv_create_cq(cqe=256) failed: Connection timed out
[1741192043.206229] [ohm:220616:0]        ib_iface.c:1059 UCX  ERROR ibv_create_cq(cqe=256) failed: Connection timed out
[1741192043.207076] [ohm:220639:0]        ib_iface.c:1059 UCX  ERROR ibv_create_cq(cqe=256) failed: Connection timed out


           ************************************************************
           *        Program running with 16 parallel MPI-processes    *
           *              working on a common directory               *
           ************************************************************
------------------------------------------------------------------------------
                             ORCA STARTUP CALCULATIONS
                           -- RI-GTO INTEGRALS CHOSEN --
------------------------------------------------------------------------------
------------------------------------------------------------------------------
                   ___                                                        
                  /   \      - P O W E R E D   B Y -                         
                 /     \                                                     
                 |  |  |   _    _      __       _____    __    __             
                 |  |  |  | |  | |    /  \     |  _  \  |  |  /  |          
                  \  \/   | |  | |   /    \    | | | |  |  | /  /          
                 / \  \   | |__| |  /  /\  \   | |_| |  |  |/  /          
                |  |  |   |  __  | /  /__\  \  |    /   |      \           
                |  |  |   | |  | | |   __   |  |    \   |  |\   \          
                \     /   | |  | | |  |  |  |  | |\  \  |  | \   \       
                 \___/    |_|  |_| |__|  |__|  |_| \__\ |__|  \__/        
                                                                              
                      - O R C A' S   B I G   F R I E N D -                    
                                      &                                       
                       - I N T E G R A L  F E E D E R -                       
                                                                              
 v1 FN, 2020, v2 2021, v3 2022-2024                                           
------------------------------------------------------------------------------


----------------------
SHARK INTEGRAL PACKAGE
----------------------

Number of atoms                             ...      7
Number of basis functions                   ...    182
Number of shells                            ...     68
Maximum angular momentum                    ...      3
Integral batch strategy                     ... SHARK/LIBINT Hybrid
RI-J (if used) integral strategy            ... SPLIT-RIJ (Revised 2003 algorithm where possible)
Printlevel                                  ...      1
Contraction scheme used                     ... SEGMENTED contraction
Prescreening option                         ... SCHWARTZ
   Thresh                                   ... 2.500e-11
   Tcut                                     ... 2.500e-12
   Tpresel                                  ... 2.500e-12 
Coulomb Range Separation                    ... NOT USED
Exchange Range Separation                   ... Long Range
   Mu parameter                             ... 3.000e-01
   Scaling (regular/separated)              ... 1.500e-01 8.500e-01
Multipole approximations                    ... NOT USED
Finite Nucleus Model                        ... NOT USED
CABS basis                                  ... NOT available
Auxiliary Coulomb fitting basis             ... AVAILABLE
   # of basis functions in Aux-J            ...    191
   # of shells in Aux-J                     ...     65
   Maximum angular momentum in Aux-J        ...      4
Auxiliary J/K fitting basis                 ... NOT available
Auxiliary Correlation fitting basis         ... NOT available
Auxiliary 'external' fitting basis          ... NOT available

Checking pre-screening integrals            ... done (  0.0 sec) Dimension = 68
Check shell pair data                       ... done (  0.0 sec)
Shell pair information
Shell pair cut-off parameter TPreSel        ...   2.5e-12
Total number of shell pairs                 ...      2346
Shell pairs after pre-screening             ...      2323
Total number of primitive shell pairs       ...      5434
Primitive shell pairs kept                  ...      4804
          la=0 lb=0:    454 shell pairs
          la=1 lb=0:    653 shell pairs
          la=1 lb=1:    253 shell pairs
          la=2 lb=0:    385 shell pairs
          la=2 lb=1:    286 shell pairs
          la=2 lb=2:     91 shell pairs
          la=3 lb=0:     90 shell pairs
          la=3 lb=1:     66 shell pairs
          la=3 lb=2:     39 shell pairs
          la=3 lb=3:      6 shell pairs

Calculating one electron integrals          ... done (  0.0 sec)
Calculating RI/J V-Matrix + Cholesky decomp.... done (  0.0 sec)
Calculating Nuclear repulsion               ... done (  0.0 sec) ENN=     69.656130579743 Eh

Diagonalization of the overlap matrix:
Smallest eigenvalue                        ... 1.397e-05
Time for diagonalization                   ...    0.003 sec
Threshold for overlap eigenvalues          ... 1.000e-07
Number of eigenvalues below threshold      ... 0
Time for construction of square roots      ...    0.002 sec
Total time needed                          ...    0.005 sec

-------------------
DFT GRID GENERATION
-------------------

General Integration Accuracy     IntAcc      ... 4.388
Radial Grid Type                 RadialGrid  ... OptM3 with GC (2021)
Angular Grid (max. ang.)         AngularGrid ... 4 (Lebedev-302)
Angular grid pruning method      GridPruning ... 4 (adaptive)
Weight generation scheme         WeightScheme... mBecke (2022)
Basis function cutoff            BFCut       ... 1.0000e-11
Integration weight cutoff        WCut        ... 1.0000e-14
Partially contracted basis set               ... off
Rotationally invariant grid construction     ... off
Angular grids for H and He will be reduced by one unit
Diffuse basis detected: some atoms will have their outermost
                        angular grid increased by 1.

Total number of grid points                  ...    33149
Total number of batches                      ...      522
Average number of points per batch           ...       63
Average number of grid points per atom       ...     4736

--------------------
COSX GRID GENERATION
--------------------

GRIDX 1
-------
General Integration Accuracy     IntAcc      ... 3.816
Radial Grid Type                 RadialGrid  ... OptM3 with GC (2021)
Angular Grid (max. ang.)         AngularGrid ... 1 (Lebedev-50)
Angular grid pruning method      GridPruning ... 4 (adaptive)
Weight generation scheme         WeightScheme... mBecke (2022)
Basis function cutoff            BFCut       ... 1.0000e-11
Integration weight cutoff        WCut        ... 1.0000e-14
Partially contracted basis set               ... on
Rotationally invariant grid construction     ... off
Angular grids for H and He will be reduced by one unit
Diffuse basis detected: some atoms will have their outermost
                        angular grid increased by 1.

Total number of grid points                  ...     4165
Total number of batches                      ...       36
Average number of points per batch           ...      115
Average number of grid points per atom       ...      595
UseSFitting                                  ... on

GRIDX 2
-------
General Integration Accuracy     IntAcc      ... 4.020
Radial Grid Type                 RadialGrid  ... OptM3 with GC (2021)
Angular Grid (max. ang.)         AngularGrid ... 2 (Lebedev-110)
Angular grid pruning method      GridPruning ... 4 (adaptive)
Weight generation scheme         WeightScheme... mBecke (2022)
Basis function cutoff            BFCut       ... 1.0000e-11
Integration weight cutoff        WCut        ... 1.0000e-14
Partially contracted basis set               ... on
Rotationally invariant grid construction     ... off
Angular grids for H and He will be reduced by one unit
Diffuse basis detected: some atoms will have their outermost
                        angular grid increased by 1.

Total number of grid points                  ...    10304
Total number of batches                      ...       84
Average number of points per batch           ...      122
Average number of grid points per atom       ...     1472
UseSFitting                                  ... on

GRIDX 3
-------
General Integration Accuracy     IntAcc      ... 4.338
Radial Grid Type                 RadialGrid  ... OptM3 with GC (2021)
Angular Grid (max. ang.)         AngularGrid ... 3 (Lebedev-194)
Angular grid pruning method      GridPruning ... 4 (adaptive)
Weight generation scheme         WeightScheme... mBecke (2022)
Basis function cutoff            BFCut       ... 1.0000e-11
Integration weight cutoff        WCut        ... 1.0000e-14
Partially contracted basis set               ... on
Rotationally invariant grid construction     ... off
Angular grids for H and He will be reduced by one unit
Diffuse basis detected: some atoms will have their outermost
                        angular grid increased by 1.

Total number of grid points                  ...    23137
Total number of batches                      ...      185
Average number of points per batch           ...      125
Average number of grid points per atom       ...     3305
UseSFitting                                  ... on
Initializing property integral containers    ... done (  0.0 sec)

SHARK setup successfully completed in   0.5 seconds

Maximum memory used throughout the entire STARTUP-calculation: 13.8 MB
[1741192044.839791] [ohm:220687:0]        ib_iface.c:1059 UCX  ERROR ibv_create_cq(cqe=256) failed: Connection timed out
[1741192044.853662] [ohm:220691:0]        ib_iface.c:1059 UCX  ERROR ibv_create_cq(cqe=256) failed: Connection timed out
[1741192044.871142] [ohm:220688:0]        ib_iface.c:1059 UCX  ERROR ibv_create_cq(cqe=256) failed: Connection timed out
[1741192044.871143] [ohm:220690:0]        ib_iface.c:1059 UCX  ERROR ibv_create_cq(cqe=256) failed: Connection timed out
[1741192044.886659] [ohm:220689:0]        ib_iface.c:1059 UCX  ERROR ibv_create_cq(cqe=256) failed: Connection timed out
[1741192044.886669] [ohm:220700:0]        ib_iface.c:1059 UCX  ERROR ibv_create_cq(cqe=256) failed: Connection timed out
[1741192044.896417] [ohm:220707:0]        ib_iface.c:1059 UCX  ERROR ibv_create_cq(cqe=256) failed: Connection timed out
[1741192044.898099] [ohm:220695:0]        ib_iface.c:1059 UCX  ERROR ibv_create_cq(cqe=256) failed: Connection timed out
[1741192044.899216] [ohm:220693:0]        ib_iface.c:1059 UCX  ERROR ibv_create_cq(cqe=256) failed: Connection timed out
[1741192044.929970] [ohm:220694:0]        ib_iface.c:1059 UCX  ERROR ibv_create_cq(cqe=256) failed: Connection timed out
[1741192044.936797] [ohm:220716:0]        ib_iface.c:1059 UCX  ERROR ibv_create_cq(cqe=256) failed: Connection timed out
[1741192044.940986] [ohm:220692:0]        ib_iface.c:1059 UCX  ERROR ibv_create_cq(cqe=256) failed: Connection timed out
[1741192044.986102] [ohm:220703:0]        ib_iface.c:1059 UCX  ERROR ibv_create_cq(cqe=256) failed: Connection timed out
[1741192044.986102] [ohm:220711:0]        ib_iface.c:1059 UCX  ERROR ibv_create_cq(cqe=256) failed: Connection timed out
[1741192045.041816] [ohm:220697:0]        ib_iface.c:1059 UCX  ERROR ibv_create_cq(cqe=256) failed: Connection timed out
[1741192045.128408] [ohm:220720:0]        ib_iface.c:1059 UCX  ERROR ibv_create_cq(cqe=256) failed: Connection timed out


           ************************************************************
           *        Program running with 16 parallel MPI-processes    *
           *              working on a common directory               *
           ************************************************************
-------------------------------------------------------------------------------
                                 ORCA GUESS
                   Start orbitals & Density for SCF / CASSCF
-------------------------------------------------------------------------------

------------
SCF SETTINGS
------------
Hamiltonian:
 Density Functional     Method          .... DFT(GTOs)
  Functional kind                       .... Exchange-Correlation
  Functional name                       .... wB97M-V exchange-correlation functional
  Functional family                     .... Hybrid MGGA
  Functional refs                              
    [ 0] N. Mardirossian and M. Head-Gordon.,  J. Chem. Phys. 144, 214110 (2016), doi: 10.1063/1.4952647
  Fraction of HF Exchange (short range) .... 0.1500
  Fraction of HF Exchange (long range)  .... 1.0000
  Range separation parameter mu         .... 0.3000
  Functional external parameters        .... 17
    Parameter  0 _cx00      =  8.500000e-01 : u^00 coefficient for exchange
    Parameter  1 _cx01      =  1.007000e+00 : u^01 coefficient for exchange
    Parameter  2 _cx10      =  2.590000e-01 : u^10 coefficient for exchange
    Parameter  3 _css00     =  4.430000e-01 : u^00 coefficient for same-spin correlation
    Parameter  4 _css04     = -1.437000e+00 : u^04 coefficient for same-spin correlation
    Parameter  5 _css10     = -4.535000e+00 : u^10 coefficient for same-spin correlation
    Parameter  6 _css20     = -3.390000e+00 : u^20 coefficient for same-spin correlation
    Parameter  7 _css43     =  4.278000e+00 : u^43 coefficient for same-spin correlation
    Parameter  8 _cos00     =  1.000000e+00 : u^00 coefficient for opposite-spin correlation
    Parameter  9 _cos10     =  1.358000e+00 : u^10 coefficient for opposite-spin correlation
    Parameter 10 _cos20     =  2.924000e+00 : u^20 coefficient for opposite-spin correlation
    Parameter 11 _cos21     = -8.812000e+00 : u^21 coefficient for opposite-spin correlation
    Parameter 12 _cos60     = -1.390000e+00 : u^60 coefficient for opposite-spin correlation
    Parameter 13 _cos61     =  9.142000e+00 : u^61 coefficient for opposite-spin correlation
    Parameter 14 _alpha     =  1.000000e+00 : fraction of HF exchange
    Parameter 15 _beta      = -8.500000e-01 : fraction of short-range exchange
    Parameter 16 _omega     =  3.000000e-01 : range-separation constant
 Long-range corrected/Screened/Range-Separated Hybrid DFT is turned on
   Amount of maximum screened exact exchange              ....  0.850000
   Range separation parameter mu (erf(mu*r12)/r12)        ....  0.300000
 RI-approximation to the Coulomb term is turned on
   Number of AuxJ basis functions       .... 191
   RIJ-COSX (HFX calculated with COS-X)).... on


General Settings:
 Integral files         IntName         .... orca
 Hartree-Fock type      HFTyp           .... RHF
 Total Charge           Charge          ....    0
 Multiplicity           Mult            ....    1
 Number of Electrons    NEL             ....   24
 Basis Dimension        Dim             ....  182
 Nuclear Repulsion      ENuc            ....     69.6561305797 Eh

Convergence Acceleration:
 AO-DIIS                CNVDIIS         .... on
   Start iteration      DIISMaxIt       ....    12
   Startup error        DIISStart       ....  0.200000
   # of expansion vecs  DIISMaxEq       ....     5
   Bias factor          DIISBfac        ....   1.050
   Max. coefficient     DIISMaxC        ....  10.000
 MO-DIIS                CNVKDIIS        .... off
 Trust-Rad. Augm. Hess. CNVTRAH         .... auto
   Auto Start mean grad. ratio tolernc. ....  1.125000
   Auto Start start iteration           ....    50
   Auto Start num. interpolation iter.  ....    10
   Max. Number of Micro iterations      ....    24
   Max. Number of Macro iterations      .... Maxiter - #DIIS iter
   Number of Davidson start vectors     ....     2
   Converg. threshold    (grad. norm)   ....   1.000e-05
   Grad. Scal. Fac. for Micro threshold ....   0.100
   Minimum threshold for Micro iter.    ....   1.000e-02
   NR start threshold (gradient norm)   ....   1.000e-04
   Initial trust radius                 ....   0.400
   Minimum AH scaling param. (alpha)    ....   1.000
   Maximum AH scaling param. (alpha)    .... 1000.000
   Quad. conv. algorithm                .... NR
   White noise on init. David. guess    .... on
   Maximum white noise                  ....   0.010
   Pseudo random numbers                .... off
   Inactive MOs                         .... canonical
   Orbital update algorithm             .... Taylor
   Preconditioner                       .... Diag
   Full preconditioner red. dimension   ....   250
 SOSCF                  CNVSOSCF        .... on
   Start iteration      SOSCFMaxIt      ....   150
   Startup grad/error   SOSCFStart      ....  0.003300
   Hessian update       SOSCFHessUp     .... L-BFGS
 Level Shifting         CNVShift        .... on
   Level shift para.    LevelShift      ....    0.2500
   Turn off err/grad.   ShiftErr        ....    0.0010
 Zerner damping         CNVZerner       .... off
 Static damping         CNVDamp         .... on
   Fraction old density DampFac         ....    0.7000
   Max. Damping (<1)    DampMax         ....    0.9800
   Min. Damping (>=0)   DampMin         ....    0.0000
   Turn off err/grad.   DampErr         ....    0.1000

SCF Procedure:
 Maximum # iterations   MaxIter         ....   125
 SCF integral mode      SCFMode         .... Direct
   Integral package                     .... SHARK and LIBINT hybrid scheme
 Reset frequency        DirectResetFreq ....    20
 Integral Threshold     Thresh          ....  2.500e-11 Eh
 Primitive CutOff       TCut            ....  2.500e-12 Eh

Convergence Tolerance:
 Convergence Check Mode ConvCheckMode   .... Total+1el-Energy
 Convergence forced     ConvForced      .... 1
 Energy Change          TolE            ....  1.000e-08 Eh
 1-El. energy change                    ....  1.000e-05 Eh
 Orbital Gradient       TolG            ....  1.000e-05
 Orbital Rotation angle TolX            ....  1.000e-05
 DIIS Error             TolErr          ....  5.000e-07

------------------------------
INITIAL GUESS: MODEL POTENTIAL
------------------------------
Loading Hartree-Fock densities                     ... done
Calculating cut-offs                               ... done
Initializing the effective Hamiltonian             ... done
Setting up the integral package (SHARK)            ... done
Starting the Coulomb interaction                   ... done (   0.1 sec)
Making the grid                                    ... done (   0.2 sec)
Mapping shells                                     ... done
Starting the XC term evaluation                    ... done (   0.0 sec)
  promolecular density results
     # of electrons  =     23.998296285
     EX              =    -19.522507482
     EC              =     -0.771914489
     EX+EC           =    -20.294421971
Transforming the Hamiltonian                       ... done (   0.0 sec)
Diagonalizing the Hamiltonian                      ... done (   0.0 sec)
Back transforming the eigenvectors                 ... done (   0.0 sec)
Now organizing SCF variables                       ... done
                      ------------------
                      INITIAL GUESS DONE (   0.3 sec)
                      ------------------
             **** ENERGY FILE WAS UPDATED (orca.en.tmp) ****
Finished Guess after   1.3 sec
Maximum memory used throughout the entire GUESS-calculation: 9.7 MB
[1741192046.910818] [ohm:220774:0]        ib_iface.c:1059 UCX  ERROR ibv_create_cq(cqe=256) failed: Connection timed out
[1741192046.929344] [ohm:220775:0]        ib_iface.c:1059 UCX  ERROR ibv_create_cq(cqe=256) failed: Connection timed out
[1741192046.929330] [ohm:220771:0]        ib_iface.c:1059 UCX  ERROR ibv_create_cq(cqe=256) failed: Connection timed out
[1741192046.929372] [ohm:220773:0]        ib_iface.c:1059 UCX  ERROR ibv_create_cq(cqe=256) failed: Connection timed out
[1741192046.929516] [ohm:220777:0]        ib_iface.c:1059 UCX  ERROR ibv_create_cq(cqe=256) failed: Connection timed out
[1741192046.944857] [ohm:220784:0]        ib_iface.c:1059 UCX  ERROR ibv_create_cq(cqe=256) failed: Connection timed out
[1741192046.950071] [ohm:220789:0]        ib_iface.c:1059 UCX  ERROR ibv_create_cq(cqe=256) failed: Connection timed out
[1741192046.954722] [ohm:220776:0]        ib_iface.c:1059 UCX  ERROR ibv_create_cq(cqe=256) failed: Connection timed out
[1741192046.960680] [ohm:220772:0]        ib_iface.c:1059 UCX  ERROR ibv_create_cq(cqe=256) failed: Connection timed out
[1741192046.963345] [ohm:220778:0]        ib_iface.c:1059 UCX  ERROR ibv_create_cq(cqe=256) failed: Connection timed out
[1741192046.967320] [ohm:220770:0]        ib_iface.c:1059 UCX  ERROR ibv_create_cq(cqe=256) failed: Connection timed out
[1741192046.999099] [ohm:220795:0]        ib_iface.c:1059 UCX  ERROR ibv_create_cq(cqe=256) failed: Connection timed out
[1741192047.004135] [ohm:220786:0]        ib_iface.c:1059 UCX  ERROR ibv_create_cq(cqe=256) failed: Connection timed out
[1741192047.010733] [ohm:220803:0]        ib_iface.c:1059 UCX  ERROR ibv_create_cq(cqe=256) failed: Connection timed out
[1741192047.018652] [ohm:220799:0]        ib_iface.c:1059 UCX  ERROR ibv_create_cq(cqe=256) failed: Connection timed out
[1741192047.019661] [ohm:220802:0]        ib_iface.c:1059 UCX  ERROR ibv_create_cq(cqe=256) failed: Connection timed out


           ************************************************************
           *        Program running with 16 parallel MPI-processes    *
           *              working on a common directory               *
           ************************************************************

-------------------------------------------------------------------------------------------
                                      ORCA LEAN-SCF
                              memory conserving SCF solver
-------------------------------------------------------------------------------------------

----------------------------------------D-I-I-S--------------------------------------------
Iteration    Energy (Eh)           Delta-E    RMSDP     MaxDP     DIISErr   Damp  Time(sec)
-------------------------------------------------------------------------------------------
               ***  Starting incremental Fock matrix formation  ***
    1    -153.7998786096647166     0.00e+00  2.00e-03  4.75e-02  2.54e-01  0.700   0.7
    2    -153.8532705975484873    -5.34e-02  1.74e-03  4.50e-02  1.22e-01  0.700   0.3
                               ***Turning on AO-DIIS***
    3    -153.8774806395524593    -2.42e-02  1.30e-03  4.08e-02  5.70e-02  0.700   0.3
    4    -153.8920357910528196    -1.46e-02  3.17e-03  1.00e-01  3.38e-02  0.000   0.3
    5    -153.9241051849622295    -3.21e-02  2.01e-04  8.15e-03  4.76e-03  0.000   0.2
                              *** Initializing SOSCF ***
---------------------------------------S-O-S-C-F--------------------------------------
Iteration    Energy (Eh)           Delta-E    RMSDP     MaxDP     MaxGrad    Time(sec)
--------------------------------------------------------------------------------------
    6    -153.9242096814874117    -1.04e-04  1.03e-04  4.64e-03  2.61e-03     0.2
               *** Restarting incremental Fock matrix formation ***
    7    -153.9242284528164930    -1.88e-05  6.41e-05  2.12e-03  6.81e-04     0.3
    8    -153.9242341314431144    -5.68e-06  3.27e-05  7.99e-04  2.75e-04     0.3
    9    -153.9242351658142809    -1.03e-06  4.34e-06  8.37e-05  2.92e-05     0.3
   10    -153.9242351964112459    -3.06e-08  1.83e-06  4.92e-05  1.60e-05     0.3
   11    -153.9242352025919729    -6.18e-09  7.45e-07  2.63e-05  5.80e-06     0.3
                 **** Energy Check signals convergence ****

               *****************************************************
               *                     SUCCESS                       *
               *           SCF CONVERGED AFTER  11 CYCLES          *
               *****************************************************

Recomputing exchange energy using gridx3       ... done (    0.426 sec)
Old exchange energy                            :     -6.199446415 Eh
New exchange energy                            :     -6.199456202 Eh
Exchange energy change after final integration :     -0.000009787 Eh
Total energy after final integration           :   -153.924244989 Eh
             **** ENERGY FILE WAS UPDATED (orca.en.tmp) ****

----------------
TOTAL SCF ENERGY
----------------

Total Energy       :       -153.92424498913888 Eh           -4188.49164 eV

Components:
Nuclear Repulsion  :         69.65613057974304 Eh            1895.43968 eV
Electronic Energy  :       -223.58036578233504 Eh           -6083.93105 eV
One Electron Energy:       -345.87043786100787 Eh           -9411.61309 eV
Two Electron Energy:        122.29007207867285 Eh            3327.68204 eV

Virial components:
Potential Energy   :       -307.33303281078145 Eh           -8362.95699 eV
Kinetic Energy     :        153.40878782164259 Eh            4174.46534 eV
Virial Ratio       :          2.00336002373016

DFT components:
N(Alpha)           :       11.999986043726 electrons
N(Beta)            :       11.999986043726 electrons
N(Total)           :       23.999972087452 electrons
E(XC)              :      -14.753156906641 Eh       

---------------
SCF CONVERGENCE
---------------

  Last Energy change         ...    6.1807e-09  Tolerance :   1.0000e-08
  Last MAX-Density change    ...    2.6305e-05  Tolerance :   1.0000e-07
  Last RMS-Density change    ...    7.4455e-07  Tolerance :   5.0000e-09
  Last DIIS Error            ...    2.6059e-03  Tolerance :   5.0000e-07
  Last Orbital Gradient      ...    5.8023e-06  Tolerance :   1.0000e-05
  Last Orbital Rotation      ...    9.9261e-06  Tolerance :   1.0000e-05


----------------
ORBITAL ENERGIES
----------------

  NO   OCC          E(Eh)            E(eV) 
   0   2.0000     -19.341023      -526.2960 
   1   2.0000     -10.443723      -284.1882 
   2   2.0000     -10.361235      -281.9435 
   3   2.0000      -1.189344       -32.3637 
   4   2.0000      -0.890019       -24.2187 
   5   2.0000      -0.699438       -19.0327 
   6   2.0000      -0.597376       -16.2554 
   7   2.0000      -0.563615       -15.3368 
   8   2.0000      -0.557810       -15.1788 
   9   2.0000      -0.509498       -13.8642 
  10   2.0000      -0.478629       -13.0242 
  11   2.0000      -0.366883        -9.9834 
  12   0.0000       0.036186         0.9847 
  13   0.0000       0.056441         1.5358 
  14   0.0000       0.059241         1.6120 
  15   0.0000       0.082396         2.2421 
  16   0.0000       0.085708         2.3322 
  17   0.0000       0.109887         2.9902 
  18   0.0000       0.123544         3.3618 
  19   0.0000       0.125088         3.4038 
  20   0.0000       0.132501         3.6055 
  21   0.0000       0.166855         4.5404 
  22   0.0000       0.182456         4.9649 
*Only the first 10 virtual orbitals were printed.

                    ********************************
                    * MULLIKEN POPULATION ANALYSIS *
                    ********************************

-----------------------
MULLIKEN ATOMIC CHARGES
-----------------------
   0 O :   -0.474160
   1 C :    0.232623
   2 C :   -0.694994
   3 H :    0.230617
   4 H :    0.232376
   5 H :    0.241061
   6 H :    0.232479
Sum of atomic charges:   -0.0000000

--------------------------------
MULLIKEN REDUCED ORBITAL CHARGES
--------------------------------
  0 O s       :     4.008247  s :     4.008247
      pz      :     1.532386  p :     4.430132
      px      :     1.580049
      py      :     1.317696
      dz2     :     0.003826  d :     0.033898
      dxz     :     0.004437
      dyz     :     0.007089
      dx2y2   :     0.011422
      dxy     :     0.007124
      f0      :     0.000184  f :     0.001883
      f+1     :     0.000105
      f-1     :     0.000267
      f+2     :     0.000161
      f-2     :     0.000281
      f+3     :     0.000359
      f-3     :     0.000526

  1 C s       :     3.238977  s :     3.238977
      pz      :     0.838938  p :     2.335094
      px      :     0.778574
      py      :     0.717581
      dz2     :     0.013279  d :     0.177675
      dxz     :     0.000564
      dyz     :     0.080685
      dx2y2   :     0.042831
      dxy     :     0.040315
      f0      :     0.001229  f :     0.015631
      f+1     :     0.001327
      f-1     :     0.001968
      f+2     :     0.001943
      f-2     :     0.002158
      f+3     :     0.002788
      f-3     :     0.004218

  2 C s       :     3.397460  s :     3.397460
      pz      :     1.166458  p :     3.245986
      px      :     0.956764
      py      :     1.122764
      dz2     :     0.009440  d :     0.049639
      dxz     :     0.013752
      dyz     :     0.013433
      dx2y2   :     0.006866
      dxy     :     0.006148
      f0      :     0.000131  f :     0.001909
      f+1     :     0.000263
      f-1     :     0.000030
      f+2     :     0.000289
      f-2     :     0.000482
      f+3     :     0.000328
      f-3     :     0.000386

  3 H s       :     0.734548  s :     0.734548
      pz      :     0.012494  p :     0.032372
      px      :     0.006876
      py      :     0.013001
      dz2     :     0.000456  d :     0.002464
      dxz     :     0.000443
      dyz     :     0.000624
      dx2y2   :     0.000607
      dxy     :     0.000334

  4 H s       :     0.721781  s :     0.721781
      pz      :     0.015755  p :     0.043581
      px      :     0.005030
      py      :     0.022796
      dz2     :     0.000275  d :     0.002262
      dxz     :     0.000182
      dyz     :     0.000616
      dx2y2   :     0.000478
      dxy     :     0.000711

  5 H s       :     0.711494  s :     0.711494
      pz      :     0.020380  p :     0.045197
      px      :     0.015763
      py      :     0.009054
      dz2     :     0.000586  d :     0.002249
      dxz     :     0.000463
      dyz     :     0.000444
      dx2y2   :     0.000443
      dxy     :     0.000313

  6 H s       :     0.721632  s :     0.721632
      pz      :     0.011764  p :     0.043627
      px      :     0.014152
      py      :     0.017711
      dz2     :     0.000689  d :     0.002262
      dxz     :     0.000502
      dyz     :     0.000471
      dx2y2   :     0.000271
      dxy     :     0.000328



                     *******************************
                     * LOEWDIN POPULATION ANALYSIS *
                     *******************************

----------------------
LOEWDIN ATOMIC CHARGES
----------------------
   0 O :    0.074426
   1 C :   -0.240750
   2 C :    0.170959
   3 H :    0.022113
   4 H :   -0.009069
   5 H :   -0.008568
   6 H :   -0.009110

-------------------------------
LOEWDIN REDUCED ORBITAL CHARGES
-------------------------------
  0 O s       :     3.370003  s :     3.370003
      pz      :     1.395498  p :     4.315092
      px      :     1.473658
      py      :     1.445936
      dz2     :     0.026295  d :     0.234159
      dxz     :     0.011559
      dyz     :     0.065143
      dx2y2   :     0.059231
      dxy     :     0.071930
      f0      :     0.000596  f :     0.006321
      f+1     :     0.000336
      f-1     :     0.000882
      f+2     :     0.000726
      f-2     :     0.000761
      f+3     :     0.001572
      f-3     :     0.001448

  1 C s       :     2.705711  s :     2.705711
      pz      :     0.752960  p :     2.440991
      px      :     0.834850
      py      :     0.853180
      dz2     :     0.106893  d :     0.997449
      dxz     :     0.126575
      dyz     :     0.230489
      dx2y2   :     0.248891
      dxy     :     0.284601
      f0      :     0.007531  f :     0.096599
      f+1     :     0.009107
      f-1     :     0.011947
      f+2     :     0.014368
      f-2     :     0.011222
      f+3     :     0.018181
      f-3     :     0.024244

  2 C s       :     2.653111  s :     2.653111
      pz      :     0.921882  p :     2.734454
      px      :     0.898065
      py      :     0.914507
      dz2     :     0.045785  d :     0.412462
      dxz     :     0.132900
      dyz     :     0.059305
      dx2y2   :     0.091028
      dxy     :     0.083445
      f0      :     0.003686  f :     0.029014
      f+1     :     0.004645
      f-1     :     0.002686
      f+2     :     0.003779
      f-2     :     0.004055
      f+3     :     0.004772
      f-3     :     0.005390

  3 H s       :     0.711851  s :     0.711851
      pz      :     0.090059  p :     0.239375
      px      :     0.070483
      py      :     0.078833
      dz2     :     0.004916  d :     0.026661
      dxz     :     0.006020
      dyz     :     0.007297
      dx2y2   :     0.004441
      dxy     :     0.003987

  4 H s       :     0.695243  s :     0.695243
      pz      :     0.084462  p :     0.283099
      px      :     0.077022
      py      :     0.121615
      dz2     :     0.004127  d :     0.030728
      dxz     :     0.002050
      dyz     :     0.008682
      dx2y2   :     0.007579
      dxy     :     0.008290

  5 H s       :     0.702316  s :     0.702316
      pz      :     0.103046  p :     0.275810
      px      :     0.082362
      py      :     0.090402
      dz2     :     0.007905  d :     0.030442
      dxz     :     0.006737
      dyz     :     0.006396
      dx2y2   :     0.004823
      dxy     :     0.004580

  6 H s       :     0.695256  s :     0.695256
      pz      :     0.109699  p :     0.283121
      px      :     0.093754
      py      :     0.079667
      dz2     :     0.008577  d :     0.030733
      dxz     :     0.008188
      dyz     :     0.006477
      dx2y2   :     0.003480
      dxy     :     0.004011



                      *****************************
                      * MAYER POPULATION ANALYSIS *
                      *****************************

  NA   - Mulliken gross atomic population
  ZA   - Total nuclear charge
  QA   - Mulliken gross atomic charge
  VA   - Mayer's total valence
  BVA  - Mayer's bonded valence
  FA   - Mayer's free valence

  ATOM       NA         ZA         QA         VA         BVA        FA
  0 O      8.4742     8.0000    -0.4742     1.8089     1.8089    -0.0000
  1 C      5.7674     6.0000     0.2326     3.4479     3.4479    -0.0000
  2 C      6.6950     6.0000    -0.6950     3.7317     3.7317     0.0000
  3 H      0.7694     1.0000     0.2306     0.9718     0.9718    -0.0000
  4 H      0.7676     1.0000     0.2324     0.9909     0.9909    -0.0000
  5 H      0.7589     1.0000     0.2411     1.0263     1.0263     0.0000
  6 H      0.7675     1.0000     0.2325     0.9906     0.9906     0.0000

  Mayer bond orders larger than 0.100000
B(  0-O ,  1-C ) :   1.7703 B(  1-C ,  2-C ) :   0.7491 B(  1-C ,  3-H ) :   0.9950 
B(  2-C ,  4-H ) :   0.9913 B(  2-C ,  5-H ) :   0.9582 B(  2-C ,  6-H ) :   0.9908 


-------
TIMINGS
-------

Total SCF time: 0 days 0 hours 0 min 6 sec 

Total time                  ....       6.538 sec
Sum of individual times     ....       6.368 sec  ( 97.4%)

SCF preparation             ....       2.518 sec  ( 38.5%)
Fock matrix formation       ....       3.321 sec  ( 50.8%)
  Startup                   ....       0.027 sec  (  0.8% of F)
  Split-RI-J                ....       0.289 sec  (  8.7% of F)
  Chain of spheres X        ....       2.243 sec  ( 67.5% of F)
  XC integration            ....       0.680 sec  ( 20.5% of F)
    XC Preparation          ....       0.000 sec  (  0.0% of XC)
    Basis function eval.    ....       0.079 sec  ( 11.7% of XC)
    Density eval.           ....       0.189 sec  ( 27.8% of XC)
    XC-Functional eval.     ....       0.029 sec  (  4.2% of XC)
    XC-Potential eval.      ....       0.292 sec  ( 42.9% of XC)
Diagonalization             ....       0.000 sec  (  0.0%)
Density matrix formation    ....       0.163 sec  (  2.5%)
Total Energy calculation    ....       0.044 sec  (  0.7%)
Population analysis         ....       0.016 sec  (  0.2%)
Orbital Transformation      ....       0.028 sec  (  0.4%)
Orbital Orthonormalization  ....       0.000 sec  (  0.0%)
DIIS solution               ....       0.221 sec  (  3.4%)
SOSCF solution              ....       0.056 sec  (  0.9%)
Finished LeanSCF after   6.5 sec

Maximum memory used throughout the entire LEANSCF-calculation: 13.4 MB
[1741192054.013686] [ohm:220856:0]        ib_iface.c:1059 UCX  ERROR ibv_create_cq(cqe=256) failed: Connection timed out
[1741192054.046497] [ohm:220858:0]        ib_iface.c:1059 UCX  ERROR ibv_create_cq(cqe=256) failed: Connection timed out
[1741192054.046621] [ohm:220854:0]        ib_iface.c:1059 UCX  ERROR ibv_create_cq(cqe=256) failed: Connection timed out
[1741192054.079743] [ohm:220860:0]        ib_iface.c:1059 UCX  ERROR ibv_create_cq(cqe=256) failed: Connection timed out
[1741192054.082899] [ohm:220862:0]        ib_iface.c:1059 UCX  ERROR ibv_create_cq(cqe=256) failed: Connection timed out
[1741192054.083778] [ohm:220872:0]        ib_iface.c:1059 UCX  ERROR ibv_create_cq(cqe=256) failed: Connection timed out
[1741192054.083902] [ohm:220857:0]        ib_iface.c:1059 UCX  ERROR ibv_create_cq(cqe=256) failed: Connection timed out
[1741192054.089349] [ohm:220859:0]        ib_iface.c:1059 UCX  ERROR ibv_create_cq(cqe=256) failed: Connection timed out
[1741192054.089918] [ohm:220861:0]        ib_iface.c:1059 UCX  ERROR ibv_create_cq(cqe=256) failed: Connection timed out
[1741192054.091862] [ohm:220855:0]        ib_iface.c:1059 UCX  ERROR ibv_create_cq(cqe=256) failed: Connection timed out
[1741192054.092175] [ohm:220867:0]        ib_iface.c:1059 UCX  ERROR ibv_create_cq(cqe=256) failed: Connection timed out
[1741192054.117183] [ohm:220869:0]        ib_iface.c:1059 UCX  ERROR ibv_create_cq(cqe=256) failed: Connection timed out
[1741192054.128250] [ohm:220880:0]        ib_iface.c:1059 UCX  ERROR ibv_create_cq(cqe=256) failed: Connection timed out
[1741192054.131008] [ohm:220864:0]        ib_iface.c:1059 UCX  ERROR ibv_create_cq(cqe=256) failed: Connection timed out
[1741192054.239729] [ohm:220876:0]        ib_iface.c:1059 UCX  ERROR ibv_create_cq(cqe=256) failed: Connection timed out
[1741192054.253258] [ohm:220882:0]        ib_iface.c:1059 UCX  ERROR ibv_create_cq(cqe=256) failed: Connection timed out


           ************************************************************
           *        Program running with 16 parallel MPI-processes    *
           *              working on a common directory               *
           ************************************************************

------------------------------------------------------------------------------
                         ORCA PROPERTY INTEGRAL CALCULATIONS
------------------------------------------------------------------------------

GBWName                                   ... orca.gbw
Number of atoms                           ...      7
Number of basis functions                 ...    182
Max core memory                           ...   1024 MB

Dipole integrals                          ... YES
Quadrupole integrals                      ...  NO
Linear momentum integrals                 ... YES
Angular momentum integrals                ... YES
Higher moments length integrals           ...  NO
Higher moments velocity integrals         ...  NO
Kinetic energy integrals                  ...  NO
GIAO right hand sides                     ...  NO
GIAO dipole derivative integrals          ...  NO
SOC integrals                             ...  NO
EPR diamagnetic integrals (GIAO)          ...  NO
EPR gauge integrals                       ...  NO
Field gradient integrals                  ...  NO (   0 nuclei)
Spin-dipole/Fermi contact integrals       ...  NO (   0 nuclei)
Contact density integrals                 ...  NO (   0 nuclei)
Nucleus-orbit integrals                   ...  NO (   0 nuclei)
Geometric perturbations                   ...  NO (   7 nuclei)

Choice of electric origin   ... Center of mass
Position of electric origin ... (  1.3172,  0.2116, -0.0289) 
Choice of magnetic origin   ... GIAO
Position of magnetic origin ... (  0.0000,  0.0000,  0.0000) 

Calculating integrals                     ... Electric Dipole (Length)     done (  0.0 sec)
Calculating integrals                     ... Linear Momentum              done (  0.0 sec)
Calculating integrals                     ... Angular Momentum  (ElOri)    done (  0.0 sec)

Property integrals calculated in   0.1 sec

Maximum memory used throughout the entire PROPINT-calculation: 10.1 MB
[1741192055.523229] [ohm:220941:0]        ib_iface.c:1059 UCX  ERROR ibv_create_cq(cqe=256) failed: Connection timed out
[1741192055.535282] [ohm:220938:0]        ib_iface.c:1059 UCX  ERROR ibv_create_cq(cqe=256) failed: Connection timed out
[1741192055.546028] [ohm:220939:0]        ib_iface.c:1059 UCX  ERROR ibv_create_cq(cqe=256) failed: Connection timed out
[1741192055.546575] [ohm:220944:0]        ib_iface.c:1059 UCX  ERROR ibv_create_cq(cqe=256) failed: Connection timed out
[1741192055.551610] [ohm:220940:0]        ib_iface.c:1059 UCX  ERROR ibv_create_cq(cqe=256) failed: Connection timed out
[1741192055.557201] [ohm:220947:0]        ib_iface.c:1059 UCX  ERROR ibv_create_cq(cqe=256) failed: Connection timed out
[1741192055.559868] [ohm:220937:0]        ib_iface.c:1059 UCX  ERROR ibv_create_cq(cqe=256) failed: Connection timed out
[1741192055.561059] [ohm:220943:0]        ib_iface.c:1059 UCX  ERROR ibv_create_cq(cqe=256) failed: Connection timed out
[1741192055.564854] [ohm:220951:0]        ib_iface.c:1059 UCX  ERROR ibv_create_cq(cqe=256) failed: Connection timed out
[1741192055.567607] [ohm:220942:0]        ib_iface.c:1059 UCX  ERROR ibv_create_cq(cqe=256) failed: Connection timed out
[1741192055.573934] [ohm:220949:0]        ib_iface.c:1059 UCX  ERROR ibv_create_cq(cqe=256) failed: Connection timed out
[1741192055.578938] [ohm:220945:0]        ib_iface.c:1059 UCX  ERROR ibv_create_cq(cqe=256) failed: Connection timed out
[1741192055.579594] [ohm:220954:0]        ib_iface.c:1059 UCX  ERROR ibv_create_cq(cqe=256) failed: Connection timed out
[1741192055.587912] [ohm:220957:0]        ib_iface.c:1059 UCX  ERROR ibv_create_cq(cqe=256) failed: Connection timed out
[1741192055.592708] [ohm:220965:0]        ib_iface.c:1059 UCX  ERROR ibv_create_cq(cqe=256) failed: Connection timed out
[1741192055.593141] [ohm:220961:0]        ib_iface.c:1059 UCX  ERROR ibv_create_cq(cqe=256) failed: Connection timed out


           ************************************************************
           *        Program running with 16 parallel MPI-processes    *
           *              working on a common directory               *
           ************************************************************
------------------------------------------------------------------------------
                        ORCA TD-DFT/TDA CALCULATION
------------------------------------------------------------------------------

Input orbitals are from        ... orca.gbw
CI-vector output               ... orca.cis
Solver                         ... FN-2001
Tamm-Dancoff approximation     ... operative
CIS-Integral strategy          ... AO-integrals
Integral handling              ... AO integral Direct
Max. core memory used          ... 512 MB
Reference state                ... RHF
Generation of triplets         ... off
Follow IRoot                   ... off
Number of operators            ... 1
Orbital ranges used for CIS calculation:
 Operator 0:  Orbitals   3... 11  to  12...181
XAS localization array:
 Operator 0:  Orbitals  -1... -1

-------------------
XC-INTEGRATION GRID
-------------------

General Integration Accuracy     IntAcc      ... 3.467
Radial Grid Type                 RadialGrid  ... OptM3 with GC (2021)
Angular Grid (max. ang.)         AngularGrid ... 1 (Lebedev-50)
Angular grid pruning method      GridPruning ... 4 (adaptive)
Weight generation scheme         WeightScheme... mBecke (2022)
Basis function cutoff            BFCut       ... 1.0000e-11
Integration weight cutoff        WCut        ... 1.0000e-14
Partially contracted basis set               ... off
Rotationally invariant grid construction     ... off
Angular grids for H and He will be reduced by one unit
Diffuse basis detected: some atoms will have their outermost
                        angular grid increased by 1.

Total number of grid points                  ...     4738
Total number of batches                      ...       76
Average number of points per batch           ...       62
Average number of grid points per atom       ...      677

---------------------
COSX-INTEGRATION GRID
---------------------

General Integration Accuracy     IntAcc      ... 3.067
Radial Grid Type                 RadialGrid  ... OptM3 with GC (2021)
Angular Grid (max. ang.)         AngularGrid ... 1 (Lebedev-50)
Angular grid pruning method      GridPruning ... 4 (adaptive)
Weight generation scheme         WeightScheme... mBecke (2022)
Basis function cutoff            BFCut       ... 1.0000e-11
Integration weight cutoff        WCut        ... 1.0000e-14
Partially contracted basis set               ... on
Rotationally invariant grid construction     ... off
Angular grids for H and He will be reduced by one unit
Diffuse basis detected: some atoms will have their outermost
                        angular grid increased by 1.

Total number of grid points                  ...     2154
Total number of batches                      ...       22
Average number of points per batch           ...       97
Average number of grid points per atom       ...      308

---------------
TD-DFT XC SETUP
---------------

DFT calculation                         ... on
Name of the grid file                   ... orca.grid_cis.tmp
RI-approximation                        ... on
Aux-basis dimension                     ... 0
Functional (TD-DFT)
  Functional kind                       .... Exchange-Correlation
  Functional name                       .... wB97M-V exchange-correlation functional
  Functional family                     .... Hybrid MGGA
  Functional refs                              
    [ 0] N. Mardirossian and M. Head-Gordon.,  J. Chem. Phys. 144, 214110 (2016), doi: 10.1063/1.4952647
  Fraction of HF Exchange (short range) .... 0.1500
  Fraction of HF Exchange (long range)  .... 1.0000
  Range separation parameter mu         .... 0.3000
  Functional external parameters        .... 17
    Parameter  0 _cx00      =  8.500000e-01 : u^00 coefficient for exchange
    Parameter  1 _cx01      =  1.007000e+00 : u^01 coefficient for exchange
    Parameter  2 _cx10      =  2.590000e-01 : u^10 coefficient for exchange
    Parameter  3 _css00     =  4.430000e-01 : u^00 coefficient for same-spin correlation
    Parameter  4 _css04     = -1.437000e+00 : u^04 coefficient for same-spin correlation
    Parameter  5 _css10     = -4.535000e+00 : u^10 coefficient for same-spin correlation
    Parameter  6 _css20     = -3.390000e+00 : u^20 coefficient for same-spin correlation
    Parameter  7 _css43     =  4.278000e+00 : u^43 coefficient for same-spin correlation
    Parameter  8 _cos00     =  1.000000e+00 : u^00 coefficient for opposite-spin correlation
    Parameter  9 _cos10     =  1.358000e+00 : u^10 coefficient for opposite-spin correlation
    Parameter 10 _cos20     =  2.924000e+00 : u^20 coefficient for opposite-spin correlation
    Parameter 11 _cos21     = -8.812000e+00 : u^21 coefficient for opposite-spin correlation
    Parameter 12 _cos60     = -1.390000e+00 : u^60 coefficient for opposite-spin correlation
    Parameter 13 _cos61     =  9.142000e+00 : u^61 coefficient for opposite-spin correlation
    Parameter 14 _alpha     =  1.000000e+00 : fraction of HF exchange
    Parameter 15 _beta      = -8.500000e-01 : fraction of short-range exchange
    Parameter 16 _omega     =  3.000000e-01 : range-separation constant
Hybrid DFT                              ... on
   Exchange mixing (TD-DFT)             ...  0.150
   GGA exch. scaling (TD-DFT)           ...  0.000
   GGA corr. scaling (TD-DFT)           ...  1.000
Range-Separated Exchange                ... on
   Range Range separation parameter mu  .... 0.300
   Max. amount of RS exchange (TD-DFT)  ...  0.850

Building densities             ... done
Calculating rho(r) on the grid ... done
Building xc-kernel on the grid ... done
                    *** TD-DFT CALCULATION INITIALIZED ***

------------------------
DAVIDSON-DIAGONALIZATION
------------------------

Dimension of the eigenvalue problem            ...   1530
Number of roots to be determined               ...      4
Maximum size of the expansion space            ...     40
Maximum number of iterations                   ...    100
Convergence tolerance for the residual         ...    2.500e-07
Convergence tolerance for the energies         ...    2.500e-07
Orthogonality tolerance                        ...    1.000e-14
Level Shift                                    ...    0.000e+00
Constructing the preconditioner                ... o.k.
Building the initial guess                     ... o.k.
Number of trial vectors determined             ...     40


                       ****Iteration    0****
   Time for iteration     :  TOTAL=0.6 TRAFO=0.0 RIJ=0.2 COSX=0.2 XC=0.2
   Size of expansion space: 12
   Lowest Energy          :     0.168141383665
   Maximum Energy change  :     0.294749461668 (vector 3)
   Maximum residual norm  :     0.004035894926

                       ****Iteration    1****
   Time for iteration     :  TOTAL=0.4 TRAFO=0.0 RIJ=0.1 COSX=0.2 XC=0.1
   Size of expansion space: 16
   Lowest Energy          :     0.161189062039
   Maximum Energy change  :     0.007006243222 (vector 1)
   Maximum residual norm  :     0.000556665089

                       ****Iteration    2****
   Time for iteration     :  TOTAL=0.3 TRAFO=0.0 RIJ=0.1 COSX=0.1 XC=0.1
   Size of expansion space: 20
   Lowest Energy          :     0.160915707614
   Maximum Energy change  :     0.000617171776 (vector 1)
   Maximum residual norm  :     0.000029237037

                       ****Iteration    3****
   Time for iteration     :  TOTAL=0.3 TRAFO=0.0 RIJ=0.1 COSX=0.2 XC=0.1
   Size of expansion space: 24
   Lowest Energy          :     0.160894313476
   Maximum Energy change  :     0.000043067648 (vector 1)
   Maximum residual norm  :     0.000002477672

                       ****Iteration    4****
   Time for iteration     :  TOTAL=0.3 TRAFO=0.0 RIJ=0.0 COSX=0.2 XC=0.1
   Size of expansion space: 28
   Lowest Energy          :     0.160893307310
   Maximum Energy change  :     0.000003485102 (vector 2)
   Maximum residual norm  :     0.000000328206

                       ****Iteration    5****
   Time for iteration     :  TOTAL=0.2 TRAFO=0.0 RIJ=0.0 COSX=0.1 XC=0.0
   Size of expansion space: 32
   Lowest Energy          :     0.160893276641
   Maximum Energy change  :     0.000000706053 (vector 3)
   Maximum residual norm  :     0.000000204184

      *** CONVERGENCE OF RESIDUAL NORM REACHED ***

Storing the converged CI vectors               ... orca.cis1

                 *** DAVIDSON DONE ***

Total time for solving the CIS problem:     2.155sec

------------------------------------
TD-DFT/TDA EXCITED STATES (SINGLETS)
------------------------------------

the weight of the individual excitations are printed if larger than 1.0e-02

STATE  1:  E=   0.160893 au      4.378 eV    35312.0 cm**-1 <S**2> =   0.000000 Mult 1
    11a ->  13a  :     0.970192 (c=  0.98498339)
    11a ->  26a  :     0.011470 (c=  0.10709913)

STATE  2:  E=   0.243118 au      6.616 eV    53358.2 cm**-1 <S**2> =   0.000000 Mult 1
    11a ->  12a  :     0.798681 (c=  0.89368963)
    11a ->  14a  :     0.134411 (c=  0.36662117)
    11a ->  25a  :     0.017020 (c= -0.13046187)

STATE  3:  E=   0.278561 au      7.580 eV    61137.1 cm**-1 <S**2> =   0.000000 Mult 1
    11a ->  12a  :     0.088492 (c= -0.29747545)
    11a ->  14a  :     0.687070 (c=  0.82889671)
    11a ->  15a  :     0.124493 (c=  0.35283594)
    11a ->  17a  :     0.047257 (c=  0.21738632)
    11a ->  19a  :     0.011682 (c=  0.10808560)
    11a ->  29a  :     0.012298 (c= -0.11089579)

STATE  4:  E=   0.289126 au      7.868 eV    63455.7 cm**-1 <S**2> =   0.000000 Mult 1
    11a ->  16a  :     0.946356 (c=  0.97280855)
    11a ->  18a  :     0.024772 (c= -0.15739005)


-----------------------------
TD-DFT/TDA-EXCITATION SPECTRA
-----------------------------

Center of mass = (  1.3172,  0.2116, -0.0289)
Generating CIS transition densities           ... done

----------------------------------------------------------------------------------------------------
                     ABSORPTION SPECTRUM VIA TRANSITION ELECTRIC DIPOLE MOMENTS    
----------------------------------------------------------------------------------------------------
     Transition      Energy     Energy  Wavelength fosc(D2)      D2        DX        DY        DZ   
                      (eV)      (cm-1)    (nm)                 (au**2)    (au)      (au)      (au)  
----------------------------------------------------------------------------------------------------
  0-1A  ->  1-1A    4.378129   35312.0   283.2   0.000170258   0.00159   0.02073  -0.01945  -0.02792
  0-1A  ->  2-1A    6.615568   53358.2   187.4   0.009782876   0.06036  -0.09304  -0.21456   0.07529
  0-1A  ->  3-1A    7.580035   61137.1   163.6   0.070488790   0.37957   0.34317  -0.26899   0.43526
  0-1A  ->  4-1A    7.867505   63455.7   157.6   0.010502063   0.05449  -0.12497   0.11621   0.15926

----------------------------------------------------------------------------------------------------
                     ABSORPTION SPECTRUM VIA TRANSITION VELOCITY DIPOLE MOMENTS    
----------------------------------------------------------------------------------------------------
     Transition      Energy     Energy  Wavelength fosc(P2)      P2        PX        PY        PZ   
                      (eV)      (cm-1)    (nm)                 (au**2)    (au)      (au)      (au)  
----------------------------------------------------------------------------------------------------
  0-1A  ->  1-1A    4.378129   35312.0   283.2   0.000334212   0.00008  -0.00455   0.00458   0.00624
  0-1A  ->  2-1A    6.615568   53358.2   187.4   0.005399714   0.00197   0.02110   0.03779  -0.00979
  0-1A  ->  3-1A    7.580035   61137.1   163.6   0.044906192   0.01876  -0.08330   0.05105  -0.09602
  0-1A  ->  4-1A    7.867505   63455.7   157.6   0.004917385   0.00213   0.02494  -0.02312  -0.03124

------------------------------------------------------------------------------------------
                     CD SPECTRUM VIA TRANSITION ELECTRIC DIPOLE MOMENTS    
------------------------------------------------------------------------------------------
     Transition      Energy     Energy  Wavelength    R        MX        MY        MZ   
                      (eV)      (cm-1)    (nm)   (1e40*cgs)   (au)      (au)      (au)  
------------------------------------------------------------------------------------------
  0-1A  ->  1-1A    4.378129   35312.0   283.2   -0.14419  -0.26185  -0.50351   0.14529
  0-1A  ->  2-1A    6.615568   53358.2   187.4   -0.01461   0.10245  -0.09304  -0.13811
  0-1A  ->  3-1A    7.580035   61137.1   163.6   -0.03445   0.05421  -0.04886  -0.07277
  0-1A  ->  4-1A    7.867505   63455.7   157.6    0.27306   0.04928   0.02823   0.01443

------------------------------------------------------------------------------------------
                     CD SPECTRUM VIA TRANSITION VELOCITY DIPOLE MOMENTS    
------------------------------------------------------------------------------------------
     Transition      Energy     Energy  Wavelength    R        MX        MY        MZ   
                      (eV)      (cm-1)    (nm)   (1e40*cgs)   (au)      (au)      (au)  
------------------------------------------------------------------------------------------
  0-1A  ->  1-1A    4.378129   35312.0   283.2   -0.61492  -0.26185  -0.50351   0.14529
  0-1A  ->  2-1A    6.615568   53358.2   187.4   -0.00195   0.10245  -0.09304  -0.13811
  0-1A  ->  3-1A    7.580035   61137.1   163.6   -0.03840   0.05421  -0.04886  -0.07277
  0-1A  ->  4-1A    7.867505   63455.7   157.6    0.20402   0.04928   0.02823   0.01443

Total run time:        2.318 sec

           *** ORCA-CIS/TD-DFT FINISHED WITHOUT ERROR ***
-----------------------
CIS/TD-DFT TOTAL ENERGY
-----------------------

    E(SCF)  =   -153.924244989 Eh
    DE(CIS) =      0.160893277 Eh (Root  1)
    ----------------------------- ---------
    E(tot)  =   -153.763351712 Eh


------------------------
TD-DFT GRADIENT XC SETUP
------------------------

Building densities                     ... done
Calculating rho(r) on the grid         ... done
Building xc-kernel on the grid         ... done
Building xc 3rd derivative on the grid ... done
                *** TD-DFT GRADIENT CALCULATION INITIALIZED ***

--------------------------
TD-DFT/TDA RELAXED DENSITY
--------------------------

Reference wavefunction             ... RHF
State of interest                  ... 1
Basis dimension                    ... 182
DFT-XC contribution needed         ... YES
RI-approximation                   ... YES
Do Coulomb                         ... YES
Do Exchange                        ... YES
Need Hartree-Fock Exchange         ... YES
facj, facx                         ...  2.000, -0.150
Conventional                       ... NO
Range separation                   ... YES
Triplet state                      ... NO
Spin Flip                          ... NO
CIS-vectors being read from        ... orca.cis
 => Number of Vectors found: 4
 => Orbital Window: 3...11 -> 12...181

Reading the CIS file                     ... done
Norm of the CI vector                    ... 1.000000000
Making the CIS (pseudo)densities         ... done
Making operators G(D) and Q(T)           ... (SHARK-ok)done
Transforming the Fock operators          ... done
Making the frozen-core relaxed density   ... done
Constructing the G(H) operator           ... (SHARK-ok)done
Transforming the G(H) operator           ... done
Calculating the CIS Lagrangian           ... done
Solving the Z-vector equations           ... 

Using XC Grid                  ... (orca.grid_cpscf.tmp) 
Recalculating density on grid  ... (orca.grho_cpscf0.tmp) done
Calculating the xc-kernel      ... (orca.fxc_cpscf0.tmp) done

-------------------
SHARK CP-SCF DRIVER
-------------------

Dimension of the orbital basis          ...    182
Dimension of the CPSCF-problem          ...   2040
Number of operators                     ...      1
Max. number of iterations               ...    128
Convergence Tolerance                   ... 1.0e-04
Number of perturbations                 ...      1
Perturbation type                       ... REAL

----------------------------
POPLE LINEAR EQUATION SOLVER
----------------------------

  ITERATION   0:   ||err||_max =   9.1416e-01 (   0.1 sec)
  ITERATION   1:   ||err||_max =   3.5087e-02 (   0.1 sec)
  ITERATION   2:   ||err||_max =   1.0518e-02 (   0.1 sec)
  ITERATION   3:   ||err||_max =   2.5561e-03 (   0.2 sec)
  ITERATION   4:   ||err||_max =   7.5274e-04 (   0.2 sec)
  ITERATION   5:   ||err||_max =   2.0591e-04 (   0.2 sec)
  ITERATION   6:   ||err||_max =   4.4320e-05 (   0.2 sec)

Finalizing the relaxed density           ... done
Storing the relaxed density              ... done
Constructing the G(Z) operator           ... (SHARK-ok)done
Adding the XC terms                      ... done
Transforming the G(Z) operator           ... done
Making the W-matrix                      ... done
Finalizing the W-matrix                  ... done
Transforming the W-matrix                ... done
Nuc. rep. gradient        (SHARK) ... done (  0.0 sec)
HCore & Overlap gradient  (SHARK) ... done (  0.0 sec)
Split-RIJ-J gradient      (SHARK) ... done (  0.1 sec)
COSX-gradient                     ... done (  2.0 sec)
Dispersion correction             ... done (  0.1 sec)

-------------------
DISPERSION GRADIENT
-------------------

   1   O   :    0.000238445    0.000245357    0.000011504
   2   C   :    0.000127430    0.000055058    0.000057268
   3   C   :   -0.000109201   -0.000064547   -0.000037410
   4   H   :    0.000170519   -0.000003035    0.000128174
   5   H   :   -0.000078926   -0.000160433   -0.000087373
   6   H   :   -0.000168001   -0.000004033   -0.000121667
   7   H   :   -0.000180265   -0.000068367    0.000049503

Difference to translation invariance:
           :   -0.0000000000   -0.0000000000    0.0000000000

Difference to rotation invariance:
           :   -0.0000000000    0.0000000000    0.0000000000

Norm of the Dispersion gradient    ...    0.0005700950
RMS gradient                       ...    0.0001244049
MAX gradient                       ...    0.0002453571

                 ---------------------------
                 EXCITED STATE GRADIENT DONE
                 ---------------------------

------------------
CARTESIAN GRADIENT
------------------

   1   O   :   -0.045274966   -0.100127689    0.033483165
   2   C   :    0.032233034    0.100935396   -0.040446802
   3   C   :    0.008730644    0.004954058    0.000752949
   4   H   :   -0.002459372   -0.005171411    0.000951616
   5   H   :    0.003661213    0.000434517    0.003837561
   6   H   :   -0.001957856   -0.000774288   -0.000894575
   7   H   :    0.004891833   -0.000554165    0.002365675

Difference to translation invariance:
           :   -0.0001754717   -0.0003035812    0.0000495901

Difference to rotation invariance:
           :    0.0015935885   -0.0031152295    0.0022892864

Norm of the Cartesian gradient     ...    0.1620425364
RMS gradient                       ...    0.0353605804
MAX gradient                       ...    0.1009353965

------------------------------------------------------------------------------
                  RELAXED CIS/TDA DENSITY POPULATION ANALYSIS
                                   IROOT 1
------------------------------------------------------------------------------
------------------------------------------------------------------------------
                           ORCA POPULATION ANALYSIS
[...]
      dxy     :     0.228843
      f0      :     0.008775  f :     0.106062
      f+1     :     0.007518
      f-1     :     0.015780
      f+2     :     0.010717
      f-2     :     0.017497
      f+3     :     0.018189
      f-3     :     0.027586
  2 C s       :     2.643814  s :     2.643814
      pz      :     0.922276  p :     2.691177
      px      :     0.862204
      py      :     0.906697
      dz2     :     0.049984  d :     0.482554
      dxz     :     0.145100
      dyz     :     0.078441
      dx2y2   :     0.127008
      dxy     :     0.082021
      f0      :     0.003446  f :     0.032962
      f+1     :     0.006783
      f-1     :     0.003084
      f+2     :     0.003565
      f-2     :     0.004785
      f+3     :     0.006197
      f-3     :     0.005102
  3 H s       :     0.660659  s :     0.660659
      pz      :     0.109270  p :     0.274940
      px      :     0.082602
      py      :     0.083068
      dz2     :     0.008606  d :     0.030031
      dxz     :     0.005538
      dyz     :     0.006882
      dx2y2   :     0.004223
      dxy     :     0.004781
  4 H s       :     0.700688  s :     0.700688
      pz      :     0.085432  p :     0.286788
      px      :     0.077213
      py      :     0.124143
      dz2     :     0.004125  d :     0.030294
      dxz     :     0.002011
      dyz     :     0.008709
      dx2y2   :     0.007585
      dxy     :     0.007864
  5 H s       :     0.700273  s :     0.700273
      pz      :     0.103943  p :     0.277125
      px      :     0.082170
      py      :     0.091012
      dz2     :     0.008104  d :     0.030160
      dxz     :     0.006564
      dyz     :     0.006352
      dx2y2   :     0.004513
      dxy     :     0.004627
  6 H s       :     0.700715  s :     0.700715
      pz      :     0.109776  p :     0.286797
      px      :     0.098131
      py      :     0.078891
      dz2     :     0.008181  d :     0.030298
      dxz     :     0.008326
      dyz     :     0.006520
      dx2y2   :     0.003406
      dxy     :     0.003865


                      *****************************
                      * MAYER POPULATION ANALYSIS *
                      *****************************

  NA   - Mulliken gross atomic population
  ZA   - Total nuclear charge
  QA   - Mulliken gross atomic charge
  VA   - Mayer's total valence
  BVA  - Mayer's bonded valence
  FA   - Mayer's free valence

  ATOM       NA         ZA         QA         VA         BVA        FA
  0 O      8.3553     8.0000    -0.3553     1.9432     1.1259     0.8172
  1 C      5.8815     6.0000     0.1185     3.3699     2.5361     0.8338
  2 C      6.6446     6.0000    -0.6446     3.6758     3.5544     0.1214
  3 H      0.8044     1.0000     0.1956     0.9667     0.8528     0.1139
  4 H      0.7835     1.0000     0.2165     1.0311     1.0069     0.0243
  5 H      0.7470     1.0000     0.2530     0.9875     0.9843     0.0032
  6 H      0.7836     1.0000     0.2164     1.0306     1.0064     0.0242

  Mayer bond orders larger than 0.100000
B(  0-O ,  1-C ) :   1.1121 B(  1-C ,  2-C ) :   0.6376 B(  1-C ,  3-H ) :   0.8860 
B(  2-C ,  4-H ) :   1.0111 B(  2-C ,  5-H ) :   0.9262 B(  2-C ,  6-H ) :   1.0104 



-------
TIMINGS
-------

Total TD-DFT gradient time  ....        5.205 sec

Fock matrix formation       ....       1.160 sec  ( 22.3%)
  Coulomb formation         ....       0.884 sec  ( 76.3% of F)
  XC integration            ....       0.275 sec  ( 23.7% of F)
Z-vector equation           ....       1.199 sec  ( 23.0%)
Densities                   ....       0.000 sec  (  0.0%)
One electron gradient       ....       0.011 sec  (  0.2%)
RI-J Coulomb gradient       ....       0.137 sec  (  2.6%)
COSX gradient               ....       0.434 sec  (  8.3%)
XC gradient                 ....       2.004 sec  ( 38.5%)

Maximum memory used throughout the entire CIS-calculation: 34.9 MB
=> NOW LEAVING ORCA_CIS


-------------------------------------------------------------------------------
                          DFT DISPERSION CORRECTION                            
                                                                               
                              DFTD3 V3.1  Rev 1                                
                          USING Becke-Johnson damping                          
-------------------------------------------------------------------------------
The WB97M functional is recognized
Active option DFTDOPT                   ...         4   

molecular C6(AA) [au] = 395.066939 


            DFT-D V3
 parameters
 s6 scaling factor         :     1.0000 
 a1 scaling factor         :     0.5660 
 s8 scaling factor         :     0.3908 
 a2 scaling factor         :     3.1280 
 ad hoc parameters k1-k3   :    16.0000     1.3333    -4.0000 

 Edisp/kcal,au: -3.463472592395  -0.005519394314 
 E6   /kcal   :  -2.793289861 
 E8   /kcal   :  -0.670182732 
 % E8         :  19.350022671 

-------------------------   ----------------
Dispersion correction           -0.005519394
-------------------------   ----------------


-------------------------   --------------------
FINAL SINGLE POINT ENERGY      -153.768871106812
-------------------------   --------------------

[1741192064.563005] [ohm:221027:0]        ib_iface.c:1059 UCX  ERROR ibv_create_cq(cqe=256) failed: Connection timed out
[1741192064.578478] [ohm:221023:0]        ib_iface.c:1059 UCX  ERROR ibv_create_cq(cqe=256) failed: Connection timed out
[1741192064.578850] [ohm:221025:0]        ib_iface.c:1059 UCX  ERROR ibv_create_cq(cqe=256) failed: Connection timed out
[1741192064.590844] [ohm:221024:0]        ib_iface.c:1059 UCX  ERROR ibv_create_cq(cqe=256) failed: Connection timed out
[1741192064.602420] [ohm:221030:0]        ib_iface.c:1059 UCX  ERROR ibv_create_cq(cqe=256) failed: Connection timed out
[1741192064.623055] [ohm:221026:0]        ib_iface.c:1059 UCX  ERROR ibv_create_cq(cqe=256) failed: Connection timed out
[1741192064.630778] [ohm:221028:0]        ib_iface.c:1059 UCX  ERROR ibv_create_cq(cqe=256) failed: Connection timed out
[1741192064.642346] [ohm:221032:0]        ib_iface.c:1059 UCX  ERROR ibv_create_cq(cqe=256) failed: Connection timed out
[1741192064.647277] [ohm:221034:0]        ib_iface.c:1059 UCX  ERROR ibv_create_cq(cqe=256) failed: Connection timed out
[1741192064.697302] [ohm:221054:0]        ib_iface.c:1059 UCX  ERROR ibv_create_cq(cqe=256) failed: Connection timed out
[1741192064.706177] [ohm:221037:0]        ib_iface.c:1059 UCX  ERROR ibv_create_cq(cqe=256) failed: Connection timed out
[1741192064.711015] [ohm:221042:0]        ib_iface.c:1059 UCX  ERROR ibv_create_cq(cqe=256) failed: Connection timed out
[1741192064.723256] [ohm:221050:0]        ib_iface.c:1059 UCX  ERROR ibv_create_cq(cqe=256) failed: Connection timed out
[1741192064.734698] [ohm:221056:0]        ib_iface.c:1059 UCX  ERROR ibv_create_cq(cqe=256) failed: Connection timed out
[1741192064.735239] [ohm:221048:0]        ib_iface.c:1059 UCX  ERROR ibv_create_cq(cqe=256) failed: Connection timed out
[1741192064.745752] [ohm:221059:0]        ib_iface.c:1059 UCX  ERROR ibv_create_cq(cqe=256) failed: Connection timed out


           ************************************************************
           *        Program running with 16 parallel MPI-processes    *
           *              working on a common directory               *
           ************************************************************

------------------------------------------------------------------------------
                              ORCA PROPERTY CALCULATIONS
------------------------------------------------------------------------------

GBWName                                 ... orca.gbw
Number of atoms                         ...      7
Number of basis functions               ...    182
Max core memory                         ...   1024 MB

Electric properties:
Dipole moment                           ... YES
Quadrupole moment                       ...  NO
Static polarizability (Dipole/Dipole)   ...  NO
Static polarizability (Dipole/Quad.)    ...  NO
Static polarizability (Quad./Quad.)     ...  NO
Static polarizability (Velocity)        ...  NO

Atomic electric properties:
Dipole moment                           ...  NO
Quadrupole moment                       ...  NO
Static polarizability                   ...  NO

Choice of electric origin               ... Center of mass
Position of electric origin             ...     1.317203     0.211611    -0.028856

General magnetic properties:
Magnetizability                         ...  NO

EPR properties:
g-Tensor (aka g-matrix)                 ...  NO
Zero-Field splitting spin-orbit         ...  NO
Zero-field splitting spin-spin          ...  NO
Hyperfine couplings                     ...  NO (   0 nuclei)
Quadrupole couplings                    ...  NO (   0 nuclei)
Contact density                         ...  NO (   0 nuclei)

NMR properties:
Chemical shifts                         ...  NO (   0 nuclei)
Spin-rotation constants                 ...  NO (   0 nuclei)
Spin-spin couplings                     ...  NO (   0 nuclei,    0 pairs)

Choice of magnetic origin               ... GIAO
Position of magnetic origin             ...     0.000000     0.000000     0.000000

Properties with geometric perturbations:
SCF Hessian                             ...  NO
IR spectrum                             ...  NO
VCD spectrum                            ...  NO
X-ray spectroscopy properties:
SCF XES/XAS/RIXS spectra                ...  NO


-------------
DIPOLE MOMENT
-------------

Method             : SCF
Type of density    : Electron Density
Multiplicity       :   1
Irrep              :   0
Energy             :  -153.9242449891388844 Eh
Relativity type    : 
Basis              : AO
                                X                 Y                 Z
Electronic contribution:      2.329648309       2.460053976       0.070391020
Nuclear contribution   :     -2.975398800      -3.416595526       0.094783672
                        -----------------------------------------
Total Dipole Moment    :     -0.645750492      -0.956541550       0.165174692
                        -----------------------------------------
Magnitude (a.u.)       :      1.165867966
Magnitude (Debye)      :      2.963400863



--------------------
Rotational spectrum 
--------------------
 
Rotational constants in cm-1:             2.123673             0.323747             0.296225 
Rotational constants in MHz :         63666.125781          9705.686792          8880.604362 

Dipole components along the rotational axes: 
x,y,z [a.u.] :     1.105056    -0.371618     0.000012 
x,y,z [Debye]:     2.808828    -0.944578     0.000031 

 

-------------
DIPOLE MOMENT
-------------

Method             : TDA/CIS
Type of density    : Electron Density
Level              : Relaxed density
State              :   1
Multiplicity       :   1
Irrep              :   0
Energy             :     0.0000000000000000 Eh
Relativity type    : 
Basis              : AO
                                X                 Y                 Z
Electronic contribution:      2.530935533       2.768060384       0.011748742
Nuclear contribution   :     -2.975398800      -3.416595526       0.094783672
                        -----------------------------------------
Total Dipole Moment    :     -0.444463267      -0.648535142       0.106532414
                        -----------------------------------------
Magnitude (a.u.)       :      0.793406946
Magnitude (Debye)      :      2.016680188



--------------------
Rotational spectrum 
--------------------
 
Rotational constants in cm-1:             2.123673             0.323747             0.296225 
Rotational constants in MHz :         63666.125781          9705.686792          8880.604362 

Dipole components along the rotational axes: 
x,y,z [a.u.] :     0.754559    -0.245223     0.000391 
x,y,z [Debye]:     1.917938    -0.623308     0.000993 

 

Dipole moment calculation done in   0.5 sec 

Maximum memory used throughout the entire PROP-calculation: 7.3 MB
[1741192066.615887] [ohm:221109:0]        ib_iface.c:1059 UCX  ERROR ibv_create_cq(cqe=256) failed: Connection timed out
[1741192066.622722] [ohm:221111:0]        ib_iface.c:1059 UCX  ERROR ibv_create_cq(cqe=256) failed: Connection timed out
[1741192066.630061] [ohm:221108:0]        ib_iface.c:1059 UCX  ERROR ibv_create_cq(cqe=256) failed: Connection timed out
[1741192066.642703] [ohm:221106:0]        ib_iface.c:1059 UCX  ERROR ibv_create_cq(cqe=256) failed: Connection timed out
[1741192066.659869] [ohm:221107:0]        ib_iface.c:1059 UCX  ERROR ibv_create_cq(cqe=256) failed: Connection timed out
[1741192066.683137] [ohm:221112:0]        ib_iface.c:1059 UCX  ERROR ibv_create_cq(cqe=256) failed: Connection timed out
[1741192066.691525] [ohm:221110:0]        ib_iface.c:1059 UCX  ERROR ibv_create_cq(cqe=256) failed: Connection timed out
[1741192066.716702] [ohm:221116:0]        ib_iface.c:1059 UCX  ERROR ibv_create_cq(cqe=256) failed: Connection timed out
[1741192066.716795] [ohm:221131:0]        ib_iface.c:1059 UCX  ERROR ibv_create_cq(cqe=256) failed: Connection timed out
[1741192066.716702] [ohm:221140:0]        ib_iface.c:1059 UCX  ERROR ibv_create_cq(cqe=256) failed: Connection timed out
[1741192066.728113] [ohm:221113:0]        ib_iface.c:1059 UCX  ERROR ibv_create_cq(cqe=256) failed: Connection timed out
[1741192066.735769] [ohm:221134:0]        ib_iface.c:1059 UCX  ERROR ibv_create_cq(cqe=256) failed: Connection timed out
[1741192066.740645] [ohm:221125:0]        ib_iface.c:1059 UCX  ERROR ibv_create_cq(cqe=256) failed: Connection timed out
[1741192066.742138] [ohm:221114:0]        ib_iface.c:1059 UCX  ERROR ibv_create_cq(cqe=256) failed: Connection timed out
[1741192066.754985] [ohm:221119:0]        ib_iface.c:1059 UCX  ERROR ibv_create_cq(cqe=256) failed: Connection timed out
[1741192066.759603] [ohm:221123:0]        ib_iface.c:1059 UCX  ERROR ibv_create_cq(cqe=256) failed: Connection timed out

--------------------------------
SUGGESTED CITATIONS FOR THIS RUN
--------------------------------

Below you find a list of papers that are relevant to this ORCA run
We neither can nor want to force you to cite these papers, but we appreciate if you do
You receive ORCA, which is the product of decades of hard work by many enthusiastic individuals, for free
The only thing we kindly ask in return is that you cite our papers,
We deeply appreciate it, if you show your appreciation for ORCA by not just citing the generic ORCA reference.

Please note that relegating all ORCA citations to the supporting information does *not* help us.
SI sections are not indexed - citations you put there will not count into any citation statistics
But we need these citations in order to attract the funding resources that allow us to do what we are doing

Therefore, if you are a happy ORCA user, please consider citing a few of the papers listed below in the main body of your paper

In addition to the list printed below, the program has created the file orca.bibtex that contains the list in bibtex format
You can import this file easily into all common literature databanks and citation aid programs


List of essential papers. We consider these as the minimum necessary citations

  1. Neese,F.
     Software update: the ORCA program system, version 5.0
     WIRES Comput. Molec. Sci., 2022 12(1)e1606
     doi.org/10.1002/wcms.1606

List of papers to cite with high priority. The work reported in these papers was absolutely
necessary for this run to complete.
Our perspective: the developers of density functionals and basis sets usually get cited in chemistry papers
Good! But without the algorithms to do something with them, the functionals or basis sets would not do anything.
Hence, in our opinion, the algorithm design and method developments papers are equally worthy of getting cited

  1. Neese,F.; Olbrich,G.
     Efficient use of the resolution of the identity approximation in time-dependent density functional calculations with hybrid density functionals
     Chem. Phys. Lett., 2002 362 170-178
     doi.org/10.1016/s0009-2614(02)01053-9
  2. Neese,F.
     An improvement of the resolution of the identity approximation for the formation of the Coulomb matrix
     J. Comp. Chem., 2003 24(14)1740-1747
     doi.org/10.1002/jcc.10318
  3. Neese,F.; Wennmohs,F.; Hansen,A.; Becker,U.
     Efficient, approximate and parallel Hartree-Fock and hybrid DFT calculations. A 'chain-of-spheres' algorithm for the Hartree-Fock exchange
     Chem. Phys., 2009 356(1-3)98-109
     doi.org/10.1016/j.chemphys.2008.10.036
  4. Petrenko,T.; Kossmann,S.; Neese,F.
     Efficient time-dependent density functional theory approximations for hybrid density functionals: Analytical gradients and parallelization
     J. Chem. Phys., 2011 134 054116
     doi.org/10.1063/1.3533441
  5. Helmich-Paris,B.; de Souza,B.; Neese,F.; Izsák,R.
     An improved chain of spheres for exchange algorithm
     J. Chem. Phys., 2021 155 104109
     doi.org/doi: 10.1063/5.0058766.
  6. Neese,F.
     The SHARK Integral Generation and Digestion System
     J. Comp. Chem., 2022  1-16
     doi.org/10.1002/jcc.26942
  7. Lehtola,S.; Steigemann,C.; Oliveira,M.; Marques,M.
     Recent developments in Libxc - A comprehensive library of functionals for density functional theory
     Software X, 2018 7 
     doi.org/10.1016/j.softx.2017.11.002
  8. Grimme,S.; Antony,J.; Ehrlich,S.; Krieg,H.
     A consistent and accurate ab initio parametrization of density functional dispersion correction (DFT-D) for the 94 elements H-Pu
     J. Chem. Phys., 2010 132 154104-XXXX
     doi.org/10.1063/1.3382344
  9. Grimme,S.; Ehrlich,S.; Goerigk,L.
     Effect of the damping function in dispersion corrected density functional theory
     J. Comput. Chem., 2011 32(7)1456-1465
     doi.org/10.1002/jcc.21759

List of suggested additional citations. These are papers that are important in the 'surrounding' of 
of this run, or papers that preceded the highly important papers. If you like your results we are grateful for a citation.

  1. Izsak,R.; Neese,F.
     An overlap fitted chain of spheres exchange method
     J. Chem. Phys., 2011 135 144105
     doi.org/10.1063/1.3646921
  2. Izsak,R.; Hansen,A.; Neese,F.
     The resolution of identity and chain of spheres approximations for the LPNO-CCSD singles Fock term
     Molec. Phys., 2012 110 2413-2417
     doi.org/10.1080/00268976.2012.687466
  3. Neese,F.
     The ORCA program system
     WIRES Comput. Molec. Sci., 2012 2(1)73-78
     doi.org/10.1002/wcms.81
  4. Izsak,R.; Neese,F.; Klopper,W.
     Robust fitting techniques in the chain of spheres approximation to the Fock exchange: The role of the complementary space
     J. Chem. Phys., 2013 139 
     doi.org/10.1063/1.4819264
  5. Neese,F.
     Software update: the ORCA program system, version 4.0
     WIRES Comput. Molec. Sci., 2018 8(1)1-6
     doi.org/10.1002/wcms.1327
  6. Neese,F.; Wennmohs,F.; Becker,U.; Riplinger,C.
     The ORCA quantum chemistry program package
     J. Chem. Phys., 2020 152 Art. No. L224108
     doi.org/10.1063/5.0004608

List of optional additional citations

  1. Neese,F.
     Approximate second-order SCF convergence for spin unrestricted wavefunctions
     Chem. Phys. Lett., 2000 325(1-3)93-98
     doi.org/10.1016/s0009-2614(00)00662-x

Timings for individual modules:

Sum of individual times          ...       23.907 sec (=   0.398 min)
Startup calculation              ...        2.177 sec (=   0.036 min)   9.1 %
SCF iterations                   ...        8.950 sec (=   0.149 min)  37.4 %
Property integrals               ...        1.755 sec (=   0.029 min)   7.3 %
Property calculations            ...        2.321 sec (=   0.039 min)   9.7 %
CIS module                       ...        8.704 sec (=   0.145 min)  36.4 %
                             ****ORCA TERMINATED NORMALLY****
TOTAL RUN TIME: 0 days 0 hours 0 minutes 25 seconds 273 msec
