
                                 *****************
                                 * O   R   C   A *
                                 *****************

                                            #,                                       
                                            ###                                      
                                            ####                                     
                                            #####                                    
                                            ######                                   
                                           ########,                                 
                                     ,,################,,,,,                         
                               ,,#################################,,                 
                          ,,##########################################,,             
                       ,#########################################, ''#####,          
                    ,#############################################,,   '####,        
                  ,##################################################,,,,####,       
                ,###########''''           ''''###############################       
              ,#####''   ,,,,##########,,,,          '''####'''          '####       
            ,##' ,,,,###########################,,,                        '##       
           ' ,,###''''                  '''############,,,                           
         ,,##''                                '''############,,,,        ,,,,,,###''
      ,#''                                            '''#######################'''  
     '                                                          ''''####''''         
             ,#######,   #######,   ,#######,      ##                                
            ,#'     '#,  ##    ##  ,#'     '#,    #''#        ,####,   ,####,        
            ##       ##  ##   ,#'  ##            #'  '#       #'       #'  '#        
            ##       ##  #######   ##           ,######,      #####,   #    #        
            '#,     ,#'  ##    ##  '#,     ,#' ,#      #,     #,   #   #,  ,#        
             '#######'   ##     ##  '#######'  #'      '#     '####' # '####'        



                #########################################################
                #                        -***-                          #
                #          Department of theory and spectroscopy        #
                #                                                       #
                #                      Frank Neese                      #
                #                                                       #
                #     Directorship, Architecture, Infrastructure        #
                #                    SHARK, DRIVERS                     #
                #        Core code/Algorithms in most modules           #
                #                                                       #
                #        Max Planck Institute fuer Kohlenforschung      #
                #                Kaiser Wilhelm Platz 1                 #
                #                 D-45470 Muelheim/Ruhr                 #
                #                      Germany                          #
                #                                                       #
                #                  All rights reserved                  #
                #                        -***-                          #
                #########################################################


                         Program Version 6.0.0  -   RELEASE  -


 With contributions from (in alphabetic order):
   Daniel Aravena         : Magnetic Suceptibility
   Michael Atanasov       : Ab Initio Ligand Field Theory (pilot matlab implementation)
   Alexander A. Auer      : GIAO ZORA, VPT2 properties, NMR spectrum
   Ute Becker             : All parallelization in ORCA, NUMFREQ, NUMCALC
   Giovanni Bistoni       : ED, misc. LED, open-shell LED, HFLD
   Martin Brehm           : Molecular dynamics
   Dmytro Bykov           : pre 5.0 version of the SCF Hessian
   Marcos Casanova-Páez   : Triplet and SCS-CIS(D). UHF-(DLPNO)-IP/EA/STEOM-CCSD. UHF-CVS-IP/STEOM-CCSD
   Vijay G. Chilkuri      : MRCI spin determinant printing, contributions to CSF-ICE
   Pauline Colinet        : FMM embedding
   Dipayan Datta          : RHF DLPNO-CCSD density
   Achintya Kumar Dutta   : EOM-CC, STEOM-CC
   Nicolas Foglia         : Exact transition moments, OPA infrastructure, MCD improvements
   Dmitry Ganyushin       : Spin-Orbit,Spin-Spin,Magnetic field MRCI
   Miquel Garcia          : C-PCM and meta-GGA Hessian, CCSD/C-PCM, Gaussian charge scheme
   Tiago L. C. Gouveia    : GS-ROHF, GS-ROCIS
   Yang Guo               : DLPNO-NEVPT2, F12-NEVPT2, CIM, IAO-localization
   Andreas Hansen         : Spin unrestricted coupled pair/coupled cluster methods
   Ingolf Harden          : AUTO-CI MPn and infrastructure 
   Benjamin Helmich-Paris : MC-RPA, TRAH-(SCF,CASSCF), AVAS, COSX integrals, SCF dyn. polar.
   Lee Huntington         : MR-EOM, pCC
   Robert Izsak           : Overlap fitted RIJCOSX, COSX-SCS-MP3, EOM
   Riya Kayal             : Wick's Theorem for AUTO-CI, AUTO-CI UHF-CCSDT
   Emily Kempfer          : AUTO-CI, RHF CISDT and CCSDT
   Christian Kollmar      : KDIIS, OOCD, Brueckner-CCSD(T), CCSD density, CASPT2, CASPT2-K, improved NEVPT2
   Axel Koslowski         : Symmetry handling
   Simone Kossmann        : Meta GGA functionals, TD-DFT gradient, OOMP2, (MP2 Hessian; deprecated post 5.0)
   Lucas Lang             : DCDCAS
   Marvin Lechner         : AUTO-CI (C++ implementation), FIC-MRCC
   Spencer Leger          : CASSCF response
   Dagmar Lenk            : GEPOL surface, SMD, ORCA-2-JSON
   Dimitrios Liakos       : Extrapolation schemes; Compound Job, initial MDCI parallelization
   Dimitrios Manganas     : Further ROCIS development; embedding schemes. LFT, Crystal Embedding
   Dimitrios Pantazis     : SARC Basis sets
   Anastasios Papadopoulos: AUTO-CI, single reference methods and gradients
   Taras Petrenko         : pre 6.0 DFT Hessian and TD-DFT gradient, (ASA, deprecated), ECA, 1-Electron XAS/XES, NRVS
   Peter Pinski           : DLPNO-MP2, DLPNO-MP2 Gradient
   Christoph Reimann      : Effective Core Potentials
   Marius Retegan         : Local ZFS, SOC
   Christoph Riplinger    : Optimizer, TS searches, QM/MM, DLPNO-CCSD(T), (RO)-DLPNO pert. Triples
   Michael Roemelt        : Original ROCIS implementation
   Masaaki Saitow         : Open-shell DLPNO-CCSD energy and density
   Barbara Sandhoefer     : DKH picture change effects
   Kantharuban Sivalingam : CASSCF convergence/infrastructure, NEVPT2 and variants, FIC-MRCI
   Bernardo de Souza      : ESD, SOC TD-DFT
   Georgi Stoychev        : AutoAux, RI-MP2 NMR, DLPNO-MP2 response, X2C
   Van Anh Tran           : RI-MP2 g-tensors
   Willem Van den Heuvel  : Paramagnetic NMR
   Zikuan Wang            : NOTCH, Electric field optimization 
   Frank Wennmohs         : Technical directorship and infrastructure
   Hang Xu                : AUTO-CI-Response properties 


 We gratefully acknowledge several colleagues who have allowed us to
 interface, adapt or use parts of their codes:
   Stefan Grimme, W. Hujo, H. Kruse, P. Pracht,  : VdW corrections, initial TS optimization,
                  C. Bannwarth, S. Ehlert,         DFT functionals, gCP, sTDA/sTD-DF
                  L. Wittmann, M. Mueller
   Ed Valeev, F. Pavosevic, A. Kumar             : LibInt (2-el integral package), F12 methods
   Garnet Chan, S. Sharma, J. Yang, R. Olivares  : DMRG
   Ulf Ekstrom                                   : XCFun DFT Library
   Mihaly Kallay                                 : mrcc  (arbitrary order and MRCC methods)
   Frank Weinhold                                : gennbo (NPA and NBO analysis)
   Simon Mueller                                 : openCOSMO-RS
   Christopher J. Cramer and Donald G. Truhlar   : smd solvation model
   Lars Goerigk                                  : TD-DFT with DH, B97 family of functionals
   V. Asgeirsson, H. Jonsson                     : NEB implementation
   FAccTs GmbH                                   : IRC, NEB, NEB-TS, DLPNO-Multilevel, CI-OPT
                                                   MM, QMMM, 2- and 3-layer-ONIOM, Crystal-QMMM,
                                                   LR-CPCM, SF, NACMEs, symmetry and pop. for TD-DFT,
                                                   nearIR, NL-DFT gradient (VV10), updates on ESD,
                                                   ML-optimized integration grids, MBIS, APM,
                                                   GOAT, DOCKER, SOLVATOR, interface openCOSMO-RS
   S Lehtola, MJT Oliveira, MAL Marques          : LibXC Library
   Liviu Ungur et al                             : ANISO software


 Your calculation uses the libint2 library for the computation of 2-el integrals
 For citations please refer to: http://libint.valeyev.net

 Your ORCA version has been built with support for libXC version: 6.2.2
 For citations please refer to: https://libxc.gitlab.io

 This ORCA versions uses:
   CBLAS   interface :  Fast vector & matrix operations
   LAPACKE interface :  Fast linear algebra routines
   SCALAPACK package :  Parallel linear algebra routines
   Shared memory     :  Shared parallel matrices
   BLAS/LAPACK       :  OpenBLAS 0.3.27  USE64BITINT DYNAMIC_ARCH NO_AFFINITY Zen SINGLE_THREADED
        Core in use  :  Zen
   Copyright (c) 2011-2014, The OpenBLAS Project


Your calculation utilizes the atom-pairwise dispersion correction
with the Becke-Johnson damping scheme (D3BJ)


Warning: RI is on but no J-basis has been assigned. Assigning Def2/J (nothing to worry about!)
================================================================================

----- Orbital basis set information -----
Your calculation utilizes the basis: def2-TZVPPD
   F. Weigend and R. Ahlrichs, Phys. Chem. Chem. Phys. 7, 3297 (2005).
   D. Rappoport and F. Furche, J. Chem. Phys. 133, 134105 (2010)
   D. Rappoport, J. Chem. Phys. 155, 124102 (2021).

----- AuxJ basis set information -----
Your calculation utilizes the auxiliary basis: def2/J
   F. Weigend, Phys. Chem. Chem. Phys. 8, 1057 (2006).

================================================================================
                                        WARNINGS
                       Please study these warnings very carefully!
================================================================================

Using LibXC functional ID 531 : wB97M-V exchange-correlation functional
[ 1]  N. Mardirossian and M. Head-Gordon.,  J. Chem. Phys. 144, 214110 (2016)
Using LibXC functional ID 531 : wB97M-V exchange-correlation functional
[ 1]  N. Mardirossian and M. Head-Gordon.,  J. Chem. Phys. 144, 214110 (2016)

WARNING: B97M-V or wB97M-V functional requested.
  ===> : libXC variant has now been activated.
         Any manually given DFX/HFX/RangeSep scaling parameters are IGNORED!

Your calculation utilizes LibXC
 by S Lehtola, C Steigemann, MJT Oliveira & MAL Marques
Please cite in your paper:
 S Lehtola, C Steigemann, MJT Oliveira & MAL Marques, SoftwareX, 7, (2018), 1.
   


WARNING: your system is open-shell and RHF/RKS was chosen
  ===> : WILL SWITCH to UHF/UKS

INFO   : Checking CIS options ...

WARNING: CIS/ROCIS methods need fully converged wavefunctions
  ===> : Setting SCFConvForced true
         You can overwrite this default with %scf ConvForced false 


================================================================================
                                       INPUT FILE
================================================================================
NAME = orca.inp
|  1> ! Engrad def2-TZVPPD wB97M-D3BJ 
|  2> %pal nprocs 8 end%pal nprocs 64 end 
|  3> %tddft 
|  4>  Iroot 1 Nroots 3 
|  5> sf true 
|  6> end 
|  7> *xyz 0 3 
|  8> O   3.56376232 0.36405629 0.51865651
|  9> O   -0.851353 0.89190391 -2.90003156
| 10> O   0.63738269 -2.79084142 -1.03455943
| 11> O   -3.83295668 -0.76363844 -0.02587952
| 12> N   -0.03141771 -1.46215218 0.67974087
| 13> N   -2.1649926 0.52016702 0.84910562
| 14> N   2.14704044 -1.2515368 -0.16832018
| 15> N   -2.08071837 -0.26021112 -1.3996786
| 16> C   1.47474147 0.2587574 1.54994557
| 17> C   -0.39304215 1.24873298 -0.57225715
| 18> C   0.11240453 -0.19079681 1.38101724
| 19> C   -0.8068834 0.9830173 0.7959471
| 20> C   1.87042383 1.31751023 2.47038507
| 21> C   0.75940766 2.20694089 -0.76032739
| 22> C   2.50164026 -0.24394417 0.66158009
| 23> C   -1.10099547 0.67638443 -1.71480671
| 24> C   0.88436786 -1.92520289 -0.22597703
| 25> C   -2.77522781 -0.18447182 -0.15827521
| 26> H   -0.31615646 -0.26355399 2.39551026
| 27> H   -0.6274596 1.88968946 1.34171184
| 28> H   2.32913384 2.07811293 1.93792267
| 29> H   1.00622295 1.62491903 3.07691492
| 30> H   2.58813021 0.88805634 3.10615982
| 31> H   1.73486365 1.65847098 -0.84370966
| 32> H   0.50205057 2.8700151 -1.5427518
| 33> H   0.9237847 2.77711469 0.07850012
| 34> H   -0.9412308 -1.87772544 0.59132995
| 35> H   -2.57234439 0.37697898 1.76892288
| 36> H   2.86575119 -1.48761877 -0.85663125
| 37> H   -2.63642221 -0.47331772 -2.22068618
| 38> *
| 39> 
| 40>                          ****END OF INPUT****
================================================================================

                     *******************************
                     * Energy+Gradient Calculation *
                     *******************************

---------------------------------
CARTESIAN COORDINATES (ANGSTROEM)
---------------------------------
  O      3.563762    0.364056    0.518657
  O     -0.851353    0.891904   -2.900032
  O      0.637383   -2.790841   -1.034559
  O     -3.832957   -0.763638   -0.025880
  N     -0.031418   -1.462152    0.679741
  N     -2.164993    0.520167    0.849106
  N      2.147040   -1.251537   -0.168320
  N     -2.080718   -0.260211   -1.399679
  C      1.474741    0.258757    1.549946
  C     -0.393042    1.248733   -0.572257
  C      0.112405   -0.190797    1.381017
  C     -0.806883    0.983017    0.795947
  C      1.870424    1.317510    2.470385
  C      0.759408    2.206941   -0.760327
  C      2.501640   -0.243944    0.661580
  C     -1.100995    0.676384   -1.714807
  C      0.884368   -1.925203   -0.225977
  C     -2.775228   -0.184472   -0.158275
  H     -0.316156   -0.263554    2.395510
  H     -0.627460    1.889689    1.341712
  H      2.329134    2.078113    1.937923
  H      1.006223    1.624919    3.076915
  H      2.588130    0.888056    3.106160
  H      1.734864    1.658471   -0.843710
  H      0.502051    2.870015   -1.542752
  H      0.923785    2.777115    0.078500
  H     -0.941231   -1.877725    0.591330
  H     -2.572344    0.376979    1.768923
  H      2.865751   -1.487619   -0.856631
  H     -2.636422   -0.473318   -2.220686

----------------------------
CARTESIAN COORDINATES (A.U.)
----------------------------
  NO LB      ZA    FRAG     MASS         X           Y           Z
   0 O     8.0000    0    15.999    6.734535    0.687967    0.980119
   1 O     8.0000    0    15.999   -1.608824    1.685454   -5.480265
   2 O     8.0000    0    15.999    1.204479   -5.273926   -1.955034
   3 O     8.0000    0    15.999   -7.243238   -1.443068   -0.048905
   4 N     7.0000    0    14.007   -0.059371   -2.763067    1.284524
   5 N     7.0000    0    14.007   -4.091243    0.982973    1.604577
   6 N     7.0000    0    14.007    4.057318   -2.365062   -0.318079
   7 N     7.0000    0    14.007   -3.931988   -0.491728   -2.645009
   8 C     6.0000    0    12.011    2.786857    0.488981    2.928973
   9 C     6.0000    0    12.011   -0.742742    2.359763   -1.081409
  10 C     6.0000    0    12.011    0.212414   -0.360554    2.609744
  11 C     6.0000    0    12.011   -1.524789    1.857633    1.504122
  12 C     6.0000    0    12.011    3.534589    2.489734    4.668351
  13 C     6.0000    0    12.011    1.435073    4.170514   -1.436811
  14 C     6.0000    0    12.011    4.727415   -0.460988    1.250205
  15 C     6.0000    0    12.011   -2.080580    1.278181   -3.240515
  16 C     6.0000    0    12.011    1.671213   -3.638106   -0.427035
  17 C     6.0000    0    12.011   -5.244421   -0.348601   -0.299097
  18 H     1.0000    0     1.008   -0.597449   -0.498045    4.526858
  19 H     1.0000    0     1.008   -1.185727    3.570996    2.535468
  20 H     1.0000    0     1.008    4.401425    3.927064    3.662143
  21 H     1.0000    0     1.008    1.901486    3.070652    5.814527
  22 H     1.0000    0     1.008    4.890857    1.678183    5.869791
  23 H     1.0000    0     1.008    3.278417    3.134056   -1.594380
  24 H     1.0000    0     1.008    0.948738    5.423543   -2.915378
  25 H     1.0000    0     1.008    1.745700    5.247986    0.148344
  26 H     1.0000    0     1.008   -1.778668   -3.548387    1.117452
  27 H     1.0000    0     1.008   -4.861026    0.712387    3.342780
  28 H     1.0000    0     1.008    5.415485   -2.811192   -1.618798
  29 H     1.0000    0     1.008   -4.982116   -0.894441   -4.196489

--------------------------------
INTERNAL COORDINATES (ANGSTROEM)
--------------------------------
 O      0   0   0     0.000000000000     0.00000000     0.00000000
 O      1   0   0     5.608858575396     0.00000000     0.00000000
 O      2   1   0     4.388500129671    52.76362375     0.00000000
 O      2   1   3     4.459992256301    95.65371483    58.13435920
 N      3   2   1     2.269699228998    74.32643516    63.93625814
 N      4   2   1     2.279442832474    63.19995794    36.65916234
 N      1   2   3     2.255920851965    52.22542217   358.80684065
 N      2   1   3     2.256051253826    88.59805967    50.00138484
 C      1   2   3     2.332091999310    64.44765173   284.75990664
 C      6   4   2     2.385558399886   119.13193752   353.33140986
 C      9   1   2     1.444506042387   143.81871575    35.00992566
 C      6   4   2     1.435798317686   149.25998283   328.34031040
 C      9   1   2     1.457645690217    90.18818459   233.89549093
 C     10   6   4     1.510520896423   146.57681217   163.55164617
 C      1   2   3     1.232150550630    55.84695964   320.81609317
 C      2   1   3     1.230255239430    63.64312774    72.11776440
 C      3   2   1     1.210015386849    75.69732523    32.57036866
 C      4   2   1     1.213158256323    33.85895691    27.21513824
 H     11   9   1     1.103700238751   106.21422785   159.77006415
 H     12   6   4     1.073362220852   114.30492446   160.63306843
 H     13   9   1     1.035590434455   109.21053947    45.79561776
 H     13   9   1     1.099646211402   109.75569912   173.01760851
 H     13   9   1     1.050591559202   105.70371308   289.84238988
 H     14  10   6     1.122179234148   111.24774651   117.64452654
 H     14  10   6     1.057396821020   107.71185734   247.86656216
 H     14  10   6     1.027496746962   111.86519736     5.37579717
 H      5   3   2     1.004130212641    87.60479256    89.47689971
 H      6   4   2     1.016121098791    88.55403072   179.67526065
 H      7   1   2     1.022766819861    85.92533184    98.83924376
 H      8   2   1     1.014038770054    82.38613497   204.47523211

---------------------------
INTERNAL COORDINATES (A.U.)
---------------------------
 O      0   0   0     0.000000000000     0.00000000     0.00000000
 O      1   0   0    10.599206631395     0.00000000     0.00000000
 O      2   1   0     8.293063383756    52.76362375     0.00000000
 O      2   1   3     8.428163923819    95.65371483    58.13435920
 N      3   2   1     4.289109949178    74.32643516    63.93625814
 N      4   2   1     4.307522691306    63.19995794    36.65916234
 N      1   2   3     4.263072590016    52.22542217   358.80684065
 N      2   1   3     4.263319013820    88.59805967    50.00138484
 C      1   2   3     4.407015197805    64.44765173   284.75990664
 C      6   4   2     4.508052052260   119.13193752   353.33140986
 C      9   1   2     2.729720818907   143.81871575    35.00992566
 C      6   4   2     2.713265603971   149.25998283   328.34031040
 C      9   1   2     2.754551154801    90.18818459   233.89549093
 C     10   6   4     2.854470813804   146.57681217   163.55164617
 C      1   2   3     2.328427096452    55.84695964   320.81609317
 C      2   1   3     2.324845477344    63.64312774    72.11776440
 C      3   2   1     2.286597698975    75.69732523    32.57036866
 C      4   2   1     2.292536861556    33.85895691    27.21513824
 H     11   9   1     2.085691185184   106.21422785   159.77006415
 H     12   6   4     2.028360639908   114.30492446   160.63306843
 H     13   9   1     1.956982308029   109.21053947    45.79561776
 H     13   9   1     2.078030183754   109.75569912   173.01760851
 H     13   9   1     1.985330325501   105.70371308   289.84238988
 H     14  10   6     2.120611425713   111.24774651   117.64452654
 H     14  10   6     1.998190406608   107.71185734   247.86656216
 H     14  10   6     1.941687455254   111.86519736     5.37579717
 H      5   3   2     1.897531104687    87.60479256    89.47689971
 H      6   4   2     1.920190595615    88.55403072   179.67526065
 H      7   1   2     1.932749188399    85.92533184    98.83924376
 H      8   2   1     1.916255564580    82.38613497   204.47523211

---------------------
BASIS SET INFORMATION
---------------------
There are 4 groups of distinct atoms

 Group   1 Type O   : 12s7p3d1f contracted to 6s4p3d1f pattern {621111/4111/111/1}
 Group   2 Type N   : 12s6p3d1f contracted to 6s3p3d1f pattern {621111/411/111/1}
 Group   3 Type C   : 12s6p3d1f contracted to 6s3p3d1f pattern {621111/411/111/1}
 Group   4 Type H   : 5s3p1d contracted to 3s3p1d pattern {311/111/1}

Atom   0O    basis set group =>   1
Atom   1O    basis set group =>   1
Atom   2O    basis set group =>   1
Atom   3O    basis set group =>   1
Atom   4N    basis set group =>   2
Atom   5N    basis set group =>   2
Atom   6N    basis set group =>   2
Atom   7N    basis set group =>   2
Atom   8C    basis set group =>   3
Atom   9C    basis set group =>   3
Atom  10C    basis set group =>   3
Atom  11C    basis set group =>   3
Atom  12C    basis set group =>   3
Atom  13C    basis set group =>   3
Atom  14C    basis set group =>   3
Atom  15C    basis set group =>   3
Atom  16C    basis set group =>   3
Atom  17C    basis set group =>   3
Atom  18H    basis set group =>   4
Atom  19H    basis set group =>   4
Atom  20H    basis set group =>   4
Atom  21H    basis set group =>   4
Atom  22H    basis set group =>   4
Atom  23H    basis set group =>   4
Atom  24H    basis set group =>   4
Atom  25H    basis set group =>   4
Atom  26H    basis set group =>   4
Atom  27H    basis set group =>   4
Atom  28H    basis set group =>   4
Atom  29H    basis set group =>   4
---------------------------------
AUXILIARY/J BASIS SET INFORMATION
---------------------------------
There are 4 groups of distinct atoms

 Group   1 Type O   : 12s5p4d2f1g contracted to 6s4p3d1f1g pattern {711111/2111/211/2/1}
 Group   2 Type N   : 12s5p4d2f1g contracted to 6s4p3d1f1g pattern {711111/2111/211/2/1}
 Group   3 Type C   : 12s5p4d2f1g contracted to 6s4p3d1f1g pattern {711111/2111/211/2/1}
 Group   4 Type H   : 5s2p1d contracted to 3s1p1d pattern {311/2/1}

Atom   0O    basis set group =>   1
Atom   1O    basis set group =>   1
Atom   2O    basis set group =>   1
Atom   3O    basis set group =>   1
Atom   4N    basis set group =>   2
Atom   5N    basis set group =>   2
Atom   6N    basis set group =>   2
Atom   7N    basis set group =>   2
Atom   8C    basis set group =>   3
Atom   9C    basis set group =>   3
Atom  10C    basis set group =>   3
Atom  11C    basis set group =>   3
Atom  12C    basis set group =>   3
Atom  13C    basis set group =>   3
Atom  14C    basis set group =>   3
Atom  15C    basis set group =>   3
Atom  16C    basis set group =>   3
Atom  17C    basis set group =>   3
Atom  18H    basis set group =>   4
Atom  19H    basis set group =>   4
Atom  20H    basis set group =>   4
Atom  21H    basis set group =>   4
Atom  22H    basis set group =>   4
Atom  23H    basis set group =>   4
Atom  24H    basis set group =>   4
Atom  25H    basis set group =>   4
Atom  26H    basis set group =>   4
Atom  27H    basis set group =>   4
Atom  28H    basis set group =>   4
Atom  29H    basis set group =>   4
[1741101463.500693] [ohm:803776:0]        ib_iface.c:1059 UCX  ERROR ibv_create_cq(cqe=256) failed: Connection timed out
[1741101463.501670] [ohm:803783:0]        ib_iface.c:1059 UCX  ERROR ibv_create_cq(cqe=256) failed: Connection timed out
[1741101463.508307] [ohm:803778:0]        ib_iface.c:1059 UCX  ERROR ibv_create_cq(cqe=256) failed: Connection timed out
[1741101463.519182] [ohm:803774:0]        ib_iface.c:1059 UCX  ERROR ibv_create_cq(cqe=256) failed: Connection timed out
[1741101463.581425] [ohm:803777:0]        ib_iface.c:1059 UCX  ERROR ibv_create_cq(cqe=256) failed: Connection timed out
[1741101463.589804] [ohm:803780:0]        ib_iface.c:1059 UCX  ERROR ibv_create_cq(cqe=256) failed: Connection timed out
[1741101463.600261] [ohm:803779:0]        ib_iface.c:1059 UCX  ERROR ibv_create_cq(cqe=256) failed: Connection timed out
[1741101463.602140] [ohm:803775:0]        ib_iface.c:1059 UCX  ERROR ibv_create_cq(cqe=256) failed: Connection timed out
[1741101463.618384] [ohm:803905:0]        ib_iface.c:1059 UCX  ERROR ibv_create_cq(cqe=256) failed: Connection timed out
[1741101463.620256] [ohm:803785:0]        ib_iface.c:1059 UCX  ERROR ibv_create_cq(cqe=256) failed: Connection timed out
[1741101463.620753] [ohm:803782:0]        ib_iface.c:1059 UCX  ERROR ibv_create_cq(cqe=256) failed: Connection timed out
[1741101463.622145] [ohm:803861:0]        ib_iface.c:1059 UCX  ERROR ibv_create_cq(cqe=256) failed: Connection timed out
[1741101463.624495] [ohm:803784:0]        ib_iface.c:1059 UCX  ERROR ibv_create_cq(cqe=256) failed: Connection timed out
[1741101463.657451] [ohm:803835:0]        ib_iface.c:1059 UCX  ERROR ibv_create_cq(cqe=256) failed: Connection timed out
[1741101463.676719] [ohm:803840:0]        ib_iface.c:1059 UCX  ERROR ibv_create_cq(cqe=256) failed: Connection timed out
[1741101463.696072] [ohm:803815:0]        ib_iface.c:1059 UCX  ERROR ibv_create_cq(cqe=256) failed: Connection timed out
[1741101463.703941] [ohm:803792:0]        ib_iface.c:1059 UCX  ERROR ibv_create_cq(cqe=256) failed: Connection timed out
[1741101463.717818] [ohm:803889:0]        ib_iface.c:1059 UCX  ERROR ibv_create_cq(cqe=256) failed: Connection timed out
[1741101463.719394] [ohm:803839:0]        ib_iface.c:1059 UCX  ERROR ibv_create_cq(cqe=256) failed: Connection timed out
[1741101463.723572] [ohm:803810:0]        ib_iface.c:1059 UCX  ERROR ibv_create_cq(cqe=256) failed: Connection timed out
[1741101463.727669] [ohm:803837:0]        ib_iface.c:1059 UCX  ERROR ibv_create_cq(cqe=256) failed: Connection timed out
[1741101463.731076] [ohm:803853:0]        ib_iface.c:1059 UCX  ERROR ibv_create_cq(cqe=256) failed: Connection timed out
[1741101463.735552] [ohm:803819:0]        ib_iface.c:1059 UCX  ERROR ibv_create_cq(cqe=256) failed: Connection timed out
[1741101463.762035] [ohm:803878:0]        ib_iface.c:1059 UCX  ERROR ibv_create_cq(cqe=256) failed: Connection timed out
[1741101463.762122] [ohm:803877:0]        ib_iface.c:1059 UCX  ERROR ibv_create_cq(cqe=256) failed: Connection timed out
[1741101463.779291] [ohm:803824:0]        ib_iface.c:1059 UCX  ERROR ibv_create_cq(cqe=256) failed: Connection timed out
[1741101463.782363] [ohm:803850:0]        ib_iface.c:1059 UCX  ERROR ibv_create_cq(cqe=256) failed: Connection timed out
[1741101463.803720] [ohm:803814:0]        ib_iface.c:1059 UCX  ERROR ibv_create_cq(cqe=256) failed: Connection timed out
[1741101463.807513] [ohm:803909:0]        ib_iface.c:1059 UCX  ERROR ibv_create_cq(cqe=256) failed: Connection timed out
[1741101463.812025] [ohm:803849:0]        ib_iface.c:1059 UCX  ERROR ibv_create_cq(cqe=256) failed: Connection timed out
[1741101463.815727] [ohm:803926:0]        ib_iface.c:1059 UCX  ERROR ibv_create_cq(cqe=256) failed: Connection timed out
[1741101463.818287] [ohm:803904:0]        ib_iface.c:1059 UCX  ERROR ibv_create_cq(cqe=256) failed: Connection timed out
[1741101463.820525] [ohm:803892:0]        ib_iface.c:1059 UCX  ERROR ibv_create_cq(cqe=256) failed: Connection timed out
[1741101463.823629] [ohm:803843:0]        ib_iface.c:1059 UCX  ERROR ibv_create_cq(cqe=256) failed: Connection timed out
[1741101463.842773] [ohm:803874:0]        ib_iface.c:1059 UCX  ERROR ibv_create_cq(cqe=256) failed: Connection timed out
[1741101463.844974] [ohm:803882:0]        ib_iface.c:1059 UCX  ERROR ibv_create_cq(cqe=256) failed: Connection timed out
[1741101463.845839] [ohm:803883:0]        ib_iface.c:1059 UCX  ERROR ibv_create_cq(cqe=256) failed: Connection timed out
[1741101463.846050] [ohm:803821:0]        ib_iface.c:1059 UCX  ERROR ibv_create_cq(cqe=256) failed: Connection timed out
[1741101463.847438] [ohm:803811:0]        ib_iface.c:1059 UCX  ERROR ibv_create_cq(cqe=256) failed: Connection timed out
[1741101463.857282] [ohm:803865:0]        ib_iface.c:1059 UCX  ERROR ibv_create_cq(cqe=256) failed: Connection timed out
[1741101463.869242] [ohm:803788:0]        ib_iface.c:1059 UCX  ERROR ibv_create_cq(cqe=256) failed: Connection timed out
[1741101463.869533] [ohm:803786:0]        ib_iface.c:1059 UCX  ERROR ibv_create_cq(cqe=256) failed: Connection timed out
[1741101463.870078] [ohm:803856:0]        ib_iface.c:1059 UCX  ERROR ibv_create_cq(cqe=256) failed: Connection timed out
[1741101463.874684] [ohm:803895:0]        ib_iface.c:1059 UCX  ERROR ibv_create_cq(cqe=256) failed: Connection timed out
[1741101463.875919] [ohm:803859:0]        ib_iface.c:1059 UCX  ERROR ibv_create_cq(cqe=256) failed: Connection timed out
[1741101463.877992] [ohm:803869:0]        ib_iface.c:1059 UCX  ERROR ibv_create_cq(cqe=256) failed: Connection timed out
[1741101463.879882] [ohm:803796:0]        ib_iface.c:1059 UCX  ERROR ibv_create_cq(cqe=256) failed: Connection timed out
[1741101463.890287] [ohm:803791:0]        ib_iface.c:1059 UCX  ERROR ibv_create_cq(cqe=256) failed: Connection timed out
[1741101463.892881] [ohm:803841:0]        ib_iface.c:1059 UCX  ERROR ibv_create_cq(cqe=256) failed: Connection timed out
[1741101463.894921] [ohm:803914:0]        ib_iface.c:1059 UCX  ERROR ibv_create_cq(cqe=256) failed: Connection timed out
[1741101463.899432] [ohm:803847:0]        ib_iface.c:1059 UCX  ERROR ibv_create_cq(cqe=256) failed: Connection timed out
[1741101463.901048] [ohm:803845:0]        ib_iface.c:1059 UCX  ERROR ibv_create_cq(cqe=256) failed: Connection timed out
[1741101463.904854] [ohm:803854:0]        ib_iface.c:1059 UCX  ERROR ibv_create_cq(cqe=256) failed: Connection timed out
[1741101463.905946] [ohm:803781:0]        ib_iface.c:1059 UCX  ERROR ibv_create_cq(cqe=256) failed: Connection timed out
[1741101463.906822] [ohm:803828:0]        ib_iface.c:1059 UCX  ERROR ibv_create_cq(cqe=256) failed: Connection timed out
[1741101463.908195] [ohm:803787:0]        ib_iface.c:1059 UCX  ERROR ibv_create_cq(cqe=256) failed: Connection timed out
[1741101463.908319] [ohm:803844:0]        ib_iface.c:1059 UCX  ERROR ibv_create_cq(cqe=256) failed: Connection timed out
[1741101463.909580] [ohm:803833:0]        ib_iface.c:1059 UCX  ERROR ibv_create_cq(cqe=256) failed: Connection timed out
[1741101463.909581] [ohm:803842:0]        ib_iface.c:1059 UCX  ERROR ibv_create_cq(cqe=256) failed: Connection timed out
[1741101463.910296] [ohm:803901:0]        ib_iface.c:1059 UCX  ERROR ibv_create_cq(cqe=256) failed: Connection timed out
[1741101463.911202] [ohm:803921:0]        ib_iface.c:1059 UCX  ERROR ibv_create_cq(cqe=256) failed: Connection timed out
[1741101463.911267] [ohm:803846:0]        ib_iface.c:1059 UCX  ERROR ibv_create_cq(cqe=256) failed: Connection timed out
[1741101463.912005] [ohm:803871:0]        ib_iface.c:1059 UCX  ERROR ibv_create_cq(cqe=256) failed: Connection timed out
[1741101463.912004] [ohm:803900:0]        ib_iface.c:1059 UCX  ERROR ibv_create_cq(cqe=256) failed: Connection timed out


           ************************************************************
           *        Program running with 64 parallel MPI-processes    *
           *              working on a common directory               *
           ************************************************************
------------------------------------------------------------------------------
                             ORCA STARTUP CALCULATIONS
                           -- RI-GTO INTEGRALS CHOSEN --
------------------------------------------------------------------------------
------------------------------------------------------------------------------
                   ___                                                        
                  /   \      - P O W E R E D   B Y -                         
                 /     \                                                     
                 |  |  |   _    _      __       _____    __    __             
                 |  |  |  | |  | |    /  \     |  _  \  |  |  /  |          
                  \  \/   | |  | |   /    \    | | | |  |  | /  /          
                 / \  \   | |__| |  /  /\  \   | |_| |  |  |/  /          
                |  |  |   |  __  | /  /__\  \  |    /   |      \           
                |  |  |   | |  | | |   __   |  |    \   |  |\   \          
                \     /   | |  | | |  |  |  |  | |\  \  |  | \   \       
                 \___/    |_|  |_| |__|  |__|  |_| \__\ |__|  \__/        
                                                                              
                      - O R C A' S   B I G   F R I E N D -                    
                                      &                                       
                       - I N T E G R A L  F E E D E R -                       
                                                                              
 v1 FN, 2020, v2 2021, v3 2022-2024                                           
------------------------------------------------------------------------------


----------------------
SHARK INTEGRAL PACKAGE
----------------------

Number of atoms                             ...     30
Number of basis functions                   ...    882
Number of shells                            ...    322
Maximum angular momentum                    ...      3
Integral batch strategy                     ... SHARK/LIBINT Hybrid
RI-J (if used) integral strategy            ... SPLIT-RIJ (Revised 2003 algorithm where possible)
Printlevel                                  ...      1
Contraction scheme used                     ... SEGMENTED contraction
Prescreening option                         ... SCHWARTZ
   Thresh                                   ... 2.500e-11
   Tcut                                     ... 2.500e-12
   Tpresel                                  ... 2.500e-12 
Coulomb Range Separation                    ... NOT USED
Exchange Range Separation                   ... Long Range
   Mu parameter                             ... 3.000e-01
   Scaling (regular/separated)              ... 1.500e-01 8.500e-01
Multipole approximations                    ... NOT USED
Finite Nucleus Model                        ... NOT USED
CABS basis                                  ... NOT available
Auxiliary Coulomb fitting basis             ... AVAILABLE
   # of basis functions in Aux-J            ...   1014
   # of shells in Aux-J                     ...    330
   Maximum angular momentum in Aux-J        ...      4
Auxiliary J/K fitting basis                 ... NOT available
Auxiliary Correlation fitting basis         ... NOT available
Auxiliary 'external' fitting basis          ... NOT available

Checking pre-screening integrals            ... done (  0.0 sec) Dimension = 322
Check shell pair data                       ... done (  0.0 sec)
Shell pair information
Shell pair cut-off parameter TPreSel        ...   2.5e-12
Total number of shell pairs                 ...     52003
Shell pairs after pre-screening             ...     45093
Total number of primitive shell pairs       ...    129718
Primitive shell pairs kept                  ...     84341
          la=0 lb=0:   8737 shell pairs
          la=1 lb=0:  11945 shell pairs
          la=1 lb=1:   4129 shell pairs
          la=2 lb=0:   8098 shell pairs
          la=2 lb=1:   5610 shell pairs
          la=2 lb=2:   1932 shell pairs
          la=3 lb=0:   2054 shell pairs
          la=3 lb=1:   1456 shell pairs
          la=3 lb=2:    994 shell pairs
          la=3 lb=3:    138 shell pairs

Calculating one electron integrals          ... done (  0.2 sec)
Calculating RI/J V-Matrix + Cholesky decomp.... done (  0.0 sec)
Calculating Nuclear repulsion               ... done (  0.0 sec) ENN=   1439.577463087842 Eh

Diagonalization of the overlap matrix:
Smallest eigenvalue                        ... 4.446e-07
Time for diagonalization                   ...    0.127 sec
Threshold for overlap eigenvalues          ... 1.000e-07
Number of eigenvalues below threshold      ... 0

IMPORTANT:
Smallest eigenvalue of S below the DiffSThresh (1.000e-06) while
Thresh>1e-12 and/or TCut>1e-13! In order to avoid SCF convergence issues,
Thresh will be set to at least 1e-12 and TCut to at least 1e-13.
This can be turned off by adding %SCF DiffSThresh -1 END to the input.

Time for construction of square roots      ...    0.128 sec
Total time needed                          ...    0.269 sec

-------------------
DFT GRID GENERATION
-------------------

General Integration Accuracy     IntAcc      ... 4.388
Radial Grid Type                 RadialGrid  ... OptM3 with GC (2021)
Angular Grid (max. ang.)         AngularGrid ... 4 (Lebedev-302)
Angular grid pruning method      GridPruning ... 4 (adaptive)
Weight generation scheme         WeightScheme... mBecke (2022)
Basis function cutoff            BFCut       ... 1.0000e-11
Integration weight cutoff        WCut        ... 1.0000e-14
Partially contracted basis set               ... off
Rotationally invariant grid construction     ... off
Angular grids for H and He will be reduced by one unit
Diffuse basis detected: some atoms will have their outermost
                        angular grid increased by 1.

Total number of grid points                  ...   151757
Total number of batches                      ...     2386
Average number of points per batch           ...       63
Average number of grid points per atom       ...     5059

--------------------
COSX GRID GENERATION
--------------------

GRIDX 1
-------
General Integration Accuracy     IntAcc      ... 3.816
Radial Grid Type                 RadialGrid  ... OptM3 with GC (2021)
Angular Grid (max. ang.)         AngularGrid ... 1 (Lebedev-50)
Angular grid pruning method      GridPruning ... 4 (adaptive)
Weight generation scheme         WeightScheme... mBecke (2022)
Basis function cutoff            BFCut       ... 1.0000e-11
Integration weight cutoff        WCut        ... 1.0000e-14
Partially contracted basis set               ... on
Rotationally invariant grid construction     ... off
Angular grids for H and He will be reduced by one unit
Diffuse basis detected: some atoms will have their outermost
                        angular grid increased by 1.

Total number of grid points                  ...    19047
Total number of batches                      ...      165
Average number of points per batch           ...      115
Average number of grid points per atom       ...      635
UseSFitting                                  ... on

GRIDX 2
-------
General Integration Accuracy     IntAcc      ... 4.020
Radial Grid Type                 RadialGrid  ... OptM3 with GC (2021)
Angular Grid (max. ang.)         AngularGrid ... 2 (Lebedev-110)
Angular grid pruning method      GridPruning ... 4 (adaptive)
Weight generation scheme         WeightScheme... mBecke (2022)
Basis function cutoff            BFCut       ... 1.0000e-11
Integration weight cutoff        WCut        ... 1.0000e-14
Partially contracted basis set               ... on
Rotationally invariant grid construction     ... off
Angular grids for H and He will be reduced by one unit
Diffuse basis detected: some atoms will have their outermost
                        angular grid increased by 1.

Total number of grid points                  ...    45805
Total number of batches                      ...      371
Average number of points per batch           ...      123
Average number of grid points per atom       ...     1527
UseSFitting                                  ... on

GRIDX 3
-------
General Integration Accuracy     IntAcc      ... 4.338
Radial Grid Type                 RadialGrid  ... OptM3 with GC (2021)
Angular Grid (max. ang.)         AngularGrid ... 3 (Lebedev-194)
Angular grid pruning method      GridPruning ... 4 (adaptive)
Weight generation scheme         WeightScheme... mBecke (2022)
Basis function cutoff            BFCut       ... 1.0000e-11
Integration weight cutoff        WCut        ... 1.0000e-14
Partially contracted basis set               ... on
Rotationally invariant grid construction     ... off
Angular grids for H and He will be reduced by one unit
Diffuse basis detected: some atoms will have their outermost
                        angular grid increased by 1.

Total number of grid points                  ...   100790
Total number of batches                      ...      801
Average number of points per batch           ...      125
Average number of grid points per atom       ...     3360
UseSFitting                                  ... on
Initializing property integral containers    ... done (  0.0 sec)

SHARK setup successfully completed in   4.1 seconds

Maximum memory used throughout the entire STARTUP-calculation: 80.1 MB
[1741101469.935522] [ohm:804150:0]        ib_iface.c:1059 UCX  ERROR ibv_create_cq(cqe=256) failed: Connection timed out
[1741101469.940053] [ohm:804142:0]        ib_iface.c:1059 UCX  ERROR ibv_create_cq(cqe=256) failed: Connection timed out
[1741101469.941940] [ohm:804146:0]        ib_iface.c:1059 UCX  ERROR ibv_create_cq(cqe=256) failed: Connection timed out
[1741101469.953091] [ohm:804130:0]        ib_iface.c:1059 UCX  ERROR ibv_create_cq(cqe=256) failed: Connection timed out
[1741101469.958298] [ohm:804133:0]        ib_iface.c:1059 UCX  ERROR ibv_create_cq(cqe=256) failed: Connection timed out
[1741101469.959664] [ohm:804140:0]        ib_iface.c:1059 UCX  ERROR ibv_create_cq(cqe=256) failed: Connection timed out
[1741101469.997820] [ohm:804151:0]        ib_iface.c:1059 UCX  ERROR ibv_create_cq(cqe=256) failed: Connection timed out
[1741101470.005292] [ohm:804149:0]        ib_iface.c:1059 UCX  ERROR ibv_create_cq(cqe=256) failed: Connection timed out
[1741101470.007614] [ohm:804134:0]        ib_iface.c:1059 UCX  ERROR ibv_create_cq(cqe=256) failed: Connection timed out
[1741101470.008709] [ohm:804145:0]        ib_iface.c:1059 UCX  ERROR ibv_create_cq(cqe=256) failed: Connection timed out
[1741101470.031135] [ohm:804155:0]        ib_iface.c:1059 UCX  ERROR ibv_create_cq(cqe=256) failed: Connection timed out
[1741101470.039077] [ohm:804147:0]        ib_iface.c:1059 UCX  ERROR ibv_create_cq(cqe=256) failed: Connection timed out
[1741101470.051463] [ohm:804137:0]        ib_iface.c:1059 UCX  ERROR ibv_create_cq(cqe=256) failed: Connection timed out
[1741101470.054037] [ohm:804139:0]        ib_iface.c:1059 UCX  ERROR ibv_create_cq(cqe=256) failed: Connection timed out
[1741101470.056486] [ohm:804169:0]        ib_iface.c:1059 UCX  ERROR ibv_create_cq(cqe=256) failed: Connection timed out
[1741101470.060560] [ohm:804138:0]        ib_iface.c:1059 UCX  ERROR ibv_create_cq(cqe=256) failed: Connection timed out
[1741101470.108407] [ohm:804165:0]        ib_iface.c:1059 UCX  ERROR ibv_create_cq(cqe=256) failed: Connection timed out
[1741101470.109298] [ohm:804143:0]        ib_iface.c:1059 UCX  ERROR ibv_create_cq(cqe=256) failed: Connection timed out
[1741101470.113418] [ohm:804153:0]        ib_iface.c:1059 UCX  ERROR ibv_create_cq(cqe=256) failed: Connection timed out
[1741101470.126021] [ohm:804181:0]        ib_iface.c:1059 UCX  ERROR ibv_create_cq(cqe=256) failed: Connection timed out
[1741101470.126430] [ohm:804131:0]        ib_iface.c:1059 UCX  ERROR ibv_create_cq(cqe=256) failed: Connection timed out
[1741101470.126437] [ohm:804152:0]        ib_iface.c:1059 UCX  ERROR ibv_create_cq(cqe=256) failed: Connection timed out
[1741101470.179236] [ohm:804268:0]        ib_iface.c:1059 UCX  ERROR ibv_create_cq(cqe=256) failed: Connection timed out
[1741101470.183432] [ohm:804244:0]        ib_iface.c:1059 UCX  ERROR ibv_create_cq(cqe=256) failed: Connection timed out
[1741101470.188669] [ohm:804203:0]        ib_iface.c:1059 UCX  ERROR ibv_create_cq(cqe=256) failed: Connection timed out
[1741101470.192725] [ohm:804228:0]        ib_iface.c:1059 UCX  ERROR ibv_create_cq(cqe=256) failed: Connection timed out
[1741101470.200185] [ohm:804254:0]        ib_iface.c:1059 UCX  ERROR ibv_create_cq(cqe=256) failed: Connection timed out
[1741101470.205959] [ohm:804196:0]        ib_iface.c:1059 UCX  ERROR ibv_create_cq(cqe=256) failed: Connection timed out
[1741101470.208150] [ohm:804148:0]        ib_iface.c:1059 UCX  ERROR ibv_create_cq(cqe=256) failed: Connection timed out
[1741101470.212586] [ohm:804184:0]        ib_iface.c:1059 UCX  ERROR ibv_create_cq(cqe=256) failed: Connection timed out
[1741101470.214225] [ohm:804163:0]        ib_iface.c:1059 UCX  ERROR ibv_create_cq(cqe=256) failed: Connection timed out
[1741101470.222358] [ohm:804262:0]        ib_iface.c:1059 UCX  ERROR ibv_create_cq(cqe=256) failed: Connection timed out
[1741101470.231091] [ohm:804218:0]        ib_iface.c:1059 UCX  ERROR ibv_create_cq(cqe=256) failed: Connection timed out
[1741101470.231878] [ohm:804236:0]        ib_iface.c:1059 UCX  ERROR ibv_create_cq(cqe=256) failed: Connection timed out
[1741101470.238981] [ohm:804156:0]        ib_iface.c:1059 UCX  ERROR ibv_create_cq(cqe=256) failed: Connection timed out
[1741101470.245624] [ohm:804141:0]        ib_iface.c:1059 UCX  ERROR ibv_create_cq(cqe=256) failed: Connection timed out
[1741101470.245968] [ohm:804190:0]        ib_iface.c:1059 UCX  ERROR ibv_create_cq(cqe=256) failed: Connection timed out
[1741101470.246571] [ohm:804209:0]        ib_iface.c:1059 UCX  ERROR ibv_create_cq(cqe=256) failed: Connection timed out
[1741101470.259118] [ohm:804157:0]        ib_iface.c:1059 UCX  ERROR ibv_create_cq(cqe=256) failed: Connection timed out
[1741101470.260128] [ohm:804154:0]        ib_iface.c:1059 UCX  ERROR ibv_create_cq(cqe=256) failed: Connection timed out
[1741101470.266785] [ohm:804220:0]        ib_iface.c:1059 UCX  ERROR ibv_create_cq(cqe=256) failed: Connection timed out
[1741101470.269430] [ohm:804187:0]        ib_iface.c:1059 UCX  ERROR ibv_create_cq(cqe=256) failed: Connection timed out
[1741101470.275543] [ohm:804271:0]        ib_iface.c:1059 UCX  ERROR ibv_create_cq(cqe=256) failed: Connection timed out
[1741101470.276896] [ohm:804215:0]        ib_iface.c:1059 UCX  ERROR ibv_create_cq(cqe=256) failed: Connection timed out
[1741101470.278971] [ohm:804278:0]        ib_iface.c:1059 UCX  ERROR ibv_create_cq(cqe=256) failed: Connection timed out
[1741101470.282469] [ohm:804249:0]        ib_iface.c:1059 UCX  ERROR ibv_create_cq(cqe=256) failed: Connection timed out
[1741101470.282858] [ohm:804225:0]        ib_iface.c:1059 UCX  ERROR ibv_create_cq(cqe=256) failed: Connection timed out
[1741101470.284381] [ohm:804211:0]        ib_iface.c:1059 UCX  ERROR ibv_create_cq(cqe=256) failed: Connection timed out
[1741101470.285549] [ohm:804258:0]        ib_iface.c:1059 UCX  ERROR ibv_create_cq(cqe=256) failed: Connection timed out
[1741101470.286330] [ohm:804229:0]        ib_iface.c:1059 UCX  ERROR ibv_create_cq(cqe=256) failed: Connection timed out
[1741101470.288214] [ohm:804174:0]        ib_iface.c:1059 UCX  ERROR ibv_create_cq(cqe=256) failed: Connection timed out
[1741101470.288698] [ohm:804252:0]        ib_iface.c:1059 UCX  ERROR ibv_create_cq(cqe=256) failed: Connection timed out
[1741101470.295650] [ohm:804135:0]        ib_iface.c:1059 UCX  ERROR ibv_create_cq(cqe=256) failed: Connection timed out
[1741101470.298013] [ohm:804136:0]        ib_iface.c:1059 UCX  ERROR ibv_create_cq(cqe=256) failed: Connection timed out
[1741101470.298136] [ohm:804176:0]        ib_iface.c:1059 UCX  ERROR ibv_create_cq(cqe=256) failed: Connection timed out
[1741101470.298637] [ohm:804264:0]        ib_iface.c:1059 UCX  ERROR ibv_create_cq(cqe=256) failed: Connection timed out
[1741101470.298633] [ohm:804248:0]        ib_iface.c:1059 UCX  ERROR ibv_create_cq(cqe=256) failed: Connection timed out
[1741101470.300384] [ohm:804178:0]        ib_iface.c:1059 UCX  ERROR ibv_create_cq(cqe=256) failed: Connection timed out
[1741101470.301613] [ohm:804132:0]        ib_iface.c:1059 UCX  ERROR ibv_create_cq(cqe=256) failed: Connection timed out
[1741101470.302030] [ohm:804238:0]        ib_iface.c:1059 UCX  ERROR ibv_create_cq(cqe=256) failed: Connection timed out
[1741101470.302230] [ohm:804144:0]        ib_iface.c:1059 UCX  ERROR ibv_create_cq(cqe=256) failed: Connection timed out
[1741101470.304780] [ohm:804193:0]        ib_iface.c:1059 UCX  ERROR ibv_create_cq(cqe=256) failed: Connection timed out
[1741101470.305458] [ohm:804201:0]        ib_iface.c:1059 UCX  ERROR ibv_create_cq(cqe=256) failed: Connection timed out
[1741101470.305865] [ohm:804241:0]        ib_iface.c:1059 UCX  ERROR ibv_create_cq(cqe=256) failed: Connection timed out


           ************************************************************
           *        Program running with 64 parallel MPI-processes    *
           *              working on a common directory               *
           ************************************************************
-------------------------------------------------------------------------------
                                 ORCA GUESS
                   Start orbitals & Density for SCF / CASSCF
-------------------------------------------------------------------------------

------------
SCF SETTINGS
------------
Hamiltonian:
 Density Functional     Method          .... DFT(GTOs)
  Functional kind                       .... Exchange-Correlation
  Functional name                       .... wB97M-V exchange-correlation functional
  Functional family                     .... Hybrid MGGA
  Functional refs                              
    [ 0] N. Mardirossian and M. Head-Gordon.,  J. Chem. Phys. 144, 214110 (2016), doi: 10.1063/1.4952647
  Fraction of HF Exchange (short range) .... 0.1500
  Fraction of HF Exchange (long range)  .... 1.0000
  Range separation parameter mu         .... 0.3000
  Functional external parameters        .... 17
    Parameter  0 _cx00      =  8.500000e-01 : u^00 coefficient for exchange
    Parameter  1 _cx01      =  1.007000e+00 : u^01 coefficient for exchange
    Parameter  2 _cx10      =  2.590000e-01 : u^10 coefficient for exchange
    Parameter  3 _css00     =  4.430000e-01 : u^00 coefficient for same-spin correlation
    Parameter  4 _css04     = -1.437000e+00 : u^04 coefficient for same-spin correlation
    Parameter  5 _css10     = -4.535000e+00 : u^10 coefficient for same-spin correlation
    Parameter  6 _css20     = -3.390000e+00 : u^20 coefficient for same-spin correlation
    Parameter  7 _css43     =  4.278000e+00 : u^43 coefficient for same-spin correlation
    Parameter  8 _cos00     =  1.000000e+00 : u^00 coefficient for opposite-spin correlation
    Parameter  9 _cos10     =  1.358000e+00 : u^10 coefficient for opposite-spin correlation
    Parameter 10 _cos20     =  2.924000e+00 : u^20 coefficient for opposite-spin correlation
    Parameter 11 _cos21     = -8.812000e+00 : u^21 coefficient for opposite-spin correlation
    Parameter 12 _cos60     = -1.390000e+00 : u^60 coefficient for opposite-spin correlation
    Parameter 13 _cos61     =  9.142000e+00 : u^61 coefficient for opposite-spin correlation
    Parameter 14 _alpha     =  1.000000e+00 : fraction of HF exchange
    Parameter 15 _beta      = -8.500000e-01 : fraction of short-range exchange
    Parameter 16 _omega     =  3.000000e-01 : range-separation constant
 Long-range corrected/Screened/Range-Separated Hybrid DFT is turned on
   Amount of maximum screened exact exchange              ....  0.850000
   Range separation parameter mu (erf(mu*r12)/r12)        ....  0.300000
 RI-approximation to the Coulomb term is turned on
   Number of AuxJ basis functions       .... 1014
   RIJ-COSX (HFX calculated with COS-X)).... on


General Settings:
 Integral files         IntName         .... orca
 Hartree-Fock type      HFTyp           .... UHF
 Total Charge           Charge          ....    0
 Multiplicity           Mult            ....    3
 Number of Electrons    NEL             ....  132
 Basis Dimension        Dim             ....  882
 Nuclear Repulsion      ENuc            ....   1439.5774630878 Eh

Convergence Acceleration:
 AO-DIIS                CNVDIIS         .... on
   Start iteration      DIISMaxIt       ....    12
   Startup error        DIISStart       ....  0.200000
   # of expansion vecs  DIISMaxEq       ....     5
   Bias factor          DIISBfac        ....   1.050
   Max. coefficient     DIISMaxC        ....  10.000
 MO-DIIS                CNVKDIIS        .... off
 Trust-Rad. Augm. Hess. CNVTRAH         .... auto
   Auto Start mean grad. ratio tolernc. ....  1.125000
   Auto Start start iteration           ....    50
   Auto Start num. interpolation iter.  ....    10
   Max. Number of Micro iterations      ....    24
   Max. Number of Macro iterations      .... Maxiter - #DIIS iter
   Number of Davidson start vectors     ....     2
   Converg. threshold    (grad. norm)   ....   1.000e-05
   Grad. Scal. Fac. for Micro threshold ....   0.100
   Minimum threshold for Micro iter.    ....   1.000e-02
   NR start threshold (gradient norm)   ....   1.000e-04
   Initial trust radius                 ....   0.400
   Minimum AH scaling param. (alpha)    ....   1.000
   Maximum AH scaling param. (alpha)    .... 1000.000
   Quad. conv. algorithm                .... NR
   White noise on init. David. guess    .... on
   Maximum white noise                  ....   0.010
   Pseudo random numbers                .... off
   Inactive MOs                         .... canonical
   Orbital update algorithm             .... Taylor
   Preconditioner                       .... Diag
   Full preconditioner red. dimension   ....   250
 SOSCF                  CNVSOSCF        .... on
   Start iteration      SOSCFMaxIt      ....   150
   Startup grad/error   SOSCFStart      ....  0.003300
   Hessian update       SOSCFHessUp     .... L-BFGS
 Level Shifting         CNVShift        .... on
   Level shift para.    LevelShift      ....    0.2500
   Turn off err/grad.   ShiftErr        ....    0.0010
 Zerner damping         CNVZerner       .... off
 Static damping         CNVDamp         .... on
   Fraction old density DampFac         ....    0.7000
   Max. Damping (<1)    DampMax         ....    0.9800
   Min. Damping (>=0)   DampMin         ....    0.0000
   Turn off err/grad.   DampErr         ....    0.1000

SCF Procedure:
 Maximum # iterations   MaxIter         ....   125
 SCF integral mode      SCFMode         .... Direct
   Integral package                     .... SHARK and LIBINT hybrid scheme
 Reset frequency        DirectResetFreq ....    20
 Integral Threshold     Thresh          ....  1.000e-12 Eh
 Primitive CutOff       TCut            ....  1.000e-13 Eh

Convergence Tolerance:
 Convergence Check Mode ConvCheckMode   .... Total+1el-Energy
 Convergence forced     ConvForced      .... 1
 Energy Change          TolE            ....  1.000e-08 Eh
 1-El. energy change                    ....  1.000e-05 Eh
 Orbital Gradient       TolG            ....  1.000e-05
 Orbital Rotation angle TolX            ....  1.000e-05
 DIIS Error             TolErr          ....  5.000e-07

------------------------------
INITIAL GUESS: MODEL POTENTIAL
------------------------------
Loading Hartree-Fock densities                     ... done
Calculating cut-offs                               ... done
Initializing the effective Hamiltonian             ... done
Setting up the integral package (SHARK)            ... done
Starting the Coulomb interaction                   ... done (   0.1 sec)
Making the grid                                    ... done (   0.3 sec)
Mapping shells                                     ... done
Starting the XC term evaluation                    ... done (   0.1 sec)
  promolecular density results
     # of electrons  =    131.995333746
     EX              =   -113.593890682
     EC              =     -4.504815316
     EX+EC           =   -118.098705997
Transforming the Hamiltonian                       ... done (   0.1 sec)
Diagonalizing the Hamiltonian                      ... done (   0.1 sec)
Back transforming the eigenvectors                 ... done (   0.1 sec)
Now organizing SCF variables                       ... done
                      ------------------
                      INITIAL GUESS DONE (   1.1 sec)
                      ------------------
             **** ENERGY FILE WAS UPDATED (orca.en.tmp) ****
Finished Guess after   3.6 sec
Maximum memory used throughout the entire GUESS-calculation: 72.6 MB
[1741101474.192497] [ohm:804483:0]        ib_iface.c:1059 UCX  ERROR ibv_create_cq(cqe=256) failed: Connection timed out
[1741101474.195951] [ohm:804482:0]        ib_iface.c:1059 UCX  ERROR ibv_create_cq(cqe=256) failed: Connection timed out
[1741101474.212058] [ohm:804500:0]        ib_iface.c:1059 UCX  ERROR ibv_create_cq(cqe=256) failed: Connection timed out
[1741101474.217830] [ohm:804485:0]        ib_iface.c:1059 UCX  ERROR ibv_create_cq(cqe=256) failed: Connection timed out
[1741101474.218866] [ohm:804484:0]        ib_iface.c:1059 UCX  ERROR ibv_create_cq(cqe=256) failed: Connection timed out
[1741101474.225260] [ohm:804493:0]        ib_iface.c:1059 UCX  ERROR ibv_create_cq(cqe=256) failed: Connection timed out
[1741101474.239653] [ohm:804497:0]        ib_iface.c:1059 UCX  ERROR ibv_create_cq(cqe=256) failed: Connection timed out
[1741101474.242111] [ohm:804491:0]        ib_iface.c:1059 UCX  ERROR ibv_create_cq(cqe=256) failed: Connection timed out
[1741101474.249657] [ohm:804486:0]        ib_iface.c:1059 UCX  ERROR ibv_create_cq(cqe=256) failed: Connection timed out
[1741101474.251397] [ohm:804488:0]        ib_iface.c:1059 UCX  ERROR ibv_create_cq(cqe=256) failed: Connection timed out
[1741101474.251437] [ohm:804508:0]        ib_iface.c:1059 UCX  ERROR ibv_create_cq(cqe=256) failed: Connection timed out
[1741101474.252237] [ohm:804513:0]        ib_iface.c:1059 UCX  ERROR ibv_create_cq(cqe=256) failed: Connection timed out
[1741101474.266067] [ohm:804490:0]        ib_iface.c:1059 UCX  ERROR ibv_create_cq(cqe=256) failed: Connection timed out
[1741101474.274472] [ohm:804509:0]        ib_iface.c:1059 UCX  ERROR ibv_create_cq(cqe=256) failed: Connection timed out
[1741101474.275011] [ohm:804503:0]        ib_iface.c:1059 UCX  ERROR ibv_create_cq(cqe=256) failed: Connection timed out
[1741101474.276640] [ohm:804496:0]        ib_iface.c:1059 UCX  ERROR ibv_create_cq(cqe=256) failed: Connection timed out
[1741101474.309425] [ohm:804510:0]        ib_iface.c:1059 UCX  ERROR ibv_create_cq(cqe=256) failed: Connection timed out
[1741101474.319787] [ohm:804501:0]        ib_iface.c:1059 UCX  ERROR ibv_create_cq(cqe=256) failed: Connection timed out
[1741101474.331932] [ohm:804540:0]        ib_iface.c:1059 UCX  ERROR ibv_create_cq(cqe=256) failed: Connection timed out
[1741101474.343423] [ohm:804494:0]        ib_iface.c:1059 UCX  ERROR ibv_create_cq(cqe=256) failed: Connection timed out
[1741101474.343955] [ohm:804498:0]        ib_iface.c:1059 UCX  ERROR ibv_create_cq(cqe=256) failed: Connection timed out
[1741101474.346856] [ohm:804524:0]        ib_iface.c:1059 UCX  ERROR ibv_create_cq(cqe=256) failed: Connection timed out
[1741101474.350856] [ohm:804504:0]        ib_iface.c:1059 UCX  ERROR ibv_create_cq(cqe=256) failed: Connection timed out
[1741101474.353798] [ohm:804499:0]        ib_iface.c:1059 UCX  ERROR ibv_create_cq(cqe=256) failed: Connection timed out
[1741101474.357981] [ohm:804565:0]        ib_iface.c:1059 UCX  ERROR ibv_create_cq(cqe=256) failed: Connection timed out
[1741101474.375822] [ohm:804556:0]        ib_iface.c:1059 UCX  ERROR ibv_create_cq(cqe=256) failed: Connection timed out
[1741101474.395300] [ohm:804591:0]        ib_iface.c:1059 UCX  ERROR ibv_create_cq(cqe=256) failed: Connection timed out
[1741101474.399180] [ohm:804505:0]        ib_iface.c:1059 UCX  ERROR ibv_create_cq(cqe=256) failed: Connection timed out
[1741101474.400461] [ohm:804502:0]        ib_iface.c:1059 UCX  ERROR ibv_create_cq(cqe=256) failed: Connection timed out
[1741101474.404807] [ohm:804511:0]        ib_iface.c:1059 UCX  ERROR ibv_create_cq(cqe=256) failed: Connection timed out
[1741101474.410986] [ohm:804507:0]        ib_iface.c:1059 UCX  ERROR ibv_create_cq(cqe=256) failed: Connection timed out
[1741101474.411172] [ohm:804622:0]        ib_iface.c:1059 UCX  ERROR ibv_create_cq(cqe=256) failed: Connection timed out
[1741101474.415132] [ohm:804547:0]        ib_iface.c:1059 UCX  ERROR ibv_create_cq(cqe=256) failed: Connection timed out
[1741101474.417764] [ohm:804543:0]        ib_iface.c:1059 UCX  ERROR ibv_create_cq(cqe=256) failed: Connection timed out
[1741101474.426778] [ohm:804516:0]        ib_iface.c:1059 UCX  ERROR ibv_create_cq(cqe=256) failed: Connection timed out
[1741101474.444298] [ohm:804611:0]        ib_iface.c:1059 UCX  ERROR ibv_create_cq(cqe=256) failed: Connection timed out
[1741101474.451475] [ohm:804506:0]        ib_iface.c:1059 UCX  ERROR ibv_create_cq(cqe=256) failed: Connection timed out
[1741101474.452752] [ohm:804594:0]        ib_iface.c:1059 UCX  ERROR ibv_create_cq(cqe=256) failed: Connection timed out
[1741101474.457171] [ohm:804568:0]        ib_iface.c:1059 UCX  ERROR ibv_create_cq(cqe=256) failed: Connection timed out
[1741101474.460518] [ohm:804583:0]        ib_iface.c:1059 UCX  ERROR ibv_create_cq(cqe=256) failed: Connection timed out
[1741101474.462631] [ohm:804550:0]        ib_iface.c:1059 UCX  ERROR ibv_create_cq(cqe=256) failed: Connection timed out
[1741101474.475309] [ohm:804518:0]        ib_iface.c:1059 UCX  ERROR ibv_create_cq(cqe=256) failed: Connection timed out
[1741101474.476864] [ohm:804578:0]        ib_iface.c:1059 UCX  ERROR ibv_create_cq(cqe=256) failed: Connection timed out
[1741101474.477047] [ohm:804620:0]        ib_iface.c:1059 UCX  ERROR ibv_create_cq(cqe=256) failed: Connection timed out
[1741101474.478731] [ohm:804599:0]        ib_iface.c:1059 UCX  ERROR ibv_create_cq(cqe=256) failed: Connection timed out
[1741101474.487933] [ohm:804604:0]        ib_iface.c:1059 UCX  ERROR ibv_create_cq(cqe=256) failed: Connection timed out
[1741101474.490144] [ohm:804537:0]        ib_iface.c:1059 UCX  ERROR ibv_create_cq(cqe=256) failed: Connection timed out
[1741101474.491059] [ohm:804495:0]        ib_iface.c:1059 UCX  ERROR ibv_create_cq(cqe=256) failed: Connection timed out
[1741101474.492426] [ohm:804625:0]        ib_iface.c:1059 UCX  ERROR ibv_create_cq(cqe=256) failed: Connection timed out
[1741101474.500017] [ohm:804617:0]        ib_iface.c:1059 UCX  ERROR ibv_create_cq(cqe=256) failed: Connection timed out
[1741101474.501023] [ohm:804577:0]        ib_iface.c:1059 UCX  ERROR ibv_create_cq(cqe=256) failed: Connection timed out
[1741101474.509135] [ohm:804529:0]        ib_iface.c:1059 UCX  ERROR ibv_create_cq(cqe=256) failed: Connection timed out
[1741101474.509555] [ohm:804571:0]        ib_iface.c:1059 UCX  ERROR ibv_create_cq(cqe=256) failed: Connection timed out
[1741101474.509852] [ohm:804530:0]        ib_iface.c:1059 UCX  ERROR ibv_create_cq(cqe=256) failed: Connection timed out
[1741101474.515815] [ohm:804560:0]        ib_iface.c:1059 UCX  ERROR ibv_create_cq(cqe=256) failed: Connection timed out
[1741101474.515974] [ohm:804598:0]        ib_iface.c:1059 UCX  ERROR ibv_create_cq(cqe=256) failed: Connection timed out
[1741101474.516025] [ohm:804492:0]        ib_iface.c:1059 UCX  ERROR ibv_create_cq(cqe=256) failed: Connection timed out
[1741101474.516450] [ohm:804606:0]        ib_iface.c:1059 UCX  ERROR ibv_create_cq(cqe=256) failed: Connection timed out
[1741101474.517192] [ohm:804586:0]        ib_iface.c:1059 UCX  ERROR ibv_create_cq(cqe=256) failed: Connection timed out
[1741101474.517735] [ohm:804569:0]        ib_iface.c:1059 UCX  ERROR ibv_create_cq(cqe=256) failed: Connection timed out
[1741101474.518291] [ohm:804612:0]        ib_iface.c:1059 UCX  ERROR ibv_create_cq(cqe=256) failed: Connection timed out
[1741101474.519234] [ohm:804487:0]        ib_iface.c:1059 UCX  ERROR ibv_create_cq(cqe=256) failed: Connection timed out
[1741101474.519726] [ohm:804573:0]        ib_iface.c:1059 UCX  ERROR ibv_create_cq(cqe=256) failed: Connection timed out
[1741101474.519715] [ohm:804489:0]        ib_iface.c:1059 UCX  ERROR ibv_create_cq(cqe=256) failed: Connection timed out


           ************************************************************
           *        Program running with 64 parallel MPI-processes    *
           *              working on a common directory               *
           ************************************************************

-------------------------------------------------------------------------------------------
                                      ORCA LEAN-SCF
                              memory conserving SCF solver
-------------------------------------------------------------------------------------------

----------------------------------------D-I-I-S--------------------------------------------
Iteration    Energy (Eh)           Delta-E    RMSDP     MaxDP     DIISErr   Damp  Time(sec)
-------------------------------------------------------------------------------------------
               ***  Starting incremental Fock matrix formation  ***
    1    -908.1141363028584692     0.00e+00  1.73e-03  2.78e-01  1.46e-01  0.700   7.8
    2    -908.3877415683411982    -2.74e-01  1.37e-03  1.66e-01  6.86e-02  0.700   6.5
                               ***Turning on AO-DIIS***
    3    -908.5079979547074345    -1.20e-01  9.80e-04  1.17e-01  2.84e-02  0.700   5.7
    4    -908.5820319552710771    -7.40e-02  2.33e-03  2.26e-01  1.74e-02  0.000   5.7
    5    -908.7483428652583370    -1.66e-01  2.90e-04  8.13e-02  4.19e-03  0.000   5.8
                              *** Initializing SOSCF ***
---------------------------------------S-O-S-C-F--------------------------------------
Iteration    Energy (Eh)           Delta-E    RMSDP     MaxDP     MaxGrad    Time(sec)
--------------------------------------------------------------------------------------
    6    -908.7496355684354512    -1.29e-03  1.39e-04  3.71e-02  2.04e-03     6.4
               *** Restarting incremental Fock matrix formation ***
    7    -908.7502144589050204    -5.79e-04  1.92e-04  3.58e-02  4.52e-03     7.4
    8    -908.7505789027788978    -3.64e-04  2.35e-04  6.69e-02  2.35e-03     6.6
    9    -908.7507157544184793    -1.37e-04  8.47e-05  8.82e-03  8.80e-04     6.6
   10    -908.7507723093688128    -5.66e-05  3.16e-05  8.28e-03  4.77e-04     6.5
   11    -908.7507836577608487    -1.13e-05  8.23e-06  8.72e-04  1.23e-04     6.2
   12    -908.7507858034566652    -2.15e-06  6.85e-06  1.31e-03  1.55e-04     6.0
   13    -908.7507870196752719    -1.22e-06  4.96e-06  7.56e-04  3.96e-05     5.9
   14    -908.7507871932014041    -1.74e-07  1.73e-06  4.08e-04  2.59e-05     5.9
   15    -908.7507872182693518    -2.51e-08  1.65e-06  2.92e-04  1.09e-05     5.6
   16    -908.7507872453882101    -2.71e-08  1.35e-06  2.99e-04  3.01e-06     5.5
   17    -908.7507873064139403    -6.10e-08  1.67e-06  4.10e-04  1.63e-06     5.4
                  *** Gradient check signals convergence ***

               *****************************************************
               *                     SUCCESS                       *
               *           SCF CONVERGED AFTER  17 CYCLES          *
               *****************************************************

Recomputing exchange energy using gridx3       ... done (    7.884 sec)
Old exchange energy                            :    -35.055934668 Eh
New exchange energy                            :    -35.055944452 Eh
Exchange energy change after final integration :     -0.000009784 Eh
Total energy after final integration           :   -908.750797090 Eh
             **** ENERGY FILE WAS UPDATED (orca.en.tmp) ****

----------------
TOTAL SCF ENERGY
----------------

Total Energy       :       -908.75079709022282 Eh          -24728.36635 eV

Components:
Nuclear Repulsion  :       1439.57746308784203 Eh           39172.89428 eV
Electronic Energy  :      -2348.32825039425597 Eh          -63901.26037 eV
One Electron Energy:      -4095.76196889796847 Eh         -111451.34925 eV
Two Electron Energy:       1747.43371850371250 Eh           47550.08888 eV

Virial components:
Potential Energy   :      -1814.79014565723946 Eh          -49382.95044 eV
Kinetic Energy     :        906.03934856701653 Eh           24654.58409 eV
Virial Ratio       :          2.00299263881585

DFT components:
N(Alpha)           :       66.999982836558 electrons
N(Beta)            :       64.999995200416 electrons
N(Total)           :      131.999978036975 electrons
E(XC)              :      -86.324264652688 Eh       

---------------
SCF CONVERGENCE
---------------

  Last Energy change         ...    6.1026e-08  Tolerance :   1.0000e-08
  Last MAX-Density change    ...    4.1044e-04  Tolerance :   1.0000e-07
  Last RMS-Density change    ...    1.6718e-06  Tolerance :   5.0000e-09
  Last DIIS Error            ...    2.0411e-03  Tolerance :   5.0000e-07
  Last Orbital Gradient      ...    1.6262e-06  Tolerance :   1.0000e-05
  Last Orbital Rotation      ...    8.3787e-06  Tolerance :   1.0000e-05


----------------------
UHF SPIN CONTAMINATION
----------------------

Warning: in a DFT calculation there is little theoretical justification to 
         calculate <S**2> as in Hartree-Fock theory. We will do it anyways
         but you should keep in mind that the values have only limited relevance

Expectation value of <S**2>     :     2.013236
Ideal value S*(S+1) for S=1.0   :     2.000000
Deviation                       :     0.013236

----------------
ORBITAL ENERGIES
----------------
                 SPIN UP ORBITALS
  NO   OCC          E(Eh)            E(eV) 
   0   1.0000     -19.333107      -526.0806 
   1   1.0000     -19.330916      -526.0210 
   2   1.0000     -19.327616      -525.9312 
   3   1.0000     -19.326643      -525.9047 
   4   1.0000     -14.573255      -396.5584 
   5   1.0000     -14.569744      -396.4629 
   6   1.0000     -14.568194      -396.4207 
   7   1.0000     -14.562938      -396.2777 
   8   1.0000     -10.515641      -286.1452 
   9   1.0000     -10.514743      -286.1207 
  10   1.0000     -10.479999      -285.1753 
  11   1.0000     -10.478556      -285.1360 
  12   1.0000     -10.449874      -284.3555 
  13   1.0000     -10.445896      -284.2473 
  14   1.0000     -10.418731      -283.5081 
  15   1.0000     -10.412868      -283.3485 
  16   1.0000     -10.370020      -282.1826 
  17   1.0000     -10.366180      -282.0781 
  18   1.0000      -1.222475       -33.2652 
  19   1.0000      -1.219080       -33.1729 
  20   1.0000      -1.195501       -32.5312 
  21   1.0000      -1.192096       -32.4386 
  22   1.0000      -1.126478       -30.6530 
  23   1.0000      -1.102168       -29.9915 
  24   1.0000      -1.066481       -29.0204 
  25   1.0000      -1.059852       -28.8400 
  26   1.0000      -0.996710       -27.1219 
  27   1.0000      -0.964506       -26.2455 
  28   1.0000      -0.895127       -24.3577 
  29   1.0000      -0.851724       -23.1766 
  30   1.0000      -0.830163       -22.5899 
  31   1.0000      -0.805493       -21.9186 
  32   1.0000      -0.792560       -21.5667 
  33   1.0000      -0.782881       -21.3033 
  34   1.0000      -0.706902       -19.2358 
  35   1.0000      -0.696659       -18.9570 
  36   1.0000      -0.693124       -18.8609 
  37   1.0000      -0.684839       -18.6354 
  38   1.0000      -0.661136       -17.9904 
  39   1.0000      -0.644536       -17.5387 
  40   1.0000      -0.628241       -17.0953 
  41   1.0000      -0.607698       -16.5363 
  42   1.0000      -0.606976       -16.5167 
  43   1.0000      -0.586160       -15.9502 
  44   1.0000      -0.582155       -15.8412 
  45   1.0000      -0.571736       -15.5577 
  46   1.0000      -0.569957       -15.5093 
  47   1.0000      -0.565716       -15.3939 
  48   1.0000      -0.563619       -15.3369 
  49   1.0000      -0.559896       -15.2355 
  50   1.0000      -0.552821       -15.0430 
  51   1.0000      -0.540100       -14.6969 
  52   1.0000      -0.534982       -14.5576 
  53   1.0000      -0.528622       -14.3845 
  54   1.0000      -0.521459       -14.1896 
  55   1.0000      -0.513527       -13.9738 
  56   1.0000      -0.495611       -13.4863 
  57   1.0000      -0.429572       -11.6893 
  58   1.0000      -0.424865       -11.5612 
  59   1.0000      -0.411204       -11.1894 
  60   1.0000      -0.410018       -11.1572 
  61   1.0000      -0.402138       -10.9427 
  62   1.0000      -0.398804       -10.8520 
  63   1.0000      -0.391266       -10.6469 
  64   1.0000      -0.387140       -10.5346 
  65   1.0000      -0.352344        -9.5878 
  66   1.0000      -0.318176        -8.6580 
  67   0.0000       0.006311         0.1717 
  68   0.0000       0.029963         0.8153 
  69   0.0000       0.032203         0.8763 
  70   0.0000       0.035408         0.9635 
  71   0.0000       0.054831         1.4920 
  72   0.0000       0.057079         1.5532 
  73   0.0000       0.059239         1.6120 
  74   0.0000       0.063025         1.7150 
  75   0.0000       0.064279         1.7491 
  76   0.0000       0.067702         1.8423 
  77   0.0000       0.071367         1.9420 

                 SPIN DOWN ORBITALS
  NO   OCC          E(Eh)            E(eV) 
   0   1.0000     -19.328597      -525.9579 
   1   1.0000     -19.327552      -525.9294 
   2   1.0000     -19.327141      -525.9182 
   3   1.0000     -19.326539      -525.9019 
   4   1.0000     -14.572987      -396.5511 
   5   1.0000     -14.568901      -396.4400 
   6   1.0000     -14.568243      -396.4220 
   7   1.0000     -14.562401      -396.2631 
   8   1.0000     -10.515692      -286.1465 
   9   1.0000     -10.514787      -286.1219 
  10   1.0000     -10.481095      -285.2051 
  11   1.0000     -10.479370      -285.1582 
  12   1.0000     -10.449280      -284.3394 
  13   1.0000     -10.445137      -284.2266 
  14   1.0000     -10.407466      -283.2015 
  15   1.0000     -10.401743      -283.0458 
  16   1.0000     -10.370442      -282.1941 
  17   1.0000     -10.366685      -282.0918 
  18   1.0000      -1.221240       -33.2316 
  19   1.0000      -1.217889       -33.1404 
  20   1.0000      -1.191025       -32.4094 
  21   1.0000      -1.186513       -32.2867 
  22   1.0000      -1.123632       -30.5756 
  23   1.0000      -1.100082       -29.9348 
  24   1.0000      -1.064207       -28.9586 
  25   1.0000      -1.058110       -28.7926 
  26   1.0000      -0.984076       -26.7781 
  27   1.0000      -0.948013       -25.7968 
  28   1.0000      -0.889365       -24.2008 
  29   1.0000      -0.846352       -23.0304 
  30   1.0000      -0.820280       -22.3209 
  31   1.0000      -0.799686       -21.7606 
  32   1.0000      -0.791039       -21.5253 
  33   1.0000      -0.781143       -21.2560 
  34   1.0000      -0.703296       -19.1377 
  35   1.0000      -0.691489       -18.8164 
  36   1.0000      -0.686776       -18.6881 
  37   1.0000      -0.678239       -18.4558 
  38   1.0000      -0.647100       -17.6085 
  39   1.0000      -0.639894       -17.4124 
  40   1.0000      -0.624607       -16.9964 
  41   1.0000      -0.601825       -16.3765 
  42   1.0000      -0.598224       -16.2785 
  43   1.0000      -0.580996       -15.8097 
  44   1.0000      -0.575679       -15.6650 
  45   1.0000      -0.566193       -15.4069 
  46   1.0000      -0.563369       -15.3301 
  47   1.0000      -0.560901       -15.2629 
  48   1.0000      -0.555977       -15.1289 
  49   1.0000      -0.553396       -15.0587 
  50   1.0000      -0.543669       -14.7940 
  51   1.0000      -0.530723       -14.4417 
  52   1.0000      -0.529108       -14.3978 
  53   1.0000      -0.521356       -14.1868 
  54   1.0000      -0.515904       -14.0385 
  55   1.0000      -0.504681       -13.7331 
  56   1.0000      -0.488801       -13.3010 
  57   1.0000      -0.424593       -11.5538 
  58   1.0000      -0.420816       -11.4510 
  59   1.0000      -0.407250       -11.0818 
  60   1.0000      -0.396387       -10.7863 
  61   1.0000      -0.393641       -10.7115 
  62   1.0000      -0.389872       -10.6089 
  63   1.0000      -0.386161       -10.5080 
  64   1.0000      -0.378514       -10.2999 
  65   0.0000      -0.067536        -1.8377 
  66   0.0000      -0.045849        -1.2476 
  67   0.0000       0.005856         0.1593 
  68   0.0000       0.029357         0.7989 
  69   0.0000       0.032173         0.8755 
  70   0.0000       0.035297         0.9605 
  71   0.0000       0.054757         1.4900 
  72   0.0000       0.058002         1.5783 
  73   0.0000       0.059186         1.6105 
  74   0.0000       0.063807         1.7363 
  75   0.0000       0.064084         1.7438 
*Only the first 10 virtual orbitals were printed.

                    ********************************
                    * MULLIKEN POPULATION ANALYSIS *
                    ********************************

--------------------------------------------
MULLIKEN ATOMIC CHARGES AND SPIN POPULATIONS
--------------------------------------------
   0 O :   -0.677740    0.145333
   1 O :   -0.666561    0.166806
   2 O :   -0.630395    0.002837
   3 O :   -0.644248    0.003448
   4 N :   -0.185572    0.033409
   5 N :   -0.309824    0.027138
   6 N :   -0.027973    0.041543
   7 N :    0.061060    0.019811
   8 C :   -0.111005    0.466574
   9 C :    0.122172    0.420489
  10 C :    0.532512    0.118332
  11 C :    0.543497    0.172301
  12 C :   -1.517589    0.015530
  13 C :   -1.557561    0.021776
  14 C :    0.447006    0.087059
  15 C :    0.458434    0.137381
  16 C :    0.401245   -0.009893
  17 C :    0.257123   -0.002296
  18 H :    0.533770    0.034455
  19 H :    0.585912    0.021380
  20 H :    0.329013    0.016759
  21 H :    0.363932    0.001100
  22 H :    0.395505    0.025857
  23 H :    0.235962    0.018992
  24 H :    0.404210    0.021735
  25 H :    0.334620   -0.003976
  26 H :    0.081259    0.001131
  27 H :    0.085760   -0.001991
  28 H :    0.042156   -0.002095
  29 H :    0.113323   -0.000926
Sum of atomic charges         :    0.0000000
Sum of atomic spin populations:    2.0000000

-----------------------------------------------------
MULLIKEN REDUCED ORBITAL CHARGES AND SPIN POPULATIONS
-----------------------------------------------------
CHARGE
  0 O s       :     4.088159  s :     4.088159
      pz      :     1.665570  p :     4.560783
      px      :     1.345743
      py      :     1.549469
      dz2     :     0.002288  d :     0.026963
      dxz     :     0.004707
      dyz     :     0.002676
      dx2y2   :     0.008753
      dxy     :     0.008539
      f0      :     0.000211  f :     0.001835
      f+1     :     0.000226
      f-1     :     0.000099
      f+2     :     0.000090
      f-2     :     0.000271
      f+3     :     0.000516
      f-3     :     0.000422

  1 O s       :     4.091952  s :     4.091952
      pz      :     1.321758  p :     4.542514
[...]
[1741101766.952894] [ohm:806826:0]        ib_iface.c:1059 UCX  ERROR ibv_create_cq(cqe=256) failed: Connection timed out
[1741101766.960670] [ohm:806782:0]        ib_iface.c:1059 UCX  ERROR ibv_create_cq(cqe=256) failed: Connection timed out
[1741101766.963019] [ohm:806846:0]        ib_iface.c:1059 UCX  ERROR ibv_create_cq(cqe=256) failed: Connection timed out
[1741101766.964300] [ohm:806745:0]        ib_iface.c:1059 UCX  ERROR ibv_create_cq(cqe=256) failed: Connection timed out
[1741101766.964556] [ohm:806706:0]        ib_iface.c:1059 UCX  ERROR ibv_create_cq(cqe=256) failed: Connection timed out
[1741101766.964769] [ohm:806806:0]        ib_iface.c:1059 UCX  ERROR ibv_create_cq(cqe=256) failed: Connection timed out
[1741101766.964772] [ohm:806730:0]        ib_iface.c:1059 UCX  ERROR ibv_create_cq(cqe=256) failed: Connection timed out
[1741101766.966692] [ohm:806741:0]        ib_iface.c:1059 UCX  ERROR ibv_create_cq(cqe=256) failed: Connection timed out
[1741101766.966926] [ohm:806772:0]        ib_iface.c:1059 UCX  ERROR ibv_create_cq(cqe=256) failed: Connection timed out
[1741101766.967997] [ohm:806829:0]        ib_iface.c:1059 UCX  ERROR ibv_create_cq(cqe=256) failed: Connection timed out
[1741101766.967986] [ohm:806732:0]        ib_iface.c:1059 UCX  ERROR ibv_create_cq(cqe=256) failed: Connection timed out


           ************************************************************
           *        Program running with 64 parallel MPI-processes    *
           *              working on a common directory               *
           ************************************************************

------------------------------------------------------------------------------
                              ORCA PROPERTY CALCULATIONS
------------------------------------------------------------------------------

GBWName                                 ... orca.gbw
Number of atoms                         ...     30
Number of basis functions               ...    882
Max core memory                         ...   1024 MB

Electric properties:
Dipole moment                           ... YES
Quadrupole moment                       ...  NO
Static polarizability (Dipole/Dipole)   ...  NO
Static polarizability (Dipole/Quad.)    ...  NO
Static polarizability (Quad./Quad.)     ...  NO
Static polarizability (Velocity)        ...  NO

Atomic electric properties:
Dipole moment                           ...  NO
Quadrupole moment                       ...  NO
Static polarizability                   ...  NO

Choice of electric origin               ... Center of mass
Position of electric origin             ...    -0.017391    -0.083859    -0.041548

General magnetic properties:
Magnetizability                         ...  NO

EPR properties:
g-Tensor (aka g-matrix)                 ...  NO
Zero-Field splitting spin-orbit         ...  NO
Zero-field splitting spin-spin          ...  NO
Hyperfine couplings                     ...  NO (   0 nuclei)
Quadrupole couplings                    ...  NO (   0 nuclei)
Contact density                         ...  NO (   0 nuclei)

NMR properties:
Chemical shifts                         ...  NO (   0 nuclei)
Spin-rotation constants                 ...  NO (   0 nuclei)
Spin-spin couplings                     ...  NO (   0 nuclei,    0 pairs)

Choice of magnetic origin               ... GIAO
Position of magnetic origin             ...     0.000000     0.000000     0.000000

Properties with geometric perturbations:
SCF Hessian                             ...  NO
IR spectrum                             ...  NO
VCD spectrum                            ...  NO
X-ray spectroscopy properties:
SCF XES/XAS/RIXS spectra                ...  NO


-------------
DIPOLE MOMENT
-------------

Method             : SCF
Type of density    : Electron Density
Multiplicity       :   3
Irrep              :   0
Energy             :  -908.7507970902228180 Eh
Relativity type    : 
Basis              : AO
                                X                 Y                 Z
Electronic contribution:     -4.619881934      -8.570996307      -6.148259401
Nuclear contribution   :      4.641569211       9.894818592       8.485287626
                        -----------------------------------------
Total Dipole Moment    :      0.021687276       1.323822285       2.337028225
                        -----------------------------------------
Magnitude (a.u.)       :      2.686015023
Magnitude (Debye)      :      6.827307613



--------------------
Rotational spectrum 
--------------------
 
Rotational constants in cm-1:             0.022002             0.012222             0.011650 
Rotational constants in MHz :           659.593939           366.411755           349.261323 

Dipole components along the rotational axes: 
x,y,z [a.u.] :    -0.777660    -2.165100     1.386458 
x,y,z [Debye]:    -1.976654    -5.503247     3.524095 

 

-------------
DIPOLE MOMENT
-------------

Method             : TDA/CIS
Type of density    : Electron Density
Level              : Relaxed density
State              :   1
Multiplicity       :   3
Irrep              :   0
Energy             :     0.0000000000000000 Eh
Relativity type    : 
Basis              : AO
                                X                 Y                 Z
Electronic contribution:     -4.691133561      -8.563953846      -6.035518396
Nuclear contribution   :      4.641569211       9.894818592       8.485287626
                        -----------------------------------------
Total Dipole Moment    :     -0.049564350       1.330864746       2.449769229
                        -----------------------------------------
Magnitude (a.u.)       :      2.788373518
Magnitude (Debye)      :      7.087482231



--------------------
Rotational spectrum 
--------------------
 
Rotational constants in cm-1:             0.022002             0.012222             0.011650 
Rotational constants in MHz :           659.593939           366.411755           349.261323 

Dipole components along the rotational axes: 
x,y,z [a.u.] :    -0.745516    -2.230117     1.498602 
x,y,z [Debye]:    -1.894951    -5.668508     3.809144 

 

Dipole moment calculation done in   0.2 sec 

Maximum memory used throughout the entire PROP-calculation: 81.7 MB
[1741101769.473074] [ohm:807044:0]        ib_iface.c:1059 UCX  ERROR ibv_create_cq(cqe=256) failed: Connection timed out
[1741101769.482153] [ohm:807046:0]        ib_iface.c:1059 UCX  ERROR ibv_create_cq(cqe=256) failed: Connection timed out
[1741101769.533628] [ohm:807049:0]        ib_iface.c:1059 UCX  ERROR ibv_create_cq(cqe=256) failed: Connection timed out
[1741101769.533764] [ohm:807047:0]        ib_iface.c:1059 UCX  ERROR ibv_create_cq(cqe=256) failed: Connection timed out
[1741101769.536866] [ohm:807050:0]        ib_iface.c:1059 UCX  ERROR ibv_create_cq(cqe=256) failed: Connection timed out
[1741101769.545484] [ohm:807045:0]        ib_iface.c:1059 UCX  ERROR ibv_create_cq(cqe=256) failed: Connection timed out
[1741101769.554226] [ohm:807048:0]        ib_iface.c:1059 UCX  ERROR ibv_create_cq(cqe=256) failed: Connection timed out
[1741101769.567773] [ohm:807074:0]        ib_iface.c:1059 UCX  ERROR ibv_create_cq(cqe=256) failed: Connection timed out
[1741101769.568107] [ohm:807056:0]        ib_iface.c:1059 UCX  ERROR ibv_create_cq(cqe=256) failed: Connection timed out
[1741101769.568110] [ohm:807064:0]        ib_iface.c:1059 UCX  ERROR ibv_create_cq(cqe=256) failed: Connection timed out
[1741101769.570107] [ohm:807071:0]        ib_iface.c:1059 UCX  ERROR ibv_create_cq(cqe=256) failed: Connection timed out
[1741101769.612729] [ohm:807055:0]        ib_iface.c:1059 UCX  ERROR ibv_create_cq(cqe=256) failed: Connection timed out
[1741101769.618945] [ohm:807069:0]        ib_iface.c:1059 UCX  ERROR ibv_create_cq(cqe=256) failed: Connection timed out
[1741101769.636622] [ohm:807182:0]        ib_iface.c:1059 UCX  ERROR ibv_create_cq(cqe=256) failed: Connection timed out
[1741101769.641843] [ohm:807054:0]        ib_iface.c:1059 UCX  ERROR ibv_create_cq(cqe=256) failed: Connection timed out
[1741101769.646165] [ohm:807128:0]        ib_iface.c:1059 UCX  ERROR ibv_create_cq(cqe=256) failed: Connection timed out
[1741101769.653770] [ohm:807119:0]        ib_iface.c:1059 UCX  ERROR ibv_create_cq(cqe=256) failed: Connection timed out
[1741101769.665342] [ohm:807075:0]        ib_iface.c:1059 UCX  ERROR ibv_create_cq(cqe=256) failed: Connection timed out
[1741101769.671782] [ohm:807057:0]        ib_iface.c:1059 UCX  ERROR ibv_create_cq(cqe=256) failed: Connection timed out
[1741101769.676783] [ohm:807070:0]        ib_iface.c:1059 UCX  ERROR ibv_create_cq(cqe=256) failed: Connection timed out
[1741101769.677875] [ohm:807063:0]        ib_iface.c:1059 UCX  ERROR ibv_create_cq(cqe=256) failed: Connection timed out
[1741101769.682003] [ohm:807077:0]        ib_iface.c:1059 UCX  ERROR ibv_create_cq(cqe=256) failed: Connection timed out
[1741101769.683922] [ohm:807079:0]        ib_iface.c:1059 UCX  ERROR ibv_create_cq(cqe=256) failed: Connection timed out
[1741101769.688886] [ohm:807084:0]        ib_iface.c:1059 UCX  ERROR ibv_create_cq(cqe=256) failed: Connection timed out
[1741101769.702048] [ohm:807053:0]        ib_iface.c:1059 UCX  ERROR ibv_create_cq(cqe=256) failed: Connection timed out
[1741101769.702080] [ohm:807073:0]        ib_iface.c:1059 UCX  ERROR ibv_create_cq(cqe=256) failed: Connection timed out
[1741101769.703123] [ohm:807058:0]        ib_iface.c:1059 UCX  ERROR ibv_create_cq(cqe=256) failed: Connection timed out
[1741101769.718293] [ohm:807052:0]        ib_iface.c:1059 UCX  ERROR ibv_create_cq(cqe=256) failed: Connection timed out
[1741101769.740511] [ohm:807072:0]        ib_iface.c:1059 UCX  ERROR ibv_create_cq(cqe=256) failed: Connection timed out
[1741101769.753053] [ohm:807089:0]        ib_iface.c:1059 UCX  ERROR ibv_create_cq(cqe=256) failed: Connection timed out
[1741101769.756452] [ohm:807051:0]        ib_iface.c:1059 UCX  ERROR ibv_create_cq(cqe=256) failed: Connection timed out
[1741101769.758460] [ohm:807080:0]        ib_iface.c:1059 UCX  ERROR ibv_create_cq(cqe=256) failed: Connection timed out
[1741101769.764329] [ohm:807076:0]        ib_iface.c:1059 UCX  ERROR ibv_create_cq(cqe=256) failed: Connection timed out
[1741101769.783201] [ohm:807111:0]        ib_iface.c:1059 UCX  ERROR ibv_create_cq(cqe=256) failed: Connection timed out
[1741101769.783235] [ohm:807078:0]        ib_iface.c:1059 UCX  ERROR ibv_create_cq(cqe=256) failed: Connection timed out
[1741101769.793025] [ohm:807192:0]        ib_iface.c:1059 UCX  ERROR ibv_create_cq(cqe=256) failed: Connection timed out
[1741101769.793087] [ohm:807093:0]        ib_iface.c:1059 UCX  ERROR ibv_create_cq(cqe=256) failed: Connection timed out
[1741101769.794319] [ohm:807105:0]        ib_iface.c:1059 UCX  ERROR ibv_create_cq(cqe=256) failed: Connection timed out
[1741101769.801476] [ohm:807144:0]        ib_iface.c:1059 UCX  ERROR ibv_create_cq(cqe=256) failed: Connection timed out
[1741101769.804489] [ohm:807107:0]        ib_iface.c:1059 UCX  ERROR ibv_create_cq(cqe=256) failed: Connection timed out
[1741101769.807421] [ohm:807133:0]        ib_iface.c:1059 UCX  ERROR ibv_create_cq(cqe=256) failed: Connection timed out
[1741101769.808811] [ohm:807122:0]        ib_iface.c:1059 UCX  ERROR ibv_create_cq(cqe=256) failed: Connection timed out
[1741101769.810094] [ohm:807139:0]        ib_iface.c:1059 UCX  ERROR ibv_create_cq(cqe=256) failed: Connection timed out
[1741101769.817109] [ohm:807173:0]        ib_iface.c:1059 UCX  ERROR ibv_create_cq(cqe=256) failed: Connection timed out
[1741101769.820258] [ohm:807160:0]        ib_iface.c:1059 UCX  ERROR ibv_create_cq(cqe=256) failed: Connection timed out
[1741101769.822557] [ohm:807180:0]        ib_iface.c:1059 UCX  ERROR ibv_create_cq(cqe=256) failed: Connection timed out
[1741101769.831782] [ohm:807151:0]        ib_iface.c:1059 UCX  ERROR ibv_create_cq(cqe=256) failed: Connection timed out
[1741101769.832145] [ohm:807115:0]        ib_iface.c:1059 UCX  ERROR ibv_create_cq(cqe=256) failed: Connection timed out
[1741101769.833847] [ohm:807158:0]        ib_iface.c:1059 UCX  ERROR ibv_create_cq(cqe=256) failed: Connection timed out
[1741101769.837698] [ohm:807096:0]        ib_iface.c:1059 UCX  ERROR ibv_create_cq(cqe=256) failed: Connection timed out
[1741101769.843249] [ohm:807146:0]        ib_iface.c:1059 UCX  ERROR ibv_create_cq(cqe=256) failed: Connection timed out
[1741101769.845242] [ohm:807187:0]        ib_iface.c:1059 UCX  ERROR ibv_create_cq(cqe=256) failed: Connection timed out
[1741101769.850656] [ohm:807100:0]        ib_iface.c:1059 UCX  ERROR ibv_create_cq(cqe=256) failed: Connection timed out
[1741101769.852943] [ohm:807134:0]        ib_iface.c:1059 UCX  ERROR ibv_create_cq(cqe=256) failed: Connection timed out
[1741101769.856552] [ohm:807170:0]        ib_iface.c:1059 UCX  ERROR ibv_create_cq(cqe=256) failed: Connection timed out
[1741101769.858314] [ohm:807142:0]        ib_iface.c:1059 UCX  ERROR ibv_create_cq(cqe=256) failed: Connection timed out
[1741101769.859751] [ohm:807164:0]        ib_iface.c:1059 UCX  ERROR ibv_create_cq(cqe=256) failed: Connection timed out
[1741101769.859826] [ohm:807126:0]        ib_iface.c:1059 UCX  ERROR ibv_create_cq(cqe=256) failed: Connection timed out
[1741101769.860116] [ohm:807138:0]        ib_iface.c:1059 UCX  ERROR ibv_create_cq(cqe=256) failed: Connection timed out
[1741101769.861863] [ohm:807176:0]        ib_iface.c:1059 UCX  ERROR ibv_create_cq(cqe=256) failed: Connection timed out
[1741101769.861860] [ohm:807101:0]        ib_iface.c:1059 UCX  ERROR ibv_create_cq(cqe=256) failed: Connection timed out
[1741101769.862863] [ohm:807169:0]        ib_iface.c:1059 UCX  ERROR ibv_create_cq(cqe=256) failed: Connection timed out
[1741101769.863365] [ohm:807082:0]        ib_iface.c:1059 UCX  ERROR ibv_create_cq(cqe=256) failed: Connection timed out
[1741101769.867031] [ohm:807154:0]        ib_iface.c:1059 UCX  ERROR ibv_create_cq(cqe=256) failed: Connection timed out

--------------------------------
SUGGESTED CITATIONS FOR THIS RUN
--------------------------------

Below you find a list of papers that are relevant to this ORCA run
We neither can nor want to force you to cite these papers, but we appreciate if you do
You receive ORCA, which is the product of decades of hard work by many enthusiastic individuals, for free
The only thing we kindly ask in return is that you cite our papers,
We deeply appreciate it, if you show your appreciation for ORCA by not just citing the generic ORCA reference.

Please note that relegating all ORCA citations to the supporting information does *not* help us.
SI sections are not indexed - citations you put there will not count into any citation statistics
But we need these citations in order to attract the funding resources that allow us to do what we are doing

Therefore, if you are a happy ORCA user, please consider citing a few of the papers listed below in the main body of your paper

In addition to the list printed below, the program has created the file orca.bibtex that contains the list in bibtex format
You can import this file easily into all common literature databanks and citation aid programs


List of essential papers. We consider these as the minimum necessary citations

  1. Neese,F.
     Software update: the ORCA program system, version 5.0
     WIRES Comput. Molec. Sci., 2022 12(1)e1606
     doi.org/10.1002/wcms.1606

List of papers to cite with high priority. The work reported in these papers was absolutely
necessary for this run to complete.
Our perspective: the developers of density functionals and basis sets usually get cited in chemistry papers
Good! But without the algorithms to do something with them, the functionals or basis sets would not do anything.
Hence, in our opinion, the algorithm design and method developments papers are equally worthy of getting cited

  1. Neese,F.; Olbrich,G.
     Efficient use of the resolution of the identity approximation in time-dependent density functional calculations with hybrid density functionals
     Chem. Phys. Lett., 2002 362 170-178
     doi.org/10.1016/s0009-2614(02)01053-9
  2. Neese,F.
     An improvement of the resolution of the identity approximation for the formation of the Coulomb matrix
     J. Comp. Chem., 2003 24(14)1740-1747
     doi.org/10.1002/jcc.10318
  3. Neese,F.; Wennmohs,F.; Hansen,A.; Becker,U.
     Efficient, approximate and parallel Hartree-Fock and hybrid DFT calculations. A 'chain-of-spheres' algorithm for the Hartree-Fock exchange
     Chem. Phys., 2009 356(1-3)98-109
     doi.org/10.1016/j.chemphys.2008.10.036
  4. Petrenko,T.; Kossmann,S.; Neese,F.
     Efficient time-dependent density functional theory approximations for hybrid density functionals: Analytical gradients and parallelization
     J. Chem. Phys., 2011 134 054116
     doi.org/10.1063/1.3533441
  5. Helmich-Paris,B.; de Souza,B.; Neese,F.; Izsák,R.
     An improved chain of spheres for exchange algorithm
     J. Chem. Phys., 2021 155 104109
     doi.org/doi: 10.1063/5.0058766.
  6. Neese,F.
     The SHARK Integral Generation and Digestion System
     J. Comp. Chem., 2022  1-16
     doi.org/10.1002/jcc.26942
  7. Lehtola,S.; Steigemann,C.; Oliveira,M.; Marques,M.
     Recent developments in Libxc - A comprehensive library of functionals for density functional theory
     Software X, 2018 7 
     doi.org/10.1016/j.softx.2017.11.002
  8. Grimme,S.; Antony,J.; Ehrlich,S.; Krieg,H.
     A consistent and accurate ab initio parametrization of density functional dispersion correction (DFT-D) for the 94 elements H-Pu
     J. Chem. Phys., 2010 132 154104-XXXX
     doi.org/10.1063/1.3382344
  9. Grimme,S.; Ehrlich,S.; Goerigk,L.
     Effect of the damping function in dispersion corrected density functional theory
     J. Comput. Chem., 2011 32(7)1456-1465
     doi.org/10.1002/jcc.21759

List of suggested additional citations. These are papers that are important in the 'surrounding' of 
of this run, or papers that preceded the highly important papers. If you like your results we are grateful for a citation.

  1. Izsak,R.; Neese,F.
     An overlap fitted chain of spheres exchange method
     J. Chem. Phys., 2011 135 144105
     doi.org/10.1063/1.3646921
  2. Izsak,R.; Hansen,A.; Neese,F.
     The resolution of identity and chain of spheres approximations for the LPNO-CCSD singles Fock term
     Molec. Phys., 2012 110 2413-2417
     doi.org/10.1080/00268976.2012.687466
  3. Neese,F.
     The ORCA program system
     WIRES Comput. Molec. Sci., 2012 2(1)73-78
     doi.org/10.1002/wcms.81
  4. Izsak,R.; Neese,F.; Klopper,W.
     Robust fitting techniques in the chain of spheres approximation to the Fock exchange: The role of the complementary space
     J. Chem. Phys., 2013 139 
     doi.org/10.1063/1.4819264
  5. Neese,F.
     Software update: the ORCA program system, version 4.0
     WIRES Comput. Molec. Sci., 2018 8(1)1-6
     doi.org/10.1002/wcms.1327
  6. Neese,F.; Wennmohs,F.; Becker,U.; Riplinger,C.
     The ORCA quantum chemistry program package
     J. Chem. Phys., 2020 152 Art. No. L224108
     doi.org/10.1063/5.0004608

List of optional additional citations

  1. Neese,F.
     Approximate second-order SCF convergence for spin unrestricted wavefunctions
     Chem. Phys. Lett., 2000 325(1-3)93-98
     doi.org/10.1016/s0009-2614(00)00662-x

Timings for individual modules:

Sum of individual times          ...      305.872 sec (=   5.098 min)
Startup calculation              ...        6.349 sec (=   0.106 min)   2.1 %
SCF iterations                   ...      123.250 sec (=   2.054 min)  40.3 %
Property integrals               ...        4.402 sec (=   0.073 min)   1.4 %
Property calculations            ...        2.952 sec (=   0.049 min)   1.0 %
CIS module                       ...      168.919 sec (=   2.815 min)  55.2 %
                             ****ORCA TERMINATED NORMALLY****
TOTAL RUN TIME: 0 days 0 hours 5 minutes 8 seconds 6 msec
