7
Properties=species:S:1:pos:R:3:momenta:R:3:forces:R:3 Coordinates=T from=T ORCA-job=T orca=T E=T -153.930674962412=T energy=-4183.976283939818 free_energy=-4183.976283939818 stress="-2.2673680200693827e-06 -3.3827298768824827e-06 1.3455625430711902e-06 -3.3827298768824827e-06 -1.9562656758723987e-05 -3.331897816680632e-06 1.3455625430711902e-06 -3.331897816680632e-06 -1.660972439962781e-06" pbc="F F F"
O        0.70713198       1.35728732       0.07306435       0.25857239       1.41314643       0.48038914       0.36462721       4.51668946       1.44440311
C        0.55509930       0.18586305      -0.25364947       0.10555287      -1.16681489      -0.47846399       0.10620937      -4.52996917      -1.89286659
C       -0.45068502      -0.80885567       0.22552738      -0.09137336      -0.14762834       0.10235199      -0.50740874      -0.33436767      -0.49614647
H        0.07711289      -1.65917619       0.64250903      -0.03789640      -0.06145770       0.02378098      -0.09696382      -0.25722676       0.25655468
H        1.23435616      -0.23025271      -1.01266345      -0.04028326       0.03117290      -0.01495929       0.11489689       0.36377866       0.05311440
H       -1.03251260      -1.17288865      -0.64324899      -0.12141086      -0.06424068      -0.01672552       0.07500587       0.07564877       0.43969163
H       -1.13165147      -0.39654596       0.95272897      -0.07316137      -0.00417772      -0.09637330      -0.05636679       0.16544671       0.19524924
