7
Properties=species:S:1:pos:R:3:momenta:R:3:forces:R:3 Coordinates=T from=T ORCA-job=T orca=T E=T -153.773453807806=T energy=-4183.758447383106 free_energy=-4183.758447383106 stress="-6.758933660656517e-06 -5.4594259206014796e-06 1.107381232449317e-06 -5.4594259206014796e-06 -1.0080312280834723e-05 -4.702734966857626e-06 1.107381232449317e-06 -4.702734966857626e-06 -2.900976652398324e-06" pbc="F F F"
O        0.55767619       1.10696917       0.27675883       0.19927686       0.82884171      -0.14364779       0.56442917       1.38582394       0.58398534
C        0.58294946      -0.21953779       0.01520749       0.22261424      -0.91557872      -0.31955123       0.21165508      -0.56893633      -0.10991872
C       -0.77350495      -0.73701747       0.02074626      -0.77684806      -0.39535141       0.22916693      -0.77472419      -0.34106703       0.30427839
H        1.24766662      -0.73818046       0.74647593       0.15519594       0.39855304       0.06623134      -0.07521141       0.28809303      -0.14419132
H        1.08780310      -0.35322341      -0.93846145       0.18567198       0.14232716       0.03241105       0.26995185      -0.34540556      -0.37065864
H       -1.19659652      -1.29803259      -0.77689403      -0.04259967      -0.10024670       0.10302411      -0.04546585      -0.29949779      -0.28633378
H       -1.42514650      -0.31988453       0.76999638       0.05668871       0.04145491       0.03236560      -0.15063464      -0.11901026       0.02283873
