
                                 *****************
                                 * O   R   C   A *
                                 *****************

                                            #,                                       
                                            ###                                      
                                            ####                                     
                                            #####                                    
                                            ######                                   
                                           ########,                                 
                                     ,,################,,,,,                         
                               ,,#################################,,                 
                          ,,##########################################,,             
                       ,#########################################, ''#####,          
                    ,#############################################,,   '####,        
                  ,##################################################,,,,####,       
                ,###########''''           ''''###############################       
              ,#####''   ,,,,##########,,,,          '''####'''          '####       
            ,##' ,,,,###########################,,,                        '##       
           ' ,,###''''                  '''############,,,                           
         ,,##''                                '''############,,,,        ,,,,,,###''
      ,#''                                            '''#######################'''  
     '                                                          ''''####''''         
             ,#######,   #######,   ,#######,      ##                                
            ,#'     '#,  ##    ##  ,#'     '#,    #''#        ,####,   ,####,        
            ##       ##  ##   ,#'  ##            #'  '#       #'       #'  '#        
            ##       ##  #######   ##           ,######,      #####,   #    #        
            '#,     ,#'  ##    ##  '#,     ,#' ,#      #,     #,   #   #,  ,#        
             '#######'   ##     ##  '#######'  #'      '#     '####' # '####'        



                #########################################################
                #                        -***-                          #
                #          Department of theory and spectroscopy        #
                #                                                       #
                #                      Frank Neese                      #
                #                                                       #
                #     Directorship, Architecture, Infrastructure        #
                #                    SHARK, DRIVERS                     #
                #        Core code/Algorithms in most modules           #
                #                                                       #
                #        Max Planck Institute fuer Kohlenforschung      #
                #                Kaiser Wilhelm Platz 1                 #
                #                 D-45470 Muelheim/Ruhr                 #
                #                      Germany                          #
                #                                                       #
                #                  All rights reserved                  #
                #                        -***-                          #
                #########################################################


                         Program Version 6.0.0  -   RELEASE  -


 With contributions from (in alphabetic order):
   Daniel Aravena         : Magnetic Suceptibility
   Michael Atanasov       : Ab Initio Ligand Field Theory (pilot matlab implementation)
   Alexander A. Auer      : GIAO ZORA, VPT2 properties, NMR spectrum
   Ute Becker             : All parallelization in ORCA, NUMFREQ, NUMCALC
   Giovanni Bistoni       : ED, misc. LED, open-shell LED, HFLD
   Martin Brehm           : Molecular dynamics
   Dmytro Bykov           : pre 5.0 version of the SCF Hessian
   Marcos Casanova-Páez   : Triplet and SCS-CIS(D). UHF-(DLPNO)-IP/EA/STEOM-CCSD. UHF-CVS-IP/STEOM-CCSD
   Vijay G. Chilkuri      : MRCI spin determinant printing, contributions to CSF-ICE
   Pauline Colinet        : FMM embedding
   Dipayan Datta          : RHF DLPNO-CCSD density
   Achintya Kumar Dutta   : EOM-CC, STEOM-CC
   Nicolas Foglia         : Exact transition moments, OPA infrastructure, MCD improvements
   Dmitry Ganyushin       : Spin-Orbit,Spin-Spin,Magnetic field MRCI
   Miquel Garcia          : C-PCM and meta-GGA Hessian, CCSD/C-PCM, Gaussian charge scheme
   Tiago L. C. Gouveia    : GS-ROHF, GS-ROCIS
   Yang Guo               : DLPNO-NEVPT2, F12-NEVPT2, CIM, IAO-localization
   Andreas Hansen         : Spin unrestricted coupled pair/coupled cluster methods
   Ingolf Harden          : AUTO-CI MPn and infrastructure 
   Benjamin Helmich-Paris : MC-RPA, TRAH-(SCF,CASSCF), AVAS, COSX integrals, SCF dyn. polar.
   Lee Huntington         : MR-EOM, pCC
   Robert Izsak           : Overlap fitted RIJCOSX, COSX-SCS-MP3, EOM
   Riya Kayal             : Wick's Theorem for AUTO-CI, AUTO-CI UHF-CCSDT
   Emily Kempfer          : AUTO-CI, RHF CISDT and CCSDT
   Christian Kollmar      : KDIIS, OOCD, Brueckner-CCSD(T), CCSD density, CASPT2, CASPT2-K, improved NEVPT2
   Axel Koslowski         : Symmetry handling
   Simone Kossmann        : Meta GGA functionals, TD-DFT gradient, OOMP2, (MP2 Hessian; deprecated post 5.0)
   Lucas Lang             : DCDCAS
   Marvin Lechner         : AUTO-CI (C++ implementation), FIC-MRCC
   Spencer Leger          : CASSCF response
   Dagmar Lenk            : GEPOL surface, SMD, ORCA-2-JSON
   Dimitrios Liakos       : Extrapolation schemes; Compound Job, initial MDCI parallelization
   Dimitrios Manganas     : Further ROCIS development; embedding schemes. LFT, Crystal Embedding
   Dimitrios Pantazis     : SARC Basis sets
   Anastasios Papadopoulos: AUTO-CI, single reference methods and gradients
   Taras Petrenko         : pre 6.0 DFT Hessian and TD-DFT gradient, (ASA, deprecated), ECA, 1-Electron XAS/XES, NRVS
   Peter Pinski           : DLPNO-MP2, DLPNO-MP2 Gradient
   Christoph Reimann      : Effective Core Potentials
   Marius Retegan         : Local ZFS, SOC
   Christoph Riplinger    : Optimizer, TS searches, QM/MM, DLPNO-CCSD(T), (RO)-DLPNO pert. Triples
   Michael Roemelt        : Original ROCIS implementation
   Masaaki Saitow         : Open-shell DLPNO-CCSD energy and density
   Barbara Sandhoefer     : DKH picture change effects
   Kantharuban Sivalingam : CASSCF convergence/infrastructure, NEVPT2 and variants, FIC-MRCI
   Bernardo de Souza      : ESD, SOC TD-DFT
   Georgi Stoychev        : AutoAux, RI-MP2 NMR, DLPNO-MP2 response, X2C
   Van Anh Tran           : RI-MP2 g-tensors
   Willem Van den Heuvel  : Paramagnetic NMR
   Zikuan Wang            : NOTCH, Electric field optimization 
   Frank Wennmohs         : Technical directorship and infrastructure
   Hang Xu                : AUTO-CI-Response properties 


 We gratefully acknowledge several colleagues who have allowed us to
 interface, adapt or use parts of their codes:
   Stefan Grimme, W. Hujo, H. Kruse, P. Pracht,  : VdW corrections, initial TS optimization,
                  C. Bannwarth, S. Ehlert,         DFT functionals, gCP, sTDA/sTD-DF
                  L. Wittmann, M. Mueller
   Ed Valeev, F. Pavosevic, A. Kumar             : LibInt (2-el integral package), F12 methods
   Garnet Chan, S. Sharma, J. Yang, R. Olivares  : DMRG
   Ulf Ekstrom                                   : XCFun DFT Library
   Mihaly Kallay                                 : mrcc  (arbitrary order and MRCC methods)
   Frank Weinhold                                : gennbo (NPA and NBO analysis)
   Simon Mueller                                 : openCOSMO-RS
   Christopher J. Cramer and Donald G. Truhlar   : smd solvation model
   Lars Goerigk                                  : TD-DFT with DH, B97 family of functionals
   V. Asgeirsson, H. Jonsson                     : NEB implementation
   FAccTs GmbH                                   : IRC, NEB, NEB-TS, DLPNO-Multilevel, CI-OPT
                                                   MM, QMMM, 2- and 3-layer-ONIOM, Crystal-QMMM,
                                                   LR-CPCM, SF, NACMEs, symmetry and pop. for TD-DFT,
                                                   nearIR, NL-DFT gradient (VV10), updates on ESD,
                                                   ML-optimized integration grids, MBIS, APM,
                                                   GOAT, DOCKER, SOLVATOR, interface openCOSMO-RS
   S Lehtola, MJT Oliveira, MAL Marques          : LibXC Library
   Liviu Ungur et al                             : ANISO software


 Your calculation uses the libint2 library for the computation of 2-el integrals
 For citations please refer to: http://libint.valeyev.net

 Your ORCA version has been built with support for libXC version: 6.2.2
 For citations please refer to: https://libxc.gitlab.io

 This ORCA versions uses:
   CBLAS   interface :  Fast vector & matrix operations
   LAPACKE interface :  Fast linear algebra routines
   SCALAPACK package :  Parallel linear algebra routines
   Shared memory     :  Shared parallel matrices
   BLAS/LAPACK       :  OpenBLAS 0.3.27  USE64BITINT DYNAMIC_ARCH NO_AFFINITY Zen SINGLE_THREADED
        Core in use  :  Zen
   Copyright (c) 2011-2014, The OpenBLAS Project


Your calculation utilizes the atom-pairwise dispersion correction
with the Becke-Johnson damping scheme (D3BJ)


Warning: RI is on but no J-basis has been assigned. Assigning Def2/J (nothing to worry about!)
================================================================================

----- Orbital basis set information -----
Your calculation utilizes the basis: def2-TZVPPD
   F. Weigend and R. Ahlrichs, Phys. Chem. Chem. Phys. 7, 3297 (2005).
   D. Rappoport and F. Furche, J. Chem. Phys. 133, 134105 (2010)
   D. Rappoport, J. Chem. Phys. 155, 124102 (2021).

----- AuxJ basis set information -----
Your calculation utilizes the auxiliary basis: def2/J
   F. Weigend, Phys. Chem. Chem. Phys. 8, 1057 (2006).

================================================================================
                                        WARNINGS
                       Please study these warnings very carefully!
================================================================================

Using LibXC functional ID 531 : wB97M-V exchange-correlation functional
[ 1]  N. Mardirossian and M. Head-Gordon.,  J. Chem. Phys. 144, 214110 (2016)
Using LibXC functional ID 531 : wB97M-V exchange-correlation functional
[ 1]  N. Mardirossian and M. Head-Gordon.,  J. Chem. Phys. 144, 214110 (2016)

WARNING: B97M-V or wB97M-V functional requested.
  ===> : libXC variant has now been activated.
         Any manually given DFX/HFX/RangeSep scaling parameters are IGNORED!

Your calculation utilizes LibXC
 by S Lehtola, C Steigemann, MJT Oliveira & MAL Marques
Please cite in your paper:
 S Lehtola, C Steigemann, MJT Oliveira & MAL Marques, SoftwareX, 7, (2018), 1.
   


WARNING: your system is open-shell and RHF/RKS was chosen
  ===> : WILL SWITCH to UHF/UKS

INFO   : Checking CIS options ...

WARNING: CIS/ROCIS methods need fully converged wavefunctions
  ===> : Setting SCFConvForced true
         You can overwrite this default with %scf ConvForced false 


================================================================================
                                       INPUT FILE
================================================================================
NAME = orca.inp
|  1> ! Engrad def2-TZVPPD wB97M-D3BJ 
|  2> %pal nprocs 8 end%pal nprocs 32 end 
|  3> %tddft Nroots 2 Iroot 1 
|  4> sf true 
|  5> end 
|  6> *xyz 0 3 
|  7> O   0.50785223 1.41372946 0.11848055
|  8> C   0.58190788 0.191745 -0.29284583
|  9> C   -0.44539241 -0.93388573 0.15995289
| 10> H   0.12559789 -1.74517387 0.65945107
| 11> H   1.43420959 -0.10734813 -0.88319928
| 12> H   -1.04600486 -1.37693831 -0.66759978
| 13> H   -1.08206774 -0.39854304 0.8595126
| 14> *
| 15> 
| 16>                          ****END OF INPUT****
================================================================================

                     *******************************
                     * Energy+Gradient Calculation *
                     *******************************

---------------------------------
CARTESIAN COORDINATES (ANGSTROEM)
---------------------------------
  O      0.507852    1.413729    0.118481
  C      0.581908    0.191745   -0.292846
  C     -0.445392   -0.933886    0.159953
  H      0.125598   -1.745174    0.659451
  H      1.434210   -0.107348   -0.883199
  H     -1.046005   -1.376938   -0.667600
  H     -1.082068   -0.398543    0.859513

----------------------------
CARTESIAN COORDINATES (A.U.)
----------------------------
  NO LB      ZA    FRAG     MASS         X           Y           Z
   0 O     8.0000    0    15.999    0.959702    2.671562    0.223896
   1 C     6.0000    0    12.011    1.099647    0.362346   -0.553398
   2 C     6.0000    0    12.011   -0.841670   -1.764788    0.302267
   3 H     1.0000    0     1.008    0.237346   -3.297901    1.246182
   4 H     1.0000    0     1.008    2.710263   -0.202859   -1.669005
   5 H     1.0000    0     1.008   -1.976663   -2.602036   -1.261581
   6 H     1.0000    0     1.008   -2.044812   -0.753137    1.624243

--------------------------------
INTERNAL COORDINATES (ANGSTROEM)
--------------------------------
 O      0   0   0     0.000000000000     0.00000000     0.00000000
 C      1   0   0     1.291479636178     0.00000000     0.00000000
 C      2   1   0     1.589785239266   122.83174101     0.00000000
 H      3   2   1     1.110728049804   108.24364117   239.28350942
 H      2   1   3     1.079070016824   118.80292810   186.76811741
 H      3   2   1     1.114394151709   114.72474432   117.71981087
 H      3   2   1     1.086890546202   102.30401493   357.46032234

---------------------------
INTERNAL COORDINATES (A.U.)
---------------------------
 O      0   0   0     0.000000000000     0.00000000     0.00000000
 C      1   0   0     2.440542819913     0.00000000     0.00000000
 C      2   1   0     3.004258713963   122.83174101     0.00000000
 H      3   2   1     2.098971823395   108.24364117   239.28350942
 H      2   1   3     2.039146811124   118.80292810   186.76811741
 H      3   2   1     2.105899751974   114.72474432   117.71981087
 H      3   2   1     2.053925469869   102.30401493   357.46032234

---------------------
BASIS SET INFORMATION
---------------------
There are 3 groups of distinct atoms

 Group   1 Type O   : 12s7p3d1f contracted to 6s4p3d1f pattern {621111/4111/111/1}
 Group   2 Type C   : 12s6p3d1f contracted to 6s3p3d1f pattern {621111/411/111/1}
 Group   3 Type H   : 5s3p1d contracted to 3s3p1d pattern {311/111/1}

Atom   0O    basis set group =>   1
Atom   1C    basis set group =>   2
Atom   2C    basis set group =>   2
Atom   3H    basis set group =>   3
Atom   4H    basis set group =>   3
Atom   5H    basis set group =>   3
Atom   6H    basis set group =>   3
---------------------------------
AUXILIARY/J BASIS SET INFORMATION
---------------------------------
There are 3 groups of distinct atoms

 Group   1 Type O   : 12s5p4d2f1g contracted to 6s4p3d1f1g pattern {711111/2111/211/2/1}
 Group   2 Type C   : 12s5p4d2f1g contracted to 6s4p3d1f1g pattern {711111/2111/211/2/1}
 Group   3 Type H   : 5s2p1d contracted to 3s1p1d pattern {311/2/1}

Atom   0O    basis set group =>   1
Atom   1C    basis set group =>   2
Atom   2C    basis set group =>   2
Atom   3H    basis set group =>   3
Atom   4H    basis set group =>   3
Atom   5H    basis set group =>   3
Atom   6H    basis set group =>   3
[1741042180.646498] [ohm:251930:0]        ib_iface.c:1059 UCX  ERROR ibv_create_cq(cqe=256) failed: Connection timed out
[1741042180.646485] [ohm:251924:0]        ib_iface.c:1059 UCX  ERROR ibv_create_cq(cqe=256) failed: Connection timed out
[1741042180.646529] [ohm:251920:0]        ib_iface.c:1059 UCX  ERROR ibv_create_cq(cqe=256) failed: Connection timed out
[1741042180.647651] [ohm:251929:0]        ib_iface.c:1059 UCX  ERROR ibv_create_cq(cqe=256) failed: Connection timed out
[1741042180.647647] [ohm:251923:0]        ib_iface.c:1059 UCX  ERROR ibv_create_cq(cqe=256) failed: Connection timed out
[1741042180.647647] [ohm:251926:0]        ib_iface.c:1059 UCX  ERROR ibv_create_cq(cqe=256) failed: Connection timed out
[1741042180.649015] [ohm:251921:0]        ib_iface.c:1059 UCX  ERROR ibv_create_cq(cqe=256) failed: Connection timed out
[1741042180.680956] [ohm:251938:0]        ib_iface.c:1059 UCX  ERROR ibv_create_cq(cqe=256) failed: Connection timed out
[1741042180.687614] [ohm:251934:0]        ib_iface.c:1059 UCX  ERROR ibv_create_cq(cqe=256) failed: Connection timed out
[1741042180.726279] [ohm:251937:0]        ib_iface.c:1059 UCX  ERROR ibv_create_cq(cqe=256) failed: Connection timed out
[1741042180.727632] [ohm:251968:0]        ib_iface.c:1059 UCX  ERROR ibv_create_cq(cqe=256) failed: Connection timed out
[1741042180.727632] [ohm:251933:0]        ib_iface.c:1059 UCX  ERROR ibv_create_cq(cqe=256) failed: Connection timed out
[1741042180.727623] [ohm:251956:0]        ib_iface.c:1059 UCX  ERROR ibv_create_cq(cqe=256) failed: Connection timed out
[1741042180.727623] [ohm:251963:0]        ib_iface.c:1059 UCX  ERROR ibv_create_cq(cqe=256) failed: Connection timed out
[1741042180.727631] [ohm:251944:0]        ib_iface.c:1059 UCX  ERROR ibv_create_cq(cqe=256) failed: Connection timed out
[1741042180.734500] [ohm:251942:0]        ib_iface.c:1059 UCX  ERROR ibv_create_cq(cqe=256) failed: Connection timed out
[1741042180.737488] [ohm:251928:0]        ib_iface.c:1059 UCX  ERROR ibv_create_cq(cqe=256) failed: Connection timed out
[1741042180.737488] [ohm:251940:0]        ib_iface.c:1059 UCX  ERROR ibv_create_cq(cqe=256) failed: Connection timed out
[1741042180.737598] [ohm:251932:0]        ib_iface.c:1059 UCX  ERROR ibv_create_cq(cqe=256) failed: Connection timed out
[1741042180.738209] [ohm:251941:0]        ib_iface.c:1059 UCX  ERROR ibv_create_cq(cqe=256) failed: Connection timed out
[1741042180.738351] [ohm:251952:0]        ib_iface.c:1059 UCX  ERROR ibv_create_cq(cqe=256) failed: Connection timed out
[1741042180.737945] [ohm:251919:0]        ib_iface.c:1059 UCX  ERROR ibv_create_cq(cqe=256) failed: Connection timed out
[1741042180.739194] [ohm:251925:0]        ib_iface.c:1059 UCX  ERROR ibv_create_cq(cqe=256) failed: Connection timed out
[1741042180.739453] [ohm:251927:0]        ib_iface.c:1059 UCX  ERROR ibv_create_cq(cqe=256) failed: Connection timed out
[1741042180.741219] [ohm:251967:0]        ib_iface.c:1059 UCX  ERROR ibv_create_cq(cqe=256) failed: Connection timed out
[1741042180.741219] [ohm:251949:0]        ib_iface.c:1059 UCX  ERROR ibv_create_cq(cqe=256) failed: Connection timed out
[1741042180.741261] [ohm:251922:0]        ib_iface.c:1059 UCX  ERROR ibv_create_cq(cqe=256) failed: Connection timed out
[1741042180.741718] [ohm:251935:0]        ib_iface.c:1059 UCX  ERROR ibv_create_cq(cqe=256) failed: Connection timed out
[1741042180.741376] [ohm:251972:0]        ib_iface.c:1059 UCX  ERROR ibv_create_cq(cqe=256) failed: Connection timed out
[1741042180.741538] [ohm:251931:0]        ib_iface.c:1059 UCX  ERROR ibv_create_cq(cqe=256) failed: Connection timed out
[1741042180.741423] [ohm:251936:0]        ib_iface.c:1059 UCX  ERROR ibv_create_cq(cqe=256) failed: Connection timed out
[1741042180.741367] [ohm:251962:0]        ib_iface.c:1059 UCX  ERROR ibv_create_cq(cqe=256) failed: Connection timed out


           ************************************************************
           *        Program running with 32 parallel MPI-processes    *
           *              working on a common directory               *
           ************************************************************
------------------------------------------------------------------------------
                             ORCA STARTUP CALCULATIONS
                           -- RI-GTO INTEGRALS CHOSEN --
------------------------------------------------------------------------------
------------------------------------------------------------------------------
                   ___                                                        
                  /   \      - P O W E R E D   B Y -                         
                 /     \                                                     
                 |  |  |   _    _      __       _____    __    __             
                 |  |  |  | |  | |    /  \     |  _  \  |  |  /  |          
                  \  \/   | |  | |   /    \    | | | |  |  | /  /          
                 / \  \   | |__| |  /  /\  \   | |_| |  |  |/  /          
                |  |  |   |  __  | /  /__\  \  |    /   |      \           
                |  |  |   | |  | | |   __   |  |    \   |  |\   \          
                \     /   | |  | | |  |  |  |  | |\  \  |  | \   \       
                 \___/    |_|  |_| |__|  |__|  |_| \__\ |__|  \__/        
                                                                              
                      - O R C A' S   B I G   F R I E N D -                    
                                      &                                       
                       - I N T E G R A L  F E E D E R -                       
                                                                              
 v1 FN, 2020, v2 2021, v3 2022-2024                                           
------------------------------------------------------------------------------


----------------------
SHARK INTEGRAL PACKAGE
----------------------

Number of atoms                             ...      7
Number of basis functions                   ...    182
Number of shells                            ...     68
Maximum angular momentum                    ...      3
Integral batch strategy                     ... SHARK/LIBINT Hybrid
RI-J (if used) integral strategy            ... SPLIT-RIJ (Revised 2003 algorithm where possible)
Printlevel                                  ...      1
Contraction scheme used                     ... SEGMENTED contraction
Prescreening option                         ... SCHWARTZ
   Thresh                                   ... 2.500e-11
   Tcut                                     ... 2.500e-12
   Tpresel                                  ... 2.500e-12 
Coulomb Range Separation                    ... NOT USED
Exchange Range Separation                   ... Long Range
   Mu parameter                             ... 3.000e-01
   Scaling (regular/separated)              ... 1.500e-01 8.500e-01
Multipole approximations                    ... NOT USED
Finite Nucleus Model                        ... NOT USED
CABS basis                                  ... NOT available
Auxiliary Coulomb fitting basis             ... AVAILABLE
   # of basis functions in Aux-J            ...    191
   # of shells in Aux-J                     ...     65
   Maximum angular momentum in Aux-J        ...      4
Auxiliary J/K fitting basis                 ... NOT available
Auxiliary Correlation fitting basis         ... NOT available
Auxiliary 'external' fitting basis          ... NOT available

Checking pre-screening integrals            ... done (  0.0 sec) Dimension = 68
Check shell pair data                       ... done (  0.0 sec)
Shell pair information
Shell pair cut-off parameter TPreSel        ...   2.5e-12
Total number of shell pairs                 ...      2346
Shell pairs after pre-screening             ...      2322
Total number of primitive shell pairs       ...      5434
Primitive shell pairs kept                  ...      4792
          la=0 lb=0:    455 shell pairs
          la=1 lb=0:    654 shell pairs
          la=1 lb=1:    253 shell pairs
          la=2 lb=0:    384 shell pairs
          la=2 lb=1:    284 shell pairs
          la=2 lb=2:     91 shell pairs
          la=3 lb=0:     90 shell pairs
          la=3 lb=1:     66 shell pairs
          la=3 lb=2:     39 shell pairs
          la=3 lb=3:      6 shell pairs

Calculating one electron integrals          ... done (  0.0 sec)
Calculating RI/J V-Matrix + Cholesky decomp.... done (  0.0 sec)
Calculating Nuclear repulsion               ... done (  0.0 sec) ENN=     66.743717684533 Eh

Diagonalization of the overlap matrix:
Smallest eigenvalue                        ... 2.006e-05
Time for diagonalization                   ...    0.003 sec
Threshold for overlap eigenvalues          ... 1.000e-07
Number of eigenvalues below threshold      ... 0
Time for construction of square roots      ...    0.003 sec
Total time needed                          ...    0.007 sec

-------------------
DFT GRID GENERATION
-------------------

General Integration Accuracy     IntAcc      ... 4.388
Radial Grid Type                 RadialGrid  ... OptM3 with GC (2021)
Angular Grid (max. ang.)         AngularGrid ... 4 (Lebedev-302)
Angular grid pruning method      GridPruning ... 4 (adaptive)
Weight generation scheme         WeightScheme... mBecke (2022)
Basis function cutoff            BFCut       ... 1.0000e-11
Integration weight cutoff        WCut        ... 1.0000e-14
Partially contracted basis set               ... off
Rotationally invariant grid construction     ... off
Angular grids for H and He will be reduced by one unit
Diffuse basis detected: some atoms will have their outermost
                        angular grid increased by 1.

Total number of grid points                  ...    33186
Total number of batches                      ...      521
Average number of points per batch           ...       63
Average number of grid points per atom       ...     4741

--------------------
COSX GRID GENERATION
--------------------

GRIDX 1
-------
General Integration Accuracy     IntAcc      ... 3.816
Radial Grid Type                 RadialGrid  ... OptM3 with GC (2021)
Angular Grid (max. ang.)         AngularGrid ... 1 (Lebedev-50)
Angular grid pruning method      GridPruning ... 4 (adaptive)
Weight generation scheme         WeightScheme... mBecke (2022)
Basis function cutoff            BFCut       ... 1.0000e-11
Integration weight cutoff        WCut        ... 1.0000e-14
Partially contracted basis set               ... on
Rotationally invariant grid construction     ... off
Angular grids for H and He will be reduced by one unit
Diffuse basis detected: some atoms will have their outermost
                        angular grid increased by 1.

Total number of grid points                  ...     4172
Total number of batches                      ...       36
Average number of points per batch           ...      115
Average number of grid points per atom       ...      596
UseSFitting                                  ... on

GRIDX 2
-------
General Integration Accuracy     IntAcc      ... 4.020
Radial Grid Type                 RadialGrid  ... OptM3 with GC (2021)
Angular Grid (max. ang.)         AngularGrid ... 2 (Lebedev-110)
Angular grid pruning method      GridPruning ... 4 (adaptive)
Weight generation scheme         WeightScheme... mBecke (2022)
Basis function cutoff            BFCut       ... 1.0000e-11
Integration weight cutoff        WCut        ... 1.0000e-14
Partially contracted basis set               ... on
Rotationally invariant grid construction     ... off
Angular grids for H and He will be reduced by one unit
Diffuse basis detected: some atoms will have their outermost
                        angular grid increased by 1.

Total number of grid points                  ...    10325
Total number of batches                      ...       85
Average number of points per batch           ...      121
Average number of grid points per atom       ...     1475
UseSFitting                                  ... on

GRIDX 3
-------
General Integration Accuracy     IntAcc      ... 4.338
Radial Grid Type                 RadialGrid  ... OptM3 with GC (2021)
Angular Grid (max. ang.)         AngularGrid ... 3 (Lebedev-194)
Angular grid pruning method      GridPruning ... 4 (adaptive)
Weight generation scheme         WeightScheme... mBecke (2022)
Basis function cutoff            BFCut       ... 1.0000e-11
Integration weight cutoff        WCut        ... 1.0000e-14
Partially contracted basis set               ... on
Rotationally invariant grid construction     ... off
Angular grids for H and He will be reduced by one unit
Diffuse basis detected: some atoms will have their outermost
                        angular grid increased by 1.

Total number of grid points                  ...    23181
Total number of batches                      ...      185
Average number of points per batch           ...      125
Average number of grid points per atom       ...     3312
UseSFitting                                  ... on
Initializing property integral containers    ... done (  0.0 sec)

SHARK setup successfully completed in   0.3 seconds

Maximum memory used throughout the entire STARTUP-calculation: 13.8 MB
[1741042181.890751] [ohm:252105:0]        ib_iface.c:1059 UCX  ERROR ibv_create_cq(cqe=256) failed: Connection timed out
[1741042181.890852] [ohm:252091:0]        ib_iface.c:1059 UCX  ERROR ibv_create_cq(cqe=256) failed: Connection timed out
[1741042181.891209] [ohm:252100:0]        ib_iface.c:1059 UCX  ERROR ibv_create_cq(cqe=256) failed: Connection timed out
[1741042181.896465] [ohm:252123:0]        ib_iface.c:1059 UCX  ERROR ibv_create_cq(cqe=256) failed: Connection timed out
[1741042181.897862] [ohm:252143:0]        ib_iface.c:1059 UCX  ERROR ibv_create_cq(cqe=256) failed: Connection timed out
[1741042181.901638] [ohm:252098:0]        ib_iface.c:1059 UCX  ERROR ibv_create_cq(cqe=256) failed: Connection timed out
[1741042181.902089] [ohm:252096:0]        ib_iface.c:1059 UCX  ERROR ibv_create_cq(cqe=256) failed: Connection timed out
[1741042181.903478] [ohm:252103:0]        ib_iface.c:1059 UCX  ERROR ibv_create_cq(cqe=256) failed: Connection timed out
[1741042181.905240] [ohm:252099:0]        ib_iface.c:1059 UCX  ERROR ibv_create_cq(cqe=256) failed: Connection timed out
[1741042181.909916] [ohm:252116:0]        ib_iface.c:1059 UCX  ERROR ibv_create_cq(cqe=256) failed: Connection timed out
[1741042181.910552] [ohm:252111:0]        ib_iface.c:1059 UCX  ERROR ibv_create_cq(cqe=256) failed: Connection timed out
[1741042181.911207] [ohm:252095:0]        ib_iface.c:1059 UCX  ERROR ibv_create_cq(cqe=256) failed: Connection timed out
[1741042181.912989] [ohm:252114:0]        ib_iface.c:1059 UCX  ERROR ibv_create_cq(cqe=256) failed: Connection timed out
[1741042181.922882] [ohm:252093:0]        ib_iface.c:1059 UCX  ERROR ibv_create_cq(cqe=256) failed: Connection timed out
[1741042181.926550] [ohm:252135:0]        ib_iface.c:1059 UCX  ERROR ibv_create_cq(cqe=256) failed: Connection timed out
[1741042181.931942] [ohm:252092:0]        ib_iface.c:1059 UCX  ERROR ibv_create_cq(cqe=256) failed: Connection timed out
[1741042181.931985] [ohm:252113:0]        ib_iface.c:1059 UCX  ERROR ibv_create_cq(cqe=256) failed: Connection timed out
[1741042181.935266] [ohm:252129:0]        ib_iface.c:1059 UCX  ERROR ibv_create_cq(cqe=256) failed: Connection timed out
[1741042181.935740] [ohm:252109:0]        ib_iface.c:1059 UCX  ERROR ibv_create_cq(cqe=256) failed: Connection timed out
[1741042181.936208] [ohm:252106:0]        ib_iface.c:1059 UCX  ERROR ibv_create_cq(cqe=256) failed: Connection timed out
[1741042181.935876] [ohm:252121:0]        ib_iface.c:1059 UCX  ERROR ibv_create_cq(cqe=256) failed: Connection timed out
[1741042181.943458] [ohm:252112:0]        ib_iface.c:1059 UCX  ERROR ibv_create_cq(cqe=256) failed: Connection timed out
[1741042181.943762] [ohm:252110:0]        ib_iface.c:1059 UCX  ERROR ibv_create_cq(cqe=256) failed: Connection timed out
[1741042181.944508] [ohm:252101:0]        ib_iface.c:1059 UCX  ERROR ibv_create_cq(cqe=256) failed: Connection timed out
[1741042181.944568] [ohm:252115:0]        ib_iface.c:1059 UCX  ERROR ibv_create_cq(cqe=256) failed: Connection timed out
[1741042181.945892] [ohm:252102:0]        ib_iface.c:1059 UCX  ERROR ibv_create_cq(cqe=256) failed: Connection timed out
[1741042181.945946] [ohm:252108:0]        ib_iface.c:1059 UCX  ERROR ibv_create_cq(cqe=256) failed: Connection timed out
[1741042181.946071] [ohm:252097:0]        ib_iface.c:1059 UCX  ERROR ibv_create_cq(cqe=256) failed: Connection timed out
[1741042181.946108] [ohm:252107:0]        ib_iface.c:1059 UCX  ERROR ibv_create_cq(cqe=256) failed: Connection timed out
[1741042181.946096] [ohm:252119:0]        ib_iface.c:1059 UCX  ERROR ibv_create_cq(cqe=256) failed: Connection timed out
[1741042181.946205] [ohm:252094:0]        ib_iface.c:1059 UCX  ERROR ibv_create_cq(cqe=256) failed: Connection timed out
[1741042181.947495] [ohm:252104:0]        ib_iface.c:1059 UCX  ERROR ibv_create_cq(cqe=256) failed: Connection timed out


           ************************************************************
           *        Program running with 32 parallel MPI-processes    *
           *              working on a common directory               *
           ************************************************************
-------------------------------------------------------------------------------
                                 ORCA GUESS
                   Start orbitals & Density for SCF / CASSCF
-------------------------------------------------------------------------------

------------
SCF SETTINGS
------------
Hamiltonian:
 Density Functional     Method          .... DFT(GTOs)
  Functional kind                       .... Exchange-Correlation
  Functional name                       .... wB97M-V exchange-correlation functional
  Functional family                     .... Hybrid MGGA
  Functional refs                              
    [ 0] N. Mardirossian and M. Head-Gordon.,  J. Chem. Phys. 144, 214110 (2016), doi: 10.1063/1.4952647
  Fraction of HF Exchange (short range) .... 0.1500
  Fraction of HF Exchange (long range)  .... 1.0000
  Range separation parameter mu         .... 0.3000
  Functional external parameters        .... 17
    Parameter  0 _cx00      =  8.500000e-01 : u^00 coefficient for exchange
    Parameter  1 _cx01      =  1.007000e+00 : u^01 coefficient for exchange
    Parameter  2 _cx10      =  2.590000e-01 : u^10 coefficient for exchange
    Parameter  3 _css00     =  4.430000e-01 : u^00 coefficient for same-spin correlation
    Parameter  4 _css04     = -1.437000e+00 : u^04 coefficient for same-spin correlation
    Parameter  5 _css10     = -4.535000e+00 : u^10 coefficient for same-spin correlation
    Parameter  6 _css20     = -3.390000e+00 : u^20 coefficient for same-spin correlation
    Parameter  7 _css43     =  4.278000e+00 : u^43 coefficient for same-spin correlation
    Parameter  8 _cos00     =  1.000000e+00 : u^00 coefficient for opposite-spin correlation
    Parameter  9 _cos10     =  1.358000e+00 : u^10 coefficient for opposite-spin correlation
    Parameter 10 _cos20     =  2.924000e+00 : u^20 coefficient for opposite-spin correlation
    Parameter 11 _cos21     = -8.812000e+00 : u^21 coefficient for opposite-spin correlation
    Parameter 12 _cos60     = -1.390000e+00 : u^60 coefficient for opposite-spin correlation
    Parameter 13 _cos61     =  9.142000e+00 : u^61 coefficient for opposite-spin correlation
    Parameter 14 _alpha     =  1.000000e+00 : fraction of HF exchange
    Parameter 15 _beta      = -8.500000e-01 : fraction of short-range exchange
    Parameter 16 _omega     =  3.000000e-01 : range-separation constant
 Long-range corrected/Screened/Range-Separated Hybrid DFT is turned on
   Amount of maximum screened exact exchange              ....  0.850000
   Range separation parameter mu (erf(mu*r12)/r12)        ....  0.300000
 RI-approximation to the Coulomb term is turned on
   Number of AuxJ basis functions       .... 191
   RIJ-COSX (HFX calculated with COS-X)).... on


General Settings:
 Integral files         IntName         .... orca
 Hartree-Fock type      HFTyp           .... UHF
 Total Charge           Charge          ....    0
 Multiplicity           Mult            ....    3
 Number of Electrons    NEL             ....   24
 Basis Dimension        Dim             ....  182
 Nuclear Repulsion      ENuc            ....     66.7437176845 Eh

Convergence Acceleration:
 AO-DIIS                CNVDIIS         .... on
   Start iteration      DIISMaxIt       ....    12
   Startup error        DIISStart       ....  0.200000
   # of expansion vecs  DIISMaxEq       ....     5
   Bias factor          DIISBfac        ....   1.050
   Max. coefficient     DIISMaxC        ....  10.000
 MO-DIIS                CNVKDIIS        .... off
 Trust-Rad. Augm. Hess. CNVTRAH         .... auto
   Auto Start mean grad. ratio tolernc. ....  1.125000
   Auto Start start iteration           ....    50
   Auto Start num. interpolation iter.  ....    10
   Max. Number of Micro iterations      ....    24
   Max. Number of Macro iterations      .... Maxiter - #DIIS iter
   Number of Davidson start vectors     ....     2
   Converg. threshold    (grad. norm)   ....   1.000e-05
   Grad. Scal. Fac. for Micro threshold ....   0.100
   Minimum threshold for Micro iter.    ....   1.000e-02
   NR start threshold (gradient norm)   ....   1.000e-04
   Initial trust radius                 ....   0.400
   Minimum AH scaling param. (alpha)    ....   1.000
   Maximum AH scaling param. (alpha)    .... 1000.000
   Quad. conv. algorithm                .... NR
   White noise on init. David. guess    .... on
   Maximum white noise                  ....   0.010
   Pseudo random numbers                .... off
   Inactive MOs                         .... canonical
   Orbital update algorithm             .... Taylor
   Preconditioner                       .... Diag
   Full preconditioner red. dimension   ....   250
 SOSCF                  CNVSOSCF        .... on
   Start iteration      SOSCFMaxIt      ....   150
   Startup grad/error   SOSCFStart      ....  0.003300
   Hessian update       SOSCFHessUp     .... L-BFGS
 Level Shifting         CNVShift        .... on
   Level shift para.    LevelShift      ....    0.2500
   Turn off err/grad.   ShiftErr        ....    0.0010
 Zerner damping         CNVZerner       .... off
 Static damping         CNVDamp         .... on
   Fraction old density DampFac         ....    0.7000
   Max. Damping (<1)    DampMax         ....    0.9800
   Min. Damping (>=0)   DampMin         ....    0.0000
   Turn off err/grad.   DampErr         ....    0.1000

SCF Procedure:
 Maximum # iterations   MaxIter         ....   125
 SCF integral mode      SCFMode         .... Direct
   Integral package                     .... SHARK and LIBINT hybrid scheme
 Reset frequency        DirectResetFreq ....    20
 Integral Threshold     Thresh          ....  2.500e-11 Eh
 Primitive CutOff       TCut            ....  2.500e-12 Eh

Convergence Tolerance:
 Convergence Check Mode ConvCheckMode   .... Total+1el-Energy
 Convergence forced     ConvForced      .... 1
 Energy Change          TolE            ....  1.000e-08 Eh
 1-El. energy change                    ....  1.000e-05 Eh
 Orbital Gradient       TolG            ....  1.000e-05
 Orbital Rotation angle TolX            ....  1.000e-05
 DIIS Error             TolErr          ....  5.000e-07

------------------------------
INITIAL GUESS: MODEL POTENTIAL
------------------------------
Loading Hartree-Fock densities                     ... done
Calculating cut-offs                               ... done
Initializing the effective Hamiltonian             ... done
Setting up the integral package (SHARK)            ... done
Starting the Coulomb interaction                   ... done (   0.0 sec)
Making the grid                                    ... done (   0.0 sec)
Mapping shells                                     ... done
Starting the XC term evaluation                    ... done (   0.0 sec)
  promolecular density results
     # of electrons  =     23.997531930
     EX              =    -19.458062978
     EC              =     -0.763311700
     EX+EC           =    -20.221374678
Transforming the Hamiltonian                       ... done (   0.0 sec)
Diagonalizing the Hamiltonian                      ... done (   0.0 sec)
Back transforming the eigenvectors                 ... done (   0.0 sec)
Now organizing SCF variables                       ... done
                      ------------------
                      INITIAL GUESS DONE (   0.1 sec)
                      ------------------
             **** ENERGY FILE WAS UPDATED (orca.en.tmp) ****
Finished Guess after   0.6 sec
Maximum memory used throughout the entire GUESS-calculation: 9.6 MB
[1741042182.865284] [ohm:252283:0]        ib_iface.c:1059 UCX  ERROR ibv_create_cq(cqe=256) failed: Connection timed out
[1741042182.870334] [ohm:252279:0]        ib_iface.c:1059 UCX  ERROR ibv_create_cq(cqe=256) failed: Connection timed out
[1741042182.870365] [ohm:252277:0]        ib_iface.c:1059 UCX  ERROR ibv_create_cq(cqe=256) failed: Connection timed out
[1741042182.883054] [ohm:252259:0]        ib_iface.c:1059 UCX  ERROR ibv_create_cq(cqe=256) failed: Connection timed out
[1741042182.890780] [ohm:252260:0]        ib_iface.c:1059 UCX  ERROR ibv_create_cq(cqe=256) failed: Connection timed out
[1741042182.891756] [ohm:252302:0]        ib_iface.c:1059 UCX  ERROR ibv_create_cq(cqe=256) failed: Connection timed out
[1741042182.892833] [ohm:252280:0]        ib_iface.c:1059 UCX  ERROR ibv_create_cq(cqe=256) failed: Connection timed out
[1741042182.895991] [ohm:252263:0]        ib_iface.c:1059 UCX  ERROR ibv_create_cq(cqe=256) failed: Connection timed out
[1741042182.900362] [ohm:252278:0]        ib_iface.c:1059 UCX  ERROR ibv_create_cq(cqe=256) failed: Connection timed out
[1741042182.902056] [ohm:252295:0]        ib_iface.c:1059 UCX  ERROR ibv_create_cq(cqe=256) failed: Connection timed out
[1741042182.904241] [ohm:252293:0]        ib_iface.c:1059 UCX  ERROR ibv_create_cq(cqe=256) failed: Connection timed out
[1741042182.904789] [ohm:252262:0]        ib_iface.c:1059 UCX  ERROR ibv_create_cq(cqe=256) failed: Connection timed out
[1741042182.905649] [ohm:252300:0]        ib_iface.c:1059 UCX  ERROR ibv_create_cq(cqe=256) failed: Connection timed out
[1741042182.905973] [ohm:252285:0]        ib_iface.c:1059 UCX  ERROR ibv_create_cq(cqe=256) failed: Connection timed out
[1741042182.906509] [ohm:252261:0]        ib_iface.c:1059 UCX  ERROR ibv_create_cq(cqe=256) failed: Connection timed out
[1741042182.908880] [ohm:252276:0]        ib_iface.c:1059 UCX  ERROR ibv_create_cq(cqe=256) failed: Connection timed out
[1741042182.921118] [ohm:252301:0]        ib_iface.c:1059 UCX  ERROR ibv_create_cq(cqe=256) failed: Connection timed out
[1741042182.935467] [ohm:252288:0]        ib_iface.c:1059 UCX  ERROR ibv_create_cq(cqe=256) failed: Connection timed out
[1741042182.935864] [ohm:252318:0]        ib_iface.c:1059 UCX  ERROR ibv_create_cq(cqe=256) failed: Connection timed out
[1741042182.936295] [ohm:252304:0]        ib_iface.c:1059 UCX  ERROR ibv_create_cq(cqe=256) failed: Connection timed out
[1741042182.936298] [ohm:252309:0]        ib_iface.c:1059 UCX  ERROR ibv_create_cq(cqe=256) failed: Connection timed out
[1741042182.936397] [ohm:252314:0]        ib_iface.c:1059 UCX  ERROR ibv_create_cq(cqe=256) failed: Connection timed out
[1741042182.936382] [ohm:252311:0]        ib_iface.c:1059 UCX  ERROR ibv_create_cq(cqe=256) failed: Connection timed out
[1741042182.936989] [ohm:252299:0]        ib_iface.c:1059 UCX  ERROR ibv_create_cq(cqe=256) failed: Connection timed out
[1741042182.937002] [ohm:252303:0]        ib_iface.c:1059 UCX  ERROR ibv_create_cq(cqe=256) failed: Connection timed out
[1741042182.937042] [ohm:252306:0]        ib_iface.c:1059 UCX  ERROR ibv_create_cq(cqe=256) failed: Connection timed out
[1741042182.937064] [ohm:252297:0]        ib_iface.c:1059 UCX  ERROR ibv_create_cq(cqe=256) failed: Connection timed out
[1741042182.937062] [ohm:252305:0]        ib_iface.c:1059 UCX  ERROR ibv_create_cq(cqe=256) failed: Connection timed out
[1741042182.937271] [ohm:252322:0]        ib_iface.c:1059 UCX  ERROR ibv_create_cq(cqe=256) failed: Connection timed out
[1741042182.937797] [ohm:252291:0]        ib_iface.c:1059 UCX  ERROR ibv_create_cq(cqe=256) failed: Connection timed out
[1741042182.938557] [ohm:252296:0]        ib_iface.c:1059 UCX  ERROR ibv_create_cq(cqe=256) failed: Connection timed out
[1741042182.938700] [ohm:252307:0]        ib_iface.c:1059 UCX  ERROR ibv_create_cq(cqe=256) failed: Connection timed out


           ************************************************************
           *        Program running with 32 parallel MPI-processes    *
           *              working on a common directory               *
           ************************************************************

-------------------------------------------------------------------------------------------
                                      ORCA LEAN-SCF
                              memory conserving SCF solver
-------------------------------------------------------------------------------------------

----------------------------------------D-I-I-S--------------------------------------------
Iteration    Energy (Eh)           Delta-E    RMSDP     MaxDP     DIISErr   Damp  Time(sec)
-------------------------------------------------------------------------------------------
               ***  Starting incremental Fock matrix formation  ***
    1    -153.7269193229234929     0.00e+00  8.02e-04  2.66e-02  7.18e-02  0.700   0.3
    2    -153.7504060202438723    -2.35e-02  7.19e-04  2.39e-02  4.35e-02  0.700   0.3
                               ***Turning on AO-DIIS***
    3    -153.7634693527250533    -1.31e-02  5.73e-04  2.11e-02  2.29e-02  0.700   0.2
    4    -153.7715838808845490    -8.11e-03  1.39e-03  4.93e-02  1.84e-02  0.000   0.2
    5    -153.7904493546758715    -1.89e-02  1.21e-04  4.04e-03  6.08e-03  0.000   0.2
    6    -153.7909671859215450    -5.18e-04  8.42e-05  2.48e-03  3.67e-03  0.000   0.2
                              *** Initializing SOSCF ***
---------------------------------------S-O-S-C-F--------------------------------------
Iteration    Energy (Eh)           Delta-E    RMSDP     MaxDP     MaxGrad    Time(sec)
--------------------------------------------------------------------------------------
    7    -153.7912988112985317    -3.32e-04  5.84e-05  1.64e-03  2.79e-03     0.3
               *** Restarting incremental Fock matrix formation ***
    8    -153.7914680305805177    -1.69e-04  3.62e-05  1.18e-03  2.82e-03     0.3
    9    -153.7915177385718266    -4.97e-05  5.87e-05  1.54e-03  1.87e-03     0.2
   10    -153.7915454929119221    -2.78e-05  1.79e-05  7.02e-04  7.99e-04     0.2
   11    -153.7915502216556831    -4.73e-06  7.27e-06  2.38e-04  2.38e-04     0.3
   12    -153.7915508756272800    -6.54e-07  1.92e-06  5.01e-05  5.52e-05     0.2
   13    -153.7915509504265685    -7.48e-08  7.35e-07  2.13e-05  3.28e-05     0.2
   14    -153.7915509649284616    -1.45e-08  5.54e-07  1.68e-05  1.66e-05     0.2
   15    -153.7915509703124997    -5.38e-09  4.73e-07  1.89e-05  1.31e-05     0.2
                 **** Energy Check signals convergence ****

               *****************************************************
               *                     SUCCESS                       *
               *           SCF CONVERGED AFTER  15 CYCLES          *
               *****************************************************

Recomputing exchange energy using gridx3       ... done (    0.240 sec)
Old exchange energy                            :     -6.185050650 Eh
New exchange energy                            :     -6.185053290 Eh
Exchange energy change after final integration :     -0.000002640 Eh
Total energy after final integration           :   -153.791553610 Eh
             **** ENERGY FILE WAS UPDATED (orca.en.tmp) ****

----------------
TOTAL SCF ENERGY
----------------

Total Energy       :       -153.79155360985109 Eh           -4184.88093 eV

Components:
Nuclear Repulsion  :         66.74371768453344 Eh            1816.18889 eV
Electronic Energy  :       -220.53526865484594 Eh           -6001.06975 eV
One Electron Energy:       -339.96529258828883 Eh           -9250.92592 eV
Two Electron Energy:        119.43002393344290 Eh            3249.85617 eV

Virial components:
Potential Energy   :       -306.95757495708665 Eh           -8352.74026 eV
Kinetic Energy     :        153.16602134723556 Eh            4167.85933 eV
Virial Ratio       :          2.00408401456872

DFT components:
N(Alpha)           :       13.000002652364 electrons
N(Beta)            :       10.999996622678 electrons
N(Total)           :       23.999999275042 electrons
E(XC)              :      -14.673981105862 Eh       

---------------
SCF CONVERGENCE
---------------

  Last Energy change         ...    5.3840e-09  Tolerance :   1.0000e-08
  Last MAX-Density change    ...    1.8851e-05  Tolerance :   1.0000e-07
  Last RMS-Density change    ...    4.7328e-07  Tolerance :   5.0000e-09
  Last DIIS Error            ...    2.7852e-03  Tolerance :   5.0000e-07
  Last Orbital Gradient      ...    1.3144e-05  Tolerance :   1.0000e-05
  Last Orbital Rotation      ...    8.6638e-05  Tolerance :   1.0000e-05


----------------------
UHF SPIN CONTAMINATION
----------------------

Warning: in a DFT calculation there is little theoretical justification to 
         calculate <S**2> as in Hartree-Fock theory. We will do it anyways
         but you should keep in mind that the values have only limited relevance

Expectation value of <S**2>     :     2.005919
Ideal value S*(S+1) for S=1.0   :     2.000000
Deviation                       :     0.005919

----------------
ORBITAL ENERGIES
----------------
                 SPIN UP ORBITALS
  NO   OCC          E(Eh)            E(eV) 
   0   1.0000     -19.420269      -528.4524 
   1   1.0000     -10.394261      -282.8422 
   2   1.0000     -10.377977      -282.3991 
   3   1.0000      -1.209611       -32.9152 
   4   1.0000      -0.866127       -23.5685 
   5   1.0000      -0.724448       -19.7132 
   6   1.0000      -0.619295       -16.8519 
   7   1.0000      -0.569362       -15.4931 
   8   1.0000      -0.559847       -15.2342 
   9   1.0000      -0.516034       -14.0420 
  10   1.0000      -0.509458       -13.8630 
  11   1.0000      -0.440459       -11.9855 
  12   1.0000      -0.247707        -6.7404 
  13   0.0000       0.040906         1.1131 
  14   0.0000       0.060490         1.6460 
  15   0.0000       0.079965         2.1760 
  16   0.0000       0.090398         2.4599 
  17   0.0000       0.105995         2.8843 
  18   0.0000       0.127144         3.4598 
  19   0.0000       0.129832         3.5329 
  20   0.0000       0.136702         3.7198 
  21   0.0000       0.172483         4.6935 
  22   0.0000       0.178687         4.8623 
  23   0.0000       0.195867         5.3298 

                 SPIN DOWN ORBITALS
  NO   OCC          E(Eh)            E(eV) 
   0   1.0000     -19.392053      -527.6846 
   1   1.0000     -10.383032      -282.5367 
   2   1.0000     -10.376370      -282.3554 
   3   1.0000      -1.145894       -31.1814 
   4   1.0000      -0.848992       -23.1022 
   5   1.0000      -0.682304       -18.5664 
   6   1.0000      -0.575060       -15.6482 
   7   1.0000      -0.529302       -14.4031 
   8   1.0000      -0.518335       -14.1046 
   9   1.0000      -0.490640       -13.3510 
  10   1.0000      -0.461146       -12.5484 
  11   0.0000      -0.083098        -2.2612 
  12   0.0000       0.041251         1.1225 
  13   0.0000       0.061014         1.6603 
  14   0.0000       0.067244         1.8298 
  15   0.0000       0.080304         2.1852 
  16   0.0000       0.091966         2.5025 
  17   0.0000       0.107650         2.9293 
  18   0.0000       0.127854         3.4791 
  19   0.0000       0.130315         3.5461 
  20   0.0000       0.136908         3.7255 
  21   0.0000       0.173115         4.7107 
*Only the first 10 virtual orbitals were printed.

                    ********************************
                    * MULLIKEN POPULATION ANALYSIS *
                    ********************************

--------------------------------------------
MULLIKEN ATOMIC CHARGES AND SPIN POPULATIONS
--------------------------------------------
   0 O :   -0.308258    0.998233
   1 C :   -0.032253    0.807889
   2 C :   -0.558084    0.087961
   3 H :    0.202954    0.023140
   4 H :    0.268871    0.054736
   5 H :    0.195701    0.026764
   6 H :    0.231070    0.001277
Sum of atomic charges         :    0.0000000
Sum of atomic spin populations:    2.0000000

-----------------------------------------------------
MULLIKEN REDUCED ORBITAL CHARGES AND SPIN POPULATIONS
-----------------------------------------------------
CHARGE
  0 O s       :     4.010470  s :     4.010470
      pz      :     1.571258  p :     4.251711
      px      :     1.291136
      py      :     1.389317
      dz2     :     0.006363  d :     0.044469
      dxz     :     0.001717
      dyz     :     0.015557
      dx2y2   :     0.008406
      dxy     :     0.012426
      f0      :     0.000162  f :     0.001608
      f+1     :     0.000024
      f-1     :     0.000370
      f+2     :     0.000324
      f-2     :     0.000112
      f+3     :     0.000340
      f-3     :     0.000276

  1 C s       :     3.349180  s :     3.349180
      pz      :     1.001894  p :     2.593888
      px      :     0.961319
      py      :     0.630675
      dz2     :     0.014111  d :     0.076884
      dxz     :     0.007067
      dyz     :     0.025461
      dx2y2   :     0.000188
      dxy     :     0.030058
      f0      :     0.001205  f :     0.012302
      f+1     :     0.000436
      f-1     :     0.002680
      f+2     :     0.002137
      f-2     :     0.001184
      f+3     :     0.002807
      f-3     :     0.001853

  2 C s       :     3.297796  s :     3.297796
      pz      :     1.131883  p :     3.174945
      px      :     1.021055
      py      :     1.022007
      dz2     :    -0.003541  d :     0.082820
      dxz     :     0.021232
      dyz     :     0.040252
      dx2y2   :     0.002628
      dxy     :     0.022249
      f0      :     0.000178  f :     0.002523
      f+1     :     0.000332
      f-1     :     0.000243
      f+2     :     0.000071
      f-2     :     0.000913
      f+3     :     0.000399
      f-3     :     0.000386

  3 H s       :     0.747211  s :     0.747211
      pz      :     0.015805  p :     0.047716
      px      :     0.008140
      py      :     0.023772
      dz2     :     0.000329  d :     0.002118
      dxz     :     0.000311
      dyz     :     0.000416
      dx2y2   :     0.000544
      dxy     :     0.000518

  4 H s       :     0.688509  s :     0.688509
      pz      :     0.015481  p :     0.039859
      px      :     0.017873
      py      :     0.006506
      dz2     :     0.000658  d :     0.002761
      dxz     :     0.000579
      dyz     :     0.000405
      dx2y2   :     0.000541
      dxy     :     0.000577

  5 H s       :     0.751310  s :     0.751310
      pz      :     0.012398  p :     0.050895
      px      :     0.019890
      py      :     0.018607
      dz2     :     0.000586  d :     0.002094
      dxz     :     0.000463
      dyz     :     0.000445
      dx2y2   :     0.000275
      dxy     :     0.000325

  6 H s       :     0.724566  s :     0.724566
      pz      :     0.016920  p :     0.042156
      px      :     0.018740
      py      :     0.006496
      dz2     :     0.000523  d :     0.002207
      dxz     :     0.000440
      dyz     :     0.000411
      dx2y2   :     0.000450
      dxy     :     0.000383


SPIN
  0 O s       :    -0.005678  s :    -0.005678
      pz      :     0.308238  p :     0.996253
      px      :     0.634568
      py      :     0.053447
      dz2     :     0.002061  d :     0.007791
      dxz     :    -0.000160
      dyz     :     0.005288
      dx2y2   :     0.000730
      dxy     :    -0.000128
      f0      :     0.000004  f :    -0.000133
      f+1     :     0.000014
      f-1     :     0.000040
      f+2     :    -0.000041
      f-2     :    -0.000005
      f+3     :    -0.000024
      f-3     :    -0.000121

  1 C s       :     0.005721  s :     0.005721
      pz      :     0.483333  p :     0.740064
      px      :     0.228475
      py      :     0.028256
      dz2     :     0.010197  d :     0.061508
      dxz     :     0.003347
      dyz     :     0.010099
      dx2y2   :     0.005182
      dxy     :     0.032683
      f0      :    -0.000261  f :     0.000596
      f+1     :    -0.000114
      f-1     :     0.000024
      f+2     :    -0.000021
      f-2     :     0.000182
      f+3     :     0.000683
      f-3     :     0.000104

  2 C s       :     0.045310  s :     0.045310
      pz      :    -0.007357  p :     0.029740
      px      :     0.009578
      py      :     0.027519
      dz2     :    -0.009570  d :     0.012166
      dxz     :     0.001455
      dyz     :     0.016878
      dx2y2   :    -0.003336
      dxy     :     0.006740
      f0      :     0.000040  f :     0.000745
      f+1     :     0.000205
      f-1     :     0.000132
      f+2     :     0.000040
      f-2     :     0.000120
      f+3     :     0.000036
      f-3     :     0.000174

  3 H s       :     0.017870  s :     0.017870
      pz      :    -0.000027  p :     0.005132
      px      :     0.003577
      py      :     0.001582
      dz2     :     0.000006  d :     0.000138
      dxz     :     0.000010
      dyz     :     0.000022
      dx2y2   :     0.000058
      dxy     :     0.000043

  4 H s       :     0.022604  s :     0.022604
      pz      :     0.015445  p :     0.031202
      px      :     0.014606
      py      :     0.001151
      dz2     :     0.000530  d :     0.000931
      dxz     :     0.000111
      dyz     :     0.000019
      dx2y2   :     0.000172
      dxy     :     0.000098

  5 H s       :     0.021960  s :     0.021960
      pz      :    -0.000094  p :     0.004673
      px      :     0.004466
      py      :     0.000301
      dz2     :     0.000072  d :     0.000131
      dxz     :     0.000007
      dyz     :     0.000015
      dx2y2   :     0.000007
      dxy     :     0.000029

  6 H s       :     0.003692  s :     0.003692
      pz      :    -0.001101  p :    -0.002520
      px      :    -0.001864
      py      :     0.000444
      dz2     :     0.000012  d :     0.000105
      dxz     :     0.000024
      dyz     :     0.000010
      dx2y2   :     0.000056
      dxy     :     0.000004



                     *******************************
                     * LOEWDIN POPULATION ANALYSIS *
                     *******************************

-------------------------------------------
LOEWDIN ATOMIC CHARGES AND SPIN POPULATIONS
-------------------------------------------
   0 O :    0.099863    1.011726
   1 C :   -0.174218    0.672655
   2 C :    0.157827    0.146120
   3 H :   -0.015609    0.023365
   4 H :   -0.021358    0.121560
   5 H :   -0.011760    0.024536
   6 H :   -0.034745    0.000038

----------------------------------------------------
LOEWDIN REDUCED ORBITAL CHARGES AND SPIN POPULATIONS
----------------------------------------------------
CHARGE
  0 O s       :     3.445684  s :     3.445684
      pz      :     1.471397  p :     4.174736
      px      :     1.197337
      py      :     1.506001
      dz2     :     0.037317  d :     0.274174
      dxz     :     0.011313
      dyz     :     0.085015
      dx2y2   :     0.059579
      dxy     :     0.080950
      f0      :     0.000452  f :     0.005543
      f+1     :     0.000042
      f-1     :     0.001332
      f+2     :     0.001103
      f-2     :     0.000390
      f+3     :     0.001307
      f-3     :     0.000916

  1 C s       :     2.710188  s :     2.710188
      pz      :     0.878404  p :     2.611473
      px      :     0.894536
      py      :     0.838533
      dz2     :     0.090945  d :     0.771159
      dxz     :     0.080184
      dyz     :     0.192244
      dx2y2   :     0.224985
      dxy     :     0.182803
      f0      :     0.007554  f :     0.081397
      f+1     :     0.001847
      f-1     :     0.017099
      f+2     :     0.015169
      f-2     :     0.007480
      f+3     :     0.017791
      f-3     :     0.014458

  2 C s       :     2.668105  s :     2.668105
      pz      :     0.930517  p :     2.702492
      px      :     0.896603
      py      :     0.875372
      dz2     :     0.039779  d :     0.444790
      dxz     :     0.103211
      dyz     :     0.109146
      dx2y2   :     0.069568
      dxy     :     0.123086
      f0      :     0.003647  f :     0.026786
      f+1     :     0.003384
      f-1     :     0.003345
      f+2     :     0.001494
      f-2     :     0.005447
      f+3     :     0.005066
      f-3     :     0.004402

  3 H s       :     0.707776  s :     0.707776
      pz      :     0.088633  p :     0.279850
      px      :     0.086898
      py      :     0.104319
      dz2     :     0.004514  d :     0.027983
      dxz     :     0.004127
      dyz     :     0.006314
      dx2y2   :     0.006264
      dxy     :     0.006764

  4 H s       :     0.696955  s :     0.696955
      pz      :     0.110609  p :     0.291318
      px      :     0.119057
      py      :     0.061652
      dz2     :     0.007793  d :     0.033086
      dxz     :     0.008933
      dyz     :     0.003427
      dx2y2   :     0.006631
      dxy     :     0.006302

  5 H s       :     0.711516  s :     0.711516
      pz      :     0.104817  p :     0.272941
      px      :     0.088824
      py      :     0.079300
      dz2     :     0.006593  d :     0.027302
      dxz     :     0.007108
      dyz     :     0.006091
      dx2y2   :     0.003693
      dxy     :     0.003817

  6 H s       :     0.702754  s :     0.702754
      pz      :     0.105100  p :     0.301184
      px      :     0.099863
      py      :     0.096221
      dz2     :     0.007100  d :     0.030807
      dxz     :     0.006895
      dyz     :     0.005937
      dx2y2   :     0.005177
      dxy     :     0.005698


SPIN
  0 O s       :     0.009813  s :     0.009813
      pz      :     0.293641  p :     0.904091
      px      :     0.566833
      py      :     0.043617
      dz2     :     0.018432  d :     0.095782
      dxz     :     0.002256
      dyz     :     0.041034
      dx2y2   :     0.004392
      dxy     :     0.029667
      f0      :     0.000108  f :     0.002040
      f+1     :     0.000027
      f-1     :     0.000842
      f+2     :     0.000409
      f-2     :     0.000119
      f+3     :     0.000576
      f-3     :    -0.000041

  1 C s       :     0.006792  s :     0.006792
      pz      :     0.329470  p :     0.496300
      px      :     0.147573
      py      :     0.019256
      dz2     :     0.022987  d :     0.149279
      dxz     :     0.012579
      dyz     :     0.023720
      dx2y2   :     0.010816
      dxy     :     0.079177
      f0      :     0.000390  f :     0.020285
      f+1     :     0.000663
      f-1     :     0.004179
      f+2     :     0.002870
      f-2     :     0.003161
      f+3     :     0.007364
      f-3     :     0.001658

  2 C s       :     0.006167  s :     0.006167
      pz      :     0.004681  p :     0.052211
      px      :     0.016086
      py      :     0.031444
      dz2     :     0.008357  d :     0.083274
      dxz     :     0.011078
      dyz     :     0.034235
      dx2y2   :     0.018006
      dxy     :     0.011598
      f0      :     0.000188  f :     0.004467
      f+1     :     0.001257
      f-1     :     0.000802
      f+2     :     0.000265
      f-2     :     0.000747
      f+3     :     0.000292
      f-3     :     0.000917

  3 H s       :     0.015229  s :     0.015229
      pz      :     0.000479  p :     0.007402
      px      :     0.001718
      py      :     0.005205
      dz2     :    -0.000000  d :     0.000734
      dxz     :     0.000041
      dyz     :     0.000096
      dx2y2   :     0.000455
      dxy     :     0.000142

  4 H s       :     0.037826  s :     0.037826
      pz      :     0.048077  p :     0.074187
      px      :     0.023326
      py      :     0.002783
      dz2     :     0.005660  d :     0.009547
      dxz     :     0.001588
      dyz     :     0.000012
      dx2y2   :     0.001442
      dxy     :     0.000846

  5 H s       :     0.016902  s :     0.016902
      pz      :     0.000380  p :     0.006989
      px      :     0.003034
      py      :     0.003575
      dz2     :     0.000386  d :     0.000645
      dxz     :    -0.000009
      dyz     :     0.000078
      dx2y2   :     0.000011
      dxy     :     0.000179

  6 H s       :    -0.000736  s :    -0.000736
      pz      :     0.000404  p :    -0.000231
      px      :     0.000326
      py      :    -0.000961
      dz2     :     0.000062  d :     0.001005
      dxz     :     0.000320
      dyz     :     0.000081
      dx2y2   :     0.000533
      dxy     :     0.000008



                      *****************************
                      * MAYER POPULATION ANALYSIS *
                      *****************************

  NA   - Mulliken gross atomic population
  ZA   - Total nuclear charge
  QA   - Mulliken gross atomic charge
  VA   - Mayer's total valence
  BVA  - Mayer's bonded valence
  FA   - Mayer's free valence

  ATOM       NA         ZA         QA         VA         BVA        FA
  0 O      8.3083     8.0000    -0.3083     2.0362     1.3119     0.7243
  1 C      6.0323     6.0000    -0.0323     3.3280     2.7415     0.5865
  2 C      6.5581     6.0000    -0.5581     3.6953     3.6869     0.0084
  3 H      0.7970     1.0000     0.2030     1.0258     1.0252     0.0006
  4 H      0.7311     1.0000     0.2689     0.9391     0.9363     0.0028
  5 H      0.8043     1.0000     0.1957     1.0433     1.0426     0.0007
  6 H      0.7689     1.0000     0.2311     0.9987     0.9986     0.0001

  Mayer bond orders larger than 0.100000
B(  0-O ,  1-C ) :   1.1684 B(  1-C ,  2-C ) :   0.6774 B(  1-C ,  4-H ) :   0.9226 
B(  2-C ,  3-H ) :   0.9861 B(  2-C ,  5-H ) :   1.0007 B(  2-C ,  6-H ) :   0.9596 


-------
TIMINGS
-------

Total SCF time: 0 days 0 hours 0 min 4 sec 

Total time                  ....       4.543 sec
Sum of individual times     ....       4.528 sec  ( 99.7%)

SCF preparation             ....       0.571 sec  ( 12.6%)
Fock matrix formation       ....       3.269 sec  ( 72.0%)
  Startup                   ....       0.039 sec  (  1.2% of F)
  Split-RI-J                ....       0.203 sec  (  6.2% of F)
  Chain of spheres X        ....       2.079 sec  ( 63.6% of F)
  XC integration            ....       0.823 sec  ( 25.2% of F)
    XC Preparation          ....       0.000 sec  (  0.0% of XC)
    Basis function eval.    ....       0.054 sec  (  6.6% of XC)
    Density eval.           ....       0.218 sec  ( 26.5% of XC)
    XC-Functional eval.     ....       0.021 sec  (  2.5% of XC)
    XC-Potential eval.      ....       0.343 sec  ( 41.7% of XC)
Diagonalization             ....       0.000 sec  (  0.0%)
Density matrix formation    ....       0.081 sec  (  1.8%)
Total Energy calculation    ....       0.059 sec  (  1.3%)
Population analysis         ....       0.025 sec  (  0.6%)
Orbital Transformation      ....       0.049 sec  (  1.1%)
Orbital Orthonormalization  ....       0.000 sec  (  0.0%)
DIIS solution               ....       0.314 sec  (  6.9%)
SOSCF solution              ....       0.156 sec  (  3.4%)
Finished LeanSCF after   4.6 sec

Maximum memory used throughout the entire LEANSCF-calculation: 14.6 MB
[1741042187.743972] [ohm:252452:0]        ib_iface.c:1059 UCX  ERROR ibv_create_cq(cqe=256) failed: Connection timed out
[1741042187.743970] [ohm:252453:0]        ib_iface.c:1059 UCX  ERROR ibv_create_cq(cqe=256) failed: Connection timed out
[1741042187.744897] [ohm:252450:0]        ib_iface.c:1059 UCX  ERROR ibv_create_cq(cqe=256) failed: Connection timed out
[1741042187.762498] [ohm:252446:0]        ib_iface.c:1059 UCX  ERROR ibv_create_cq(cqe=256) failed: Connection timed out
[1741042187.784928] [ohm:252500:0]        ib_iface.c:1059 UCX  ERROR ibv_create_cq(cqe=256) failed: Connection timed out
[1741042187.785432] [ohm:252447:0]        ib_iface.c:1059 UCX  ERROR ibv_create_cq(cqe=256) failed: Connection timed out
[1741042187.785431] [ohm:252468:0]        ib_iface.c:1059 UCX  ERROR ibv_create_cq(cqe=256) failed: Connection timed out
[1741042187.785471] [ohm:252478:0]        ib_iface.c:1059 UCX  ERROR ibv_create_cq(cqe=256) failed: Connection timed out
[1741042187.785901] [ohm:252483:0]        ib_iface.c:1059 UCX  ERROR ibv_create_cq(cqe=256) failed: Connection timed out
[1741042187.786833] [ohm:252464:0]        ib_iface.c:1059 UCX  ERROR ibv_create_cq(cqe=256) failed: Connection timed out
[1741042187.787462] [ohm:252448:0]        ib_iface.c:1059 UCX  ERROR ibv_create_cq(cqe=256) failed: Connection timed out
[1741042187.788366] [ohm:252459:0]        ib_iface.c:1059 UCX  ERROR ibv_create_cq(cqe=256) failed: Connection timed out
[1741042187.789300] [ohm:252488:0]        ib_iface.c:1059 UCX  ERROR ibv_create_cq(cqe=256) failed: Connection timed out
[1741042187.790019] [ohm:252449:0]        ib_iface.c:1059 UCX  ERROR ibv_create_cq(cqe=256) failed: Connection timed out
[1741042187.797635] [ohm:252489:0]        ib_iface.c:1059 UCX  ERROR ibv_create_cq(cqe=256) failed: Connection timed out
[1741042187.801948] [ohm:252461:0]        ib_iface.c:1059 UCX  ERROR ibv_create_cq(cqe=256) failed: Connection timed out
[1741042187.803339] [ohm:252504:0]        ib_iface.c:1059 UCX  ERROR ibv_create_cq(cqe=256) failed: Connection timed out
[1741042187.808068] [ohm:252454:0]        ib_iface.c:1059 UCX  ERROR ibv_create_cq(cqe=256) failed: Connection timed out
[1741042187.809588] [ohm:252455:0]        ib_iface.c:1059 UCX  ERROR ibv_create_cq(cqe=256) failed: Connection timed out
[1741042187.810082] [ohm:252451:0]        ib_iface.c:1059 UCX  ERROR ibv_create_cq(cqe=256) failed: Connection timed out
[1741042187.810146] [ohm:252467:0]        ib_iface.c:1059 UCX  ERROR ibv_create_cq(cqe=256) failed: Connection timed out
[1741042187.810747] [ohm:252495:0]        ib_iface.c:1059 UCX  ERROR ibv_create_cq(cqe=256) failed: Connection timed out
[1741042187.810321] [ohm:252463:0]        ib_iface.c:1059 UCX  ERROR ibv_create_cq(cqe=256) failed: Connection timed out
[1741042187.811172] [ohm:252491:0]        ib_iface.c:1059 UCX  ERROR ibv_create_cq(cqe=256) failed: Connection timed out
[1741042187.812024] [ohm:252460:0]        ib_iface.c:1059 UCX  ERROR ibv_create_cq(cqe=256) failed: Connection timed out
[1741042187.811733] [ohm:252493:0]        ib_iface.c:1059 UCX  ERROR ibv_create_cq(cqe=256) failed: Connection timed out
[1741042187.812169] [ohm:252498:0]        ib_iface.c:1059 UCX  ERROR ibv_create_cq(cqe=256) failed: Connection timed out
[1741042187.812627] [ohm:252458:0]        ib_iface.c:1059 UCX  ERROR ibv_create_cq(cqe=256) failed: Connection timed out
[1741042187.813124] [ohm:252457:0]        ib_iface.c:1059 UCX  ERROR ibv_create_cq(cqe=256) failed: Connection timed out
[1741042187.813230] [ohm:252462:0]        ib_iface.c:1059 UCX  ERROR ibv_create_cq(cqe=256) failed: Connection timed out
[1741042187.813229] [ohm:252475:0]        ib_iface.c:1059 UCX  ERROR ibv_create_cq(cqe=256) failed: Connection timed out
[1741042187.813222] [ohm:252456:0]        ib_iface.c:1059 UCX  ERROR ibv_create_cq(cqe=256) failed: Connection timed out


           ************************************************************
           *        Program running with 32 parallel MPI-processes    *
           *              working on a common directory               *
           ************************************************************

------------------------------------------------------------------------------
                         ORCA PROPERTY INTEGRAL CALCULATIONS
------------------------------------------------------------------------------

GBWName                                   ... orca.gbw
Number of atoms                           ...      7
Number of basis functions                 ...    182
Max core memory                           ...   1024 MB

Dipole integrals                          ... YES
Quadrupole integrals                      ...  NO
Linear momentum integrals                 ... YES
Angular momentum integrals                ... YES
Higher moments length integrals           ...  NO
Higher moments velocity integrals         ...  NO
Kinetic energy integrals                  ...  NO
GIAO right hand sides                     ...  NO
GIAO dipole derivative integrals          ...  NO
SOC integrals                             ...  NO
EPR diamagnetic integrals (GIAO)          ...  NO
EPR gauge integrals                       ...  NO
Field gradient integrals                  ...  NO (   0 nuclei)
Spin-dipole/Fermi contact integrals       ...  NO (   0 nuclei)
Contact density integrals                 ...  NO (   0 nuclei)
Nucleus-orbit integrals                   ...  NO (   0 nuclei)
Geometric perturbations                   ...  NO (   7 nuclei)

Choice of electric origin   ... Center of mass
Position of electric origin ... (  0.3943,  0.4310,  0.0115) 
Choice of magnetic origin   ... GIAO
Position of magnetic origin ... (  0.0000,  0.0000,  0.0000) 

Calculating integrals                     ... Electric Dipole (Length)     done (  0.0 sec)
Calculating integrals                     ... Linear Momentum              done (  0.0 sec)
Calculating integrals                     ... Angular Momentum  (ElOri)    done (  0.0 sec)

Property integrals calculated in   0.0 sec

Maximum memory used throughout the entire PROPINT-calculation: 10.2 MB
[1741042188.619035] [ohm:252635:0]        ib_iface.c:1059 UCX  ERROR ibv_create_cq(cqe=256) failed: Connection timed out
[1741042188.619801] [ohm:252636:0]        ib_iface.c:1059 UCX  ERROR ibv_create_cq(cqe=256) failed: Connection timed out
[1741042188.627180] [ohm:252640:0]        ib_iface.c:1059 UCX  ERROR ibv_create_cq(cqe=256) failed: Connection timed out
[1741042188.627604] [ohm:252631:0]        ib_iface.c:1059 UCX  ERROR ibv_create_cq(cqe=256) failed: Connection timed out
[1741042188.631153] [ohm:252628:0]        ib_iface.c:1059 UCX  ERROR ibv_create_cq(cqe=256) failed: Connection timed out
[1741042188.631625] [ohm:252632:0]        ib_iface.c:1059 UCX  ERROR ibv_create_cq(cqe=256) failed: Connection timed out
[1741042188.631879] [ohm:252630:0]        ib_iface.c:1059 UCX  ERROR ibv_create_cq(cqe=256) failed: Connection timed out
[1741042188.642647] [ohm:252633:0]        ib_iface.c:1059 UCX  ERROR ibv_create_cq(cqe=256) failed: Connection timed out
[1741042188.642698] [ohm:252627:0]        ib_iface.c:1059 UCX  ERROR ibv_create_cq(cqe=256) failed: Connection timed out
[1741042188.642796] [ohm:252626:0]        ib_iface.c:1059 UCX  ERROR ibv_create_cq(cqe=256) failed: Connection timed out
[1741042188.645592] [ohm:252642:0]        ib_iface.c:1059 UCX  ERROR ibv_create_cq(cqe=256) failed: Connection timed out
[1741042188.649468] [ohm:252638:0]        ib_iface.c:1059 UCX  ERROR ibv_create_cq(cqe=256) failed: Connection timed out
[1741042188.649610] [ohm:252634:0]        ib_iface.c:1059 UCX  ERROR ibv_create_cq(cqe=256) failed: Connection timed out
[1741042188.669165] [ohm:252650:0]        ib_iface.c:1059 UCX  ERROR ibv_create_cq(cqe=256) failed: Connection timed out
[1741042188.669457] [ohm:252653:0]        ib_iface.c:1059 UCX  ERROR ibv_create_cq(cqe=256) failed: Connection timed out
[1741042188.674816] [ohm:252644:0]        ib_iface.c:1059 UCX  ERROR ibv_create_cq(cqe=256) failed: Connection timed out
[1741042188.685966] [ohm:252648:0]        ib_iface.c:1059 UCX  ERROR ibv_create_cq(cqe=256) failed: Connection timed out
[1741042188.689852] [ohm:252646:0]        ib_iface.c:1059 UCX  ERROR ibv_create_cq(cqe=256) failed: Connection timed out
[1741042188.693229] [ohm:252672:0]        ib_iface.c:1059 UCX  ERROR ibv_create_cq(cqe=256) failed: Connection timed out
[1741042188.694077] [ohm:252652:0]        ib_iface.c:1059 UCX  ERROR ibv_create_cq(cqe=256) failed: Connection timed out
[1741042188.694076] [ohm:252670:0]        ib_iface.c:1059 UCX  ERROR ibv_create_cq(cqe=256) failed: Connection timed out
[1741042188.694117] [ohm:252647:0]        ib_iface.c:1059 UCX  ERROR ibv_create_cq(cqe=256) failed: Connection timed out
[1741042188.695323] [ohm:252662:0]        ib_iface.c:1059 UCX  ERROR ibv_create_cq(cqe=256) failed: Connection timed out
[1741042188.697318] [ohm:252654:0]        ib_iface.c:1059 UCX  ERROR ibv_create_cq(cqe=256) failed: Connection timed out
[1741042188.697438] [ohm:252645:0]        ib_iface.c:1059 UCX  ERROR ibv_create_cq(cqe=256) failed: Connection timed out
[1741042188.697992] [ohm:252643:0]        ib_iface.c:1059 UCX  ERROR ibv_create_cq(cqe=256) failed: Connection timed out
[1741042188.697992] [ohm:252637:0]        ib_iface.c:1059 UCX  ERROR ibv_create_cq(cqe=256) failed: Connection timed out
[1741042188.698362] [ohm:252629:0]        ib_iface.c:1059 UCX  ERROR ibv_create_cq(cqe=256) failed: Connection timed out
[1741042188.698383] [ohm:252680:0]        ib_iface.c:1059 UCX  ERROR ibv_create_cq(cqe=256) failed: Connection timed out
[1741042188.698430] [ohm:252639:0]        ib_iface.c:1059 UCX  ERROR ibv_create_cq(cqe=256) failed: Connection timed out
[1741042188.698567] [ohm:252649:0]        ib_iface.c:1059 UCX  ERROR ibv_create_cq(cqe=256) failed: Connection timed out
[1741042188.698778] [ohm:252641:0]        ib_iface.c:1059 UCX  ERROR ibv_create_cq(cqe=256) failed: Connection timed out


           ************************************************************
           *        Program running with 32 parallel MPI-processes    *
           *              working on a common directory               *
           ************************************************************
------------------------------------------------------------------------------
                        ORCA TD-DFT/TDA CALCULATION
------------------------------------------------------------------------------

Input orbitals are from        ... orca.gbw
CI-vector output               ... orca.cis
Solver                         ... FN-2001
Tamm-Dancoff approximation     ... operative
CIS-Integral strategy          ... AO-integrals
Integral handling              ... AO integral Direct
Max. core memory used          ... 512 MB
Reference state                ... UHF
Follow IRoot                   ... off
Number of operators            ... 2
Orbital ranges used for CIS calculation:
 Operator 0:  Orbitals   3... 12  to  11...181

-------------------
XC-INTEGRATION GRID
-------------------

General Integration Accuracy     IntAcc      ... 3.467
Radial Grid Type                 RadialGrid  ... OptM3 with GC (2021)
Angular Grid (max. ang.)         AngularGrid ... 1 (Lebedev-50)
Angular grid pruning method      GridPruning ... 4 (adaptive)
Weight generation scheme         WeightScheme... mBecke (2022)
Basis function cutoff            BFCut       ... 1.0000e-11
Integration weight cutoff        WCut        ... 1.0000e-14
Partially contracted basis set               ... off
Rotationally invariant grid construction     ... off
Angular grids for H and He will be reduced by one unit
Diffuse basis detected: some atoms will have their outermost
                        angular grid increased by 1.

Total number of grid points                  ...     4744
Total number of batches                      ...       78
Average number of points per batch           ...       60
[...]
=> NOW LEAVING ORCA_CIS


-------------------------------------------------------------------------------
                          DFT DISPERSION CORRECTION                            
                                                                               
                              DFTD3 V3.1  Rev 1                                
                          USING Becke-Johnson damping                          
-------------------------------------------------------------------------------
The WB97M functional is recognized
Active option DFTDOPT                   ...         4   

molecular C6(AA) [au] = 395.350164 


            DFT-D V3
 parameters
 s6 scaling factor         :     1.0000 
 a1 scaling factor         :     0.5660 
 s8 scaling factor         :     0.3908 
 a2 scaling factor         :     3.1280 
 ad hoc parameters k1-k3   :    16.0000     1.3333    -4.0000 

 Edisp/kcal,au: -3.384598500710  -0.005393700461 
 E6   /kcal   :  -2.728202589 
 E8   /kcal   :  -0.656395912 
 % E8         :  19.393612323 

-------------------------   ----------------
Dispersion correction           -0.005393700
-------------------------   ----------------


-------------------------   --------------------
FINAL SINGLE POINT ENERGY      -153.904108622457
-------------------------   --------------------

[1741042194.956905] [ohm:252815:0]        ib_iface.c:1059 UCX  ERROR ibv_create_cq(cqe=256) failed: Connection timed out
[1741042194.959124] [ohm:252814:0]        ib_iface.c:1059 UCX  ERROR ibv_create_cq(cqe=256) failed: Connection timed out
[1741042194.961162] [ohm:252821:0]        ib_iface.c:1059 UCX  ERROR ibv_create_cq(cqe=256) failed: Connection timed out
[1741042194.962837] [ohm:252819:0]        ib_iface.c:1059 UCX  ERROR ibv_create_cq(cqe=256) failed: Connection timed out
[1741042194.962871] [ohm:252823:0]        ib_iface.c:1059 UCX  ERROR ibv_create_cq(cqe=256) failed: Connection timed out
[1741042194.963128] [ohm:252817:0]        ib_iface.c:1059 UCX  ERROR ibv_create_cq(cqe=256) failed: Connection timed out
[1741042194.963158] [ohm:252826:0]        ib_iface.c:1059 UCX  ERROR ibv_create_cq(cqe=256) failed: Connection timed out
[1741042194.966358] [ohm:252830:0]        ib_iface.c:1059 UCX  ERROR ibv_create_cq(cqe=256) failed: Connection timed out
[1741042194.982534] [ohm:252822:0]        ib_iface.c:1059 UCX  ERROR ibv_create_cq(cqe=256) failed: Connection timed out
[1741042194.982915] [ohm:252820:0]        ib_iface.c:1059 UCX  ERROR ibv_create_cq(cqe=256) failed: Connection timed out
[1741042194.995737] [ohm:252845:0]        ib_iface.c:1059 UCX  ERROR ibv_create_cq(cqe=256) failed: Connection timed out
[1741042194.995741] [ohm:252852:0]        ib_iface.c:1059 UCX  ERROR ibv_create_cq(cqe=256) failed: Connection timed out
[1741042194.995921] [ohm:252854:0]        ib_iface.c:1059 UCX  ERROR ibv_create_cq(cqe=256) failed: Connection timed out
[1741042195.001977] [ohm:252866:0]        ib_iface.c:1059 UCX  ERROR ibv_create_cq(cqe=256) failed: Connection timed out
[1741042195.005634] [ohm:252838:0]        ib_iface.c:1059 UCX  ERROR ibv_create_cq(cqe=256) failed: Connection timed out
[1741042195.005673] [ohm:252846:0]        ib_iface.c:1059 UCX  ERROR ibv_create_cq(cqe=256) failed: Connection timed out
[1741042195.005674] [ohm:252841:0]        ib_iface.c:1059 UCX  ERROR ibv_create_cq(cqe=256) failed: Connection timed out
[1741042195.006459] [ohm:252842:0]        ib_iface.c:1059 UCX  ERROR ibv_create_cq(cqe=256) failed: Connection timed out
[1741042195.008680] [ohm:252818:0]        ib_iface.c:1059 UCX  ERROR ibv_create_cq(cqe=256) failed: Connection timed out
[1741042195.009111] [ohm:252847:0]        ib_iface.c:1059 UCX  ERROR ibv_create_cq(cqe=256) failed: Connection timed out
[1741042195.011027] [ohm:252835:0]        ib_iface.c:1059 UCX  ERROR ibv_create_cq(cqe=256) failed: Connection timed out
[1741042195.011049] [ohm:252861:0]        ib_iface.c:1059 UCX  ERROR ibv_create_cq(cqe=256) failed: Connection timed out
[1741042195.012820] [ohm:252836:0]        ib_iface.c:1059 UCX  ERROR ibv_create_cq(cqe=256) failed: Connection timed out
[1741042195.012962] [ohm:252816:0]        ib_iface.c:1059 UCX  ERROR ibv_create_cq(cqe=256) failed: Connection timed out
[1741042195.013170] [ohm:252832:0]        ib_iface.c:1059 UCX  ERROR ibv_create_cq(cqe=256) failed: Connection timed out
[1741042195.013533] [ohm:252837:0]        ib_iface.c:1059 UCX  ERROR ibv_create_cq(cqe=256) failed: Connection timed out
[1741042195.014865] [ohm:252839:0]        ib_iface.c:1059 UCX  ERROR ibv_create_cq(cqe=256) failed: Connection timed out
[1741042195.014866] [ohm:252840:0]        ib_iface.c:1059 UCX  ERROR ibv_create_cq(cqe=256) failed: Connection timed out
[1741042195.014868] [ohm:252844:0]        ib_iface.c:1059 UCX  ERROR ibv_create_cq(cqe=256) failed: Connection timed out
[1741042195.015009] [ohm:252843:0]        ib_iface.c:1059 UCX  ERROR ibv_create_cq(cqe=256) failed: Connection timed out
[1741042195.014927] [ohm:252848:0]        ib_iface.c:1059 UCX  ERROR ibv_create_cq(cqe=256) failed: Connection timed out
[1741042195.015216] [ohm:252858:0]        ib_iface.c:1059 UCX  ERROR ibv_create_cq(cqe=256) failed: Connection timed out


           ************************************************************
           *        Program running with 32 parallel MPI-processes    *
           *              working on a common directory               *
           ************************************************************

------------------------------------------------------------------------------
                              ORCA PROPERTY CALCULATIONS
------------------------------------------------------------------------------

GBWName                                 ... orca.gbw
Number of atoms                         ...      7
Number of basis functions               ...    182
Max core memory                         ...   1024 MB

Electric properties:
Dipole moment                           ... YES
Quadrupole moment                       ...  NO
Static polarizability (Dipole/Dipole)   ...  NO
Static polarizability (Dipole/Quad.)    ...  NO
Static polarizability (Quad./Quad.)     ...  NO
Static polarizability (Velocity)        ...  NO

Atomic electric properties:
Dipole moment                           ...  NO
Quadrupole moment                       ...  NO
Static polarizability                   ...  NO

Choice of electric origin               ... Center of mass
Position of electric origin             ...     0.394306     0.430999     0.011466

General magnetic properties:
Magnetizability                         ...  NO

EPR properties:
g-Tensor (aka g-matrix)                 ...  NO
Zero-Field splitting spin-orbit         ...  NO
Zero-field splitting spin-spin          ...  NO
Hyperfine couplings                     ...  NO (   0 nuclei)
Quadrupole couplings                    ...  NO (   0 nuclei)
Contact density                         ...  NO (   0 nuclei)

NMR properties:
Chemical shifts                         ...  NO (   0 nuclei)
Spin-rotation constants                 ...  NO (   0 nuclei)
Spin-spin couplings                     ...  NO (   0 nuclei,    0 pairs)

Choice of magnetic origin               ... GIAO
Position of magnetic origin             ...     0.000000     0.000000     0.000000

Properties with geometric perturbations:
SCF Hessian                             ...  NO
IR spectrum                             ...  NO
VCD spectrum                            ...  NO
X-ray spectroscopy properties:
SCF XES/XAS/RIXS spectra                ...  NO


-------------
DIPOLE MOMENT
-------------

Method             : SCF
Type of density    : Electron Density
Multiplicity       :   3
Irrep              :   0
Energy             :  -153.7915536098510927 Eh
Relativity type    : 
Basis              : AO
                                X                 Y                 Z
Electronic contribution:      1.247904079       3.573874882      -0.020432729
Nuclear contribution   :     -1.311739523      -4.242069671      -0.050975233
                        -----------------------------------------
Total Dipole Moment    :     -0.063835445      -0.668194790      -0.071407962
                        -----------------------------------------
Magnitude (a.u.)       :      0.675024694
Magnitude (Debye)      :      1.715776418



--------------------
Rotational spectrum 
--------------------
 
Rotational constants in cm-1:             1.765283             0.307288             0.275818 
Rotational constants in MHz :         52921.863874          9212.274571          8268.823901 

Dipole components along the rotational axes: 
x,y,z [a.u.] :     0.635930     0.220704     0.050406 
x,y,z [Debye]:     1.616406     0.560985     0.128121 

 

-------------
DIPOLE MOMENT
-------------

Method             : TDA/CIS
Type of density    : Electron Density
Level              : Relaxed density
State              :   1
Multiplicity       :   3
Irrep              :   0
Energy             :     0.0000000000000000 Eh
Relativity type    : 
Basis              : AO
                                X                 Y                 Z
Electronic contribution:      1.241025675       2.879805191      -0.264481884
Nuclear contribution   :     -1.311739523      -4.242069671      -0.050975233
                        -----------------------------------------
Total Dipole Moment    :     -0.070713848      -1.362264480      -0.315457117
                        -----------------------------------------
Magnitude (a.u.)       :      1.400099337
Magnitude (Debye)      :      3.558769695



--------------------
Rotational spectrum 
--------------------
 
Rotational constants in cm-1:             1.765283             0.307288             0.275818 
Rotational constants in MHz :         52921.863874          9212.274571          8268.823901 

Dipole components along the rotational axes: 
x,y,z [a.u.] :     1.267192     0.595400     0.000894 
x,y,z [Debye]:     3.220947     1.513386     0.002273 

 

Dipole moment calculation done in   0.0 sec 

Maximum memory used throughout the entire PROP-calculation: 7.4 MB
[1741042195.825893] [ohm:252981:0]        ib_iface.c:1059 UCX  ERROR ibv_create_cq(cqe=256) failed: Connection timed out
[1741042195.825893] [ohm:252982:0]        ib_iface.c:1059 UCX  ERROR ibv_create_cq(cqe=256) failed: Connection timed out
[1741042195.825895] [ohm:252986:0]        ib_iface.c:1059 UCX  ERROR ibv_create_cq(cqe=256) failed: Connection timed out
[1741042195.825896] [ohm:252994:0]        ib_iface.c:1059 UCX  ERROR ibv_create_cq(cqe=256) failed: Connection timed out
[1741042195.825980] [ohm:252985:0]        ib_iface.c:1059 UCX  ERROR ibv_create_cq(cqe=256) failed: Connection timed out
[1741042195.829731] [ohm:252987:0]        ib_iface.c:1059 UCX  ERROR ibv_create_cq(cqe=256) failed: Connection timed out
[1741042195.833444] [ohm:252988:0]        ib_iface.c:1059 UCX  ERROR ibv_create_cq(cqe=256) failed: Connection timed out
[1741042195.855894] [ohm:252993:0]        ib_iface.c:1059 UCX  ERROR ibv_create_cq(cqe=256) failed: Connection timed out
[1741042195.898452] [ohm:253017:0]        ib_iface.c:1059 UCX  ERROR ibv_create_cq(cqe=256) failed: Connection timed out
[1741042195.903843] [ohm:253021:0]        ib_iface.c:1059 UCX  ERROR ibv_create_cq(cqe=256) failed: Connection timed out
[1741042195.903818] [ohm:253024:0]        ib_iface.c:1059 UCX  ERROR ibv_create_cq(cqe=256) failed: Connection timed out
[1741042195.903827] [ohm:253027:0]        ib_iface.c:1059 UCX  ERROR ibv_create_cq(cqe=256) failed: Connection timed out
[1741042195.904157] [ohm:253023:0]        ib_iface.c:1059 UCX  ERROR ibv_create_cq(cqe=256) failed: Connection timed out
[1741042195.905347] [ohm:252989:0]        ib_iface.c:1059 UCX  ERROR ibv_create_cq(cqe=256) failed: Connection timed out
[1741042195.906001] [ohm:252984:0]        ib_iface.c:1059 UCX  ERROR ibv_create_cq(cqe=256) failed: Connection timed out
[1741042195.906250] [ohm:253034:0]        ib_iface.c:1059 UCX  ERROR ibv_create_cq(cqe=256) failed: Connection timed out
[1741042195.906878] [ohm:253002:0]        ib_iface.c:1059 UCX  ERROR ibv_create_cq(cqe=256) failed: Connection timed out
[1741042195.907230] [ohm:253025:0]        ib_iface.c:1059 UCX  ERROR ibv_create_cq(cqe=256) failed: Connection timed out
[1741042195.907481] [ohm:253026:0]        ib_iface.c:1059 UCX  ERROR ibv_create_cq(cqe=256) failed: Connection timed out
[1741042195.909675] [ohm:253014:0]        ib_iface.c:1059 UCX  ERROR ibv_create_cq(cqe=256) failed: Connection timed out
[1741042195.909820] [ohm:253019:0]        ib_iface.c:1059 UCX  ERROR ibv_create_cq(cqe=256) failed: Connection timed out
[1741042195.911352] [ohm:252997:0]        ib_iface.c:1059 UCX  ERROR ibv_create_cq(cqe=256) failed: Connection timed out
[1741042195.913133] [ohm:253009:0]        ib_iface.c:1059 UCX  ERROR ibv_create_cq(cqe=256) failed: Connection timed out
[1741042195.914033] [ohm:253016:0]        ib_iface.c:1059 UCX  ERROR ibv_create_cq(cqe=256) failed: Connection timed out
[1741042195.914795] [ohm:252991:0]        ib_iface.c:1059 UCX  ERROR ibv_create_cq(cqe=256) failed: Connection timed out
[1741042195.916460] [ohm:253039:0]        ib_iface.c:1059 UCX  ERROR ibv_create_cq(cqe=256) failed: Connection timed out
[1741042195.915009] [ohm:252983:0]        ib_iface.c:1059 UCX  ERROR ibv_create_cq(cqe=256) failed: Connection timed out
[1741042195.916331] [ohm:253018:0]        ib_iface.c:1059 UCX  ERROR ibv_create_cq(cqe=256) failed: Connection timed out
[1741042195.916449] [ohm:252992:0]        ib_iface.c:1059 UCX  ERROR ibv_create_cq(cqe=256) failed: Connection timed out
[1741042195.916735] [ohm:253020:0]        ib_iface.c:1059 UCX  ERROR ibv_create_cq(cqe=256) failed: Connection timed out
[1741042195.916681] [ohm:253022:0]        ib_iface.c:1059 UCX  ERROR ibv_create_cq(cqe=256) failed: Connection timed out
[1741042195.916920] [ohm:252990:0]        ib_iface.c:1059 UCX  ERROR ibv_create_cq(cqe=256) failed: Connection timed out

--------------------------------
SUGGESTED CITATIONS FOR THIS RUN
--------------------------------

Below you find a list of papers that are relevant to this ORCA run
We neither can nor want to force you to cite these papers, but we appreciate if you do
You receive ORCA, which is the product of decades of hard work by many enthusiastic individuals, for free
The only thing we kindly ask in return is that you cite our papers,
We deeply appreciate it, if you show your appreciation for ORCA by not just citing the generic ORCA reference.

Please note that relegating all ORCA citations to the supporting information does *not* help us.
SI sections are not indexed - citations you put there will not count into any citation statistics
But we need these citations in order to attract the funding resources that allow us to do what we are doing

Therefore, if you are a happy ORCA user, please consider citing a few of the papers listed below in the main body of your paper

In addition to the list printed below, the program has created the file orca.bibtex that contains the list in bibtex format
You can import this file easily into all common literature databanks and citation aid programs


List of essential papers. We consider these as the minimum necessary citations

  1. Neese,F.
     Software update: the ORCA program system, version 5.0
     WIRES Comput. Molec. Sci., 2022 12(1)e1606
     doi.org/10.1002/wcms.1606

List of papers to cite with high priority. The work reported in these papers was absolutely
necessary for this run to complete.
Our perspective: the developers of density functionals and basis sets usually get cited in chemistry papers
Good! But without the algorithms to do something with them, the functionals or basis sets would not do anything.
Hence, in our opinion, the algorithm design and method developments papers are equally worthy of getting cited

  1. Neese,F.; Olbrich,G.
     Efficient use of the resolution of the identity approximation in time-dependent density functional calculations with hybrid density functionals
     Chem. Phys. Lett., 2002 362 170-178
     doi.org/10.1016/s0009-2614(02)01053-9
  2. Neese,F.
     An improvement of the resolution of the identity approximation for the formation of the Coulomb matrix
     J. Comp. Chem., 2003 24(14)1740-1747
     doi.org/10.1002/jcc.10318
  3. Neese,F.; Wennmohs,F.; Hansen,A.; Becker,U.
     Efficient, approximate and parallel Hartree-Fock and hybrid DFT calculations. A 'chain-of-spheres' algorithm for the Hartree-Fock exchange
     Chem. Phys., 2009 356(1-3)98-109
     doi.org/10.1016/j.chemphys.2008.10.036
  4. Petrenko,T.; Kossmann,S.; Neese,F.
     Efficient time-dependent density functional theory approximations for hybrid density functionals: Analytical gradients and parallelization
     J. Chem. Phys., 2011 134 054116
     doi.org/10.1063/1.3533441
  5. Helmich-Paris,B.; de Souza,B.; Neese,F.; Izsák,R.
     An improved chain of spheres for exchange algorithm
     J. Chem. Phys., 2021 155 104109
     doi.org/doi: 10.1063/5.0058766.
  6. Neese,F.
     The SHARK Integral Generation and Digestion System
     J. Comp. Chem., 2022  1-16
     doi.org/10.1002/jcc.26942
  7. Lehtola,S.; Steigemann,C.; Oliveira,M.; Marques,M.
     Recent developments in Libxc - A comprehensive library of functionals for density functional theory
     Software X, 2018 7 
     doi.org/10.1016/j.softx.2017.11.002
  8. Grimme,S.; Antony,J.; Ehrlich,S.; Krieg,H.
     A consistent and accurate ab initio parametrization of density functional dispersion correction (DFT-D) for the 94 elements H-Pu
     J. Chem. Phys., 2010 132 154104-XXXX
     doi.org/10.1063/1.3382344
  9. Grimme,S.; Ehrlich,S.; Goerigk,L.
     Effect of the damping function in dispersion corrected density functional theory
     J. Comput. Chem., 2011 32(7)1456-1465
     doi.org/10.1002/jcc.21759

List of suggested additional citations. These are papers that are important in the 'surrounding' of 
of this run, or papers that preceded the highly important papers. If you like your results we are grateful for a citation.

  1. Izsak,R.; Neese,F.
     An overlap fitted chain of spheres exchange method
     J. Chem. Phys., 2011 135 144105
     doi.org/10.1063/1.3646921
  2. Izsak,R.; Hansen,A.; Neese,F.
     The resolution of identity and chain of spheres approximations for the LPNO-CCSD singles Fock term
     Molec. Phys., 2012 110 2413-2417
     doi.org/10.1080/00268976.2012.687466
  3. Neese,F.
     The ORCA program system
     WIRES Comput. Molec. Sci., 2012 2(1)73-78
     doi.org/10.1002/wcms.81
  4. Izsak,R.; Neese,F.; Klopper,W.
     Robust fitting techniques in the chain of spheres approximation to the Fock exchange: The role of the complementary space
     J. Chem. Phys., 2013 139 
     doi.org/10.1063/1.4819264
  5. Neese,F.
     Software update: the ORCA program system, version 4.0
     WIRES Comput. Molec. Sci., 2018 8(1)1-6
     doi.org/10.1002/wcms.1327
  6. Neese,F.; Wennmohs,F.; Becker,U.; Riplinger,C.
     The ORCA quantum chemistry program package
     J. Chem. Phys., 2020 152 Art. No. L224108
     doi.org/10.1063/5.0004608

List of optional additional citations

  1. Neese,F.
     Approximate second-order SCF convergence for spin unrestricted wavefunctions
     Chem. Phys. Lett., 2000 325(1-3)93-98
     doi.org/10.1016/s0009-2614(00)00662-x

Timings for individual modules:

Sum of individual times          ...       15.154 sec (=   0.253 min)
Startup calculation              ...        1.229 sec (=   0.020 min)   8.1 %
SCF iterations                   ...        5.874 sec (=   0.098 min)  38.8 %
Property integrals               ...        0.886 sec (=   0.015 min)   5.8 %
Property calculations            ...        0.901 sec (=   0.015 min)   5.9 %
CIS module                       ...        6.264 sec (=   0.104 min)  41.3 %
                             ****ORCA TERMINATED NORMALLY****
TOTAL RUN TIME: 0 days 0 hours 0 minutes 16 seconds 124 msec
