
                                 *****************
                                 * O   R   C   A *
                                 *****************

                                            #,                                       
                                            ###                                      
                                            ####                                     
                                            #####                                    
                                            ######                                   
                                           ########,                                 
                                     ,,################,,,,,                         
                               ,,#################################,,                 
                          ,,##########################################,,             
                       ,#########################################, ''#####,          
                    ,#############################################,,   '####,        
                  ,##################################################,,,,####,       
                ,###########''''           ''''###############################       
              ,#####''   ,,,,##########,,,,          '''####'''          '####       
            ,##' ,,,,###########################,,,                        '##       
           ' ,,###''''                  '''############,,,                           
         ,,##''                                '''############,,,,        ,,,,,,###''
      ,#''                                            '''#######################'''  
     '                                                          ''''####''''         
             ,#######,   #######,   ,#######,      ##                                
            ,#'     '#,  ##    ##  ,#'     '#,    #''#        ,####,   ,####,        
            ##       ##  ##   ,#'  ##            #'  '#       #'       #'  '#        
            ##       ##  #######   ##           ,######,      #####,   #    #        
            '#,     ,#'  ##    ##  '#,     ,#' ,#      #,     #,   #   #,  ,#        
             '#######'   ##     ##  '#######'  #'      '#     '####' # '####'        



                #########################################################
                #                        -***-                          #
                #          Department of theory and spectroscopy        #
                #                                                       #
                #                      Frank Neese                      #
                #                                                       #
                #     Directorship, Architecture, Infrastructure        #
                #                    SHARK, DRIVERS                     #
                #        Core code/Algorithms in most modules           #
                #                                                       #
                #        Max Planck Institute fuer Kohlenforschung      #
                #                Kaiser Wilhelm Platz 1                 #
                #                 D-45470 Muelheim/Ruhr                 #
                #                      Germany                          #
                #                                                       #
                #                  All rights reserved                  #
                #                        -***-                          #
                #########################################################


                         Program Version 6.0.0  -   RELEASE  -


 With contributions from (in alphabetic order):
   Daniel Aravena         : Magnetic Suceptibility
   Michael Atanasov       : Ab Initio Ligand Field Theory (pilot matlab implementation)
   Alexander A. Auer      : GIAO ZORA, VPT2 properties, NMR spectrum
   Ute Becker             : All parallelization in ORCA, NUMFREQ, NUMCALC
   Giovanni Bistoni       : ED, misc. LED, open-shell LED, HFLD
   Martin Brehm           : Molecular dynamics
   Dmytro Bykov           : pre 5.0 version of the SCF Hessian
   Marcos Casanova-Páez   : Triplet and SCS-CIS(D). UHF-(DLPNO)-IP/EA/STEOM-CCSD. UHF-CVS-IP/STEOM-CCSD
   Vijay G. Chilkuri      : MRCI spin determinant printing, contributions to CSF-ICE
   Pauline Colinet        : FMM embedding
   Dipayan Datta          : RHF DLPNO-CCSD density
   Achintya Kumar Dutta   : EOM-CC, STEOM-CC
   Nicolas Foglia         : Exact transition moments, OPA infrastructure, MCD improvements
   Dmitry Ganyushin       : Spin-Orbit,Spin-Spin,Magnetic field MRCI
   Miquel Garcia          : C-PCM and meta-GGA Hessian, CCSD/C-PCM, Gaussian charge scheme
   Tiago L. C. Gouveia    : GS-ROHF, GS-ROCIS
   Yang Guo               : DLPNO-NEVPT2, F12-NEVPT2, CIM, IAO-localization
   Andreas Hansen         : Spin unrestricted coupled pair/coupled cluster methods
   Ingolf Harden          : AUTO-CI MPn and infrastructure 
   Benjamin Helmich-Paris : MC-RPA, TRAH-(SCF,CASSCF), AVAS, COSX integrals, SCF dyn. polar.
   Lee Huntington         : MR-EOM, pCC
   Robert Izsak           : Overlap fitted RIJCOSX, COSX-SCS-MP3, EOM
   Riya Kayal             : Wick's Theorem for AUTO-CI, AUTO-CI UHF-CCSDT
   Emily Kempfer          : AUTO-CI, RHF CISDT and CCSDT
   Christian Kollmar      : KDIIS, OOCD, Brueckner-CCSD(T), CCSD density, CASPT2, CASPT2-K, improved NEVPT2
   Axel Koslowski         : Symmetry handling
   Simone Kossmann        : Meta GGA functionals, TD-DFT gradient, OOMP2, (MP2 Hessian; deprecated post 5.0)
   Lucas Lang             : DCDCAS
   Marvin Lechner         : AUTO-CI (C++ implementation), FIC-MRCC
   Spencer Leger          : CASSCF response
   Dagmar Lenk            : GEPOL surface, SMD, ORCA-2-JSON
   Dimitrios Liakos       : Extrapolation schemes; Compound Job, initial MDCI parallelization
   Dimitrios Manganas     : Further ROCIS development; embedding schemes. LFT, Crystal Embedding
   Dimitrios Pantazis     : SARC Basis sets
   Anastasios Papadopoulos: AUTO-CI, single reference methods and gradients
   Taras Petrenko         : pre 6.0 DFT Hessian and TD-DFT gradient, (ASA, deprecated), ECA, 1-Electron XAS/XES, NRVS
   Peter Pinski           : DLPNO-MP2, DLPNO-MP2 Gradient
   Christoph Reimann      : Effective Core Potentials
   Marius Retegan         : Local ZFS, SOC
   Christoph Riplinger    : Optimizer, TS searches, QM/MM, DLPNO-CCSD(T), (RO)-DLPNO pert. Triples
   Michael Roemelt        : Original ROCIS implementation
   Masaaki Saitow         : Open-shell DLPNO-CCSD energy and density
   Barbara Sandhoefer     : DKH picture change effects
   Kantharuban Sivalingam : CASSCF convergence/infrastructure, NEVPT2 and variants, FIC-MRCI
   Bernardo de Souza      : ESD, SOC TD-DFT
   Georgi Stoychev        : AutoAux, RI-MP2 NMR, DLPNO-MP2 response, X2C
   Van Anh Tran           : RI-MP2 g-tensors
   Willem Van den Heuvel  : Paramagnetic NMR
   Zikuan Wang            : NOTCH, Electric field optimization 
   Frank Wennmohs         : Technical directorship and infrastructure
   Hang Xu                : AUTO-CI-Response properties 


 We gratefully acknowledge several colleagues who have allowed us to
 interface, adapt or use parts of their codes:
   Stefan Grimme, W. Hujo, H. Kruse, P. Pracht,  : VdW corrections, initial TS optimization,
                  C. Bannwarth, S. Ehlert,         DFT functionals, gCP, sTDA/sTD-DF
                  L. Wittmann, M. Mueller
   Ed Valeev, F. Pavosevic, A. Kumar             : LibInt (2-el integral package), F12 methods
   Garnet Chan, S. Sharma, J. Yang, R. Olivares  : DMRG
   Ulf Ekstrom                                   : XCFun DFT Library
   Mihaly Kallay                                 : mrcc  (arbitrary order and MRCC methods)
   Frank Weinhold                                : gennbo (NPA and NBO analysis)
   Simon Mueller                                 : openCOSMO-RS
   Christopher J. Cramer and Donald G. Truhlar   : smd solvation model
   Lars Goerigk                                  : TD-DFT with DH, B97 family of functionals
   V. Asgeirsson, H. Jonsson                     : NEB implementation
   FAccTs GmbH                                   : IRC, NEB, NEB-TS, DLPNO-Multilevel, CI-OPT
                                                   MM, QMMM, 2- and 3-layer-ONIOM, Crystal-QMMM,
                                                   LR-CPCM, SF, NACMEs, symmetry and pop. for TD-DFT,
                                                   nearIR, NL-DFT gradient (VV10), updates on ESD,
                                                   ML-optimized integration grids, MBIS, APM,
                                                   GOAT, DOCKER, SOLVATOR, interface openCOSMO-RS
   S Lehtola, MJT Oliveira, MAL Marques          : LibXC Library
   Liviu Ungur et al                             : ANISO software


 Your calculation uses the libint2 library for the computation of 2-el integrals
 For citations please refer to: http://libint.valeyev.net

 Your ORCA version has been built with support for libXC version: 6.2.2
 For citations please refer to: https://libxc.gitlab.io

 This ORCA versions uses:
   CBLAS   interface :  Fast vector & matrix operations
   LAPACKE interface :  Fast linear algebra routines
   SCALAPACK package :  Parallel linear algebra routines
   Shared memory     :  Shared parallel matrices
   BLAS/LAPACK       :  OpenBLAS 0.3.27  USE64BITINT DYNAMIC_ARCH NO_AFFINITY Zen SINGLE_THREADED
        Core in use  :  Zen
   Copyright (c) 2011-2014, The OpenBLAS Project


Your calculation utilizes the atom-pairwise dispersion correction
with the Becke-Johnson damping scheme (D3BJ)


Warning: RI is on but no J-basis has been assigned. Assigning Def2/J (nothing to worry about!)
================================================================================

----- Orbital basis set information -----
Your calculation utilizes the basis: def2-TZVPPD
   F. Weigend and R. Ahlrichs, Phys. Chem. Chem. Phys. 7, 3297 (2005).
   D. Rappoport and F. Furche, J. Chem. Phys. 133, 134105 (2010)
   D. Rappoport, J. Chem. Phys. 155, 124102 (2021).

----- AuxJ basis set information -----
Your calculation utilizes the auxiliary basis: def2/J
   F. Weigend, Phys. Chem. Chem. Phys. 8, 1057 (2006).

================================================================================
                                        WARNINGS
                       Please study these warnings very carefully!
================================================================================

Using LibXC functional ID 531 : wB97M-V exchange-correlation functional
[ 1]  N. Mardirossian and M. Head-Gordon.,  J. Chem. Phys. 144, 214110 (2016)
Using LibXC functional ID 531 : wB97M-V exchange-correlation functional
[ 1]  N. Mardirossian and M. Head-Gordon.,  J. Chem. Phys. 144, 214110 (2016)

WARNING: B97M-V or wB97M-V functional requested.
  ===> : libXC variant has now been activated.
         Any manually given DFX/HFX/RangeSep scaling parameters are IGNORED!

Your calculation utilizes LibXC
 by S Lehtola, C Steigemann, MJT Oliveira & MAL Marques
Please cite in your paper:
 S Lehtola, C Steigemann, MJT Oliveira & MAL Marques, SoftwareX, 7, (2018), 1.
   


WARNING: your system is open-shell and RHF/RKS was chosen
  ===> : WILL SWITCH to UHF/UKS

INFO   : Checking CIS options ...

WARNING: CIS/ROCIS methods need fully converged wavefunctions
  ===> : Setting SCFConvForced true
         You can overwrite this default with %scf ConvForced false 


================================================================================
                                       INPUT FILE
================================================================================
NAME = orca.inp
|  1> ! Engrad def2-TZVPPD wB97M-D3BJ 
|  2> %pal nprocs 8 end%pal nprocs 64 end 
|  3> %tddft Nroots 2 Iroot 2 
|  4> sf true 
|  5> end 
|  6> *xyz 0 3 
|  7> O   2.30753612 -0.30662332 -1.14833427
|  8> O   -0.13813496 2.78188581 -2.40657163
|  9> O   0.22902517 -3.80745167 0.80279416
| 10> O   -2.09964155 -1.05920502 -1.45460444
| 11> N   0.38594236 -1.91481128 2.02757175
| 12> N   -1.29109372 -0.10363931 0.50803421
| 13> N   1.01198133 -1.91954123 -0.25304022
| 14> N   -0.81413356 0.7370378 -1.60172032
| 15> C   1.198738 0.22284585 0.92065265
| 16> C   -0.54088173 2.55604688 -0.08425117
| 17> C   0.57872981 -0.52352234 2.14105662
| 18> C   -0.21772068 0.43535759 1.23950468
| 19> C   2.22219993 1.27537259 1.2123121
| 20> C   -1.51496403 3.45636409 0.49044841
| 21> C   1.55967769 -0.65057186 -0.25608283
| 22> C   -0.33084225 2.06023411 -1.41134862
| 23> C   0.52402733 -2.64773045 0.88743259
| 24> C   -1.45553744 -0.23364704 -0.83036771
| 25> H   0.82957776 -0.17226368 3.16658635
| 26> H   -0.44135906 1.33308022 1.74635237
| 27> H   2.36065961 1.90704773 0.32871361
| 28> H   1.95884629 1.89912239 2.06072106
| 29> H   3.15076692 0.73270054 1.39993289
| 30> H   -2.51246706 2.97998882 0.50385003
| 31> H   -1.22873022 3.74998288 1.52559661
| 32> H   -1.60849286 4.32554773 -0.20005913
| 33> H   -0.00570864 -2.47670526 2.78566628
| 34> H   -1.88235103 -0.79378005 1.03022285
| 35> H   1.22096011 -2.46299079 -1.07954681
| 36> H   -0.90827823 0.58175139 -2.5595844
| 37> *
| 38> 
| 39>                          ****END OF INPUT****
================================================================================

                     *******************************
                     * Energy+Gradient Calculation *
                     *******************************

---------------------------------
CARTESIAN COORDINATES (ANGSTROEM)
---------------------------------
  O      2.307536   -0.306623   -1.148334
  O     -0.138135    2.781886   -2.406572
  O      0.229025   -3.807452    0.802794
  O     -2.099642   -1.059205   -1.454604
  N      0.385942   -1.914811    2.027572
  N     -1.291094   -0.103639    0.508034
  N      1.011981   -1.919541   -0.253040
  N     -0.814134    0.737038   -1.601720
  C      1.198738    0.222846    0.920653
  C     -0.540882    2.556047   -0.084251
  C      0.578730   -0.523522    2.141057
  C     -0.217721    0.435358    1.239505
  C      2.222200    1.275373    1.212312
  C     -1.514964    3.456364    0.490448
  C      1.559678   -0.650572   -0.256083
  C     -0.330842    2.060234   -1.411349
  C      0.524027   -2.647730    0.887433
  C     -1.455537   -0.233647   -0.830368
  H      0.829578   -0.172264    3.166586
  H     -0.441359    1.333080    1.746352
  H      2.360660    1.907048    0.328714
  H      1.958846    1.899122    2.060721
  H      3.150767    0.732701    1.399933
  H     -2.512467    2.979989    0.503850
  H     -1.228730    3.749983    1.525597
  H     -1.608493    4.325548   -0.200059
  H     -0.005709   -2.476705    2.785666
  H     -1.882351   -0.793780    1.030223
  H      1.220960   -2.462991   -1.079547
  H     -0.908278    0.581751   -2.559584

----------------------------
CARTESIAN COORDINATES (A.U.)
----------------------------
  NO LB      ZA    FRAG     MASS         X           Y           Z
   0 O     8.0000    0    15.999    4.360611   -0.579434   -2.170037
   1 O     8.0000    0    15.999   -0.261037    5.257002   -4.547761
   2 O     8.0000    0    15.999    0.432795   -7.195041    1.517061
   3 O     8.0000    0    15.999   -3.967748   -2.001607   -2.748804
   4 N     7.0000    0    14.007    0.729325   -3.618469    3.831555
   5 N     7.0000    0    14.007   -2.439814   -0.195850    0.960046
   6 N     7.0000    0    14.007    1.912368   -3.627407   -0.478177
   7 N     7.0000    0    14.007   -1.538489    1.392800   -3.026813
   8 C     6.0000    0    12.011    2.265287    0.421118    1.739781
   9 C     6.0000    0    12.011   -1.022118    4.830229   -0.159212
  10 C     6.0000    0    12.011    1.093641   -0.989314    4.046011
  11 C     6.0000    0    12.011   -0.411432    0.822707    2.342324
  12 C     6.0000    0    12.011    4.199349    2.410105    2.290938
  13 C     6.0000    0    12.011   -2.862867    6.531582    0.926813
  14 C     6.0000    0    12.011    2.947364   -1.229403   -0.483926
  15 C     6.0000    0    12.011   -0.625201    3.893278   -2.667062
  16 C     6.0000    0    12.011    0.990268   -5.003485    1.677005
  17 C     6.0000    0    12.011   -2.750567   -0.441529   -1.569168
  18 H     1.0000    0     1.008    1.567675   -0.325531    5.983981
  19 H     1.0000    0     1.008   -0.834048    2.519157    3.300128
  20 H     1.0000    0     1.008    4.461000    3.603798    0.621179
  21 H     1.0000    0     1.008    3.701683    3.588821    3.894198
  22 H     1.0000    0     1.008    5.954087    1.384603    2.645490
  23 H     1.0000    0     1.008   -4.747875    5.631363    0.952139
  24 H     1.0000    0     1.008   -2.321964    7.086441    2.882960
  25 H     1.0000    0     1.008   -3.039611    8.174101   -0.378057
  26 H     1.0000    0     1.008   -0.010788   -4.680295    5.264146
  27 H     1.0000    0     1.008   -3.557128   -1.500027    1.946839
  28 H     1.0000    0     1.008    2.307280   -4.654378   -2.040048
  29 H     1.0000    0     1.008   -1.716397    1.099351   -4.836914

--------------------------------
INTERNAL COORDINATES (ANGSTROEM)
--------------------------------
 O      0   0   0     0.000000000000     0.00000000     0.00000000
 O      1   0   0     4.135620501417     0.00000000     0.00000000
 O      1   2   0     4.514743520488   115.99667004     0.00000000
 O      3   1   2     4.251046551304    61.40606337    16.02539073
 N      3   1   2     2.259820965330    63.43769414   286.14129403
 N      4   3   1     2.327832874156    68.12382938   291.01305627
 N      1   2   3     2.254222223796   108.37947621     0.96140437
 N      4   3   1     2.213743919902   103.99018999   341.83727614
 C      1   2   3     2.406341153708    79.90848095   303.61547773
 C      2   1   3     2.367779656552    74.39257070    58.04115654
 C      5   3   1     1.409159583285   151.64768488    19.56611079
 C      6   4   3     1.406305937444   149.42643725    74.55252511
 C      9   1   2     1.496780576888    90.41213033   273.50816727
 C     10   2   1     1.445574976626   116.43214449   180.50606387
 C      1   2   3     1.213962710165    94.06549758   331.76489911
 C      2   1   3     1.244341639328    54.20698973    33.16566289
 C      3   1   2     1.199642966201    33.66033373   292.44890796
 C      4   3   1     1.219051917656    82.90351340   314.08615820
 H     11   5   3     1.112662827346   114.63014512   196.99961612
 H     12   6   4     1.054900292104   114.47300040   134.43668986
 H     13   9   1     1.094957011489   109.56579851    48.23664433
 H     13   9   1     1.085456915824   112.98506438   170.31497172
 H     13   9   1     1.091756002781   105.39807802   291.63357077
 H     14  10   2     1.105497759448   110.14839630    93.62420248
 H     14  10   2     1.113406297715   111.13872294   215.20368599
 H     14  10   2     1.114014589169   107.22255698   339.25769446
 H      5   3   1     1.021676400323    85.11963305   186.44447716
 H      6   4   3     1.048122332260    87.35326665   295.45574006
 H      7   1   2     1.011000839796    86.62493474   108.04887706
 H      8   4   3     0.974925988870    83.10654889   121.31429606

---------------------------
INTERNAL COORDINATES (A.U.)
---------------------------
 O      0   0   0     0.000000000000     0.00000000     0.00000000
 O      1   0   0     7.815190141508     0.00000000     0.00000000
 O      1   2   0     8.531628818618   115.99667004     0.00000000
 O      3   1   2     8.033313764515    61.40606337    16.02539073
 N      3   1   2     4.270442736166    63.43769414   286.14129403
 N      4   3   1     4.398966617693    68.12382938   291.01305627
 N      1   2   3     4.259862647974   108.37947621     0.96140437
 N      4   3   1     4.183369739248   103.99018999   341.83727614
 C      1   2   3     4.547325765292    79.90848095   303.61547773
 C      2   1   3     4.474455096354    74.39257070    58.04115654
 C      5   3   1     2.662925691398   151.64768488    19.56611079
 C      6   4   3     2.657533082277   149.42643725    74.55252511
 C      9   1   2     2.828505372891    90.41213033   273.50816727
 C     10   2   1     2.731740811873   116.43214449   180.50606387
 C      1   2   3     2.294057059006    94.06549758   331.76489911
 C      2   1   3     2.351464915365    54.20698973    33.16566289
 C      3   1   2     2.266996664605    33.66033373   292.44890796
 C      4   3   1     2.303674267402    82.90351340   314.08615820
 H     11   5   3     2.102628023079   114.63014512   196.99961612
 H     12   6   4     1.993472650670   114.47300040   134.43668986
 H     13   9   1     2.069168880132   109.56579851    48.23664433
 H     13   9   1     2.051216301078   112.98506438   170.31497172
 H     13   9   1     2.063119850321   105.39807802   291.63357077
 H     14  10   2     2.089088007021   110.14839630    93.62420248
 H     14  10   2     2.104032978465   111.13872294   215.20368599
 H     14  10   2     2.105182482722   107.22255698   339.25769446
 H      5   3   1     1.930688594101    85.11963305   186.44447716
 H      6   4   3     1.980664162817    87.35326665   295.45574006
 H      7   1   2     1.910514708379    86.62493474   108.04887706
 H      8   4   3     1.842343119807    83.10654889   121.31429606

---------------------
BASIS SET INFORMATION
---------------------
There are 4 groups of distinct atoms

 Group   1 Type O   : 12s7p3d1f contracted to 6s4p3d1f pattern {621111/4111/111/1}
 Group   2 Type N   : 12s6p3d1f contracted to 6s3p3d1f pattern {621111/411/111/1}
 Group   3 Type C   : 12s6p3d1f contracted to 6s3p3d1f pattern {621111/411/111/1}
 Group   4 Type H   : 5s3p1d contracted to 3s3p1d pattern {311/111/1}

Atom   0O    basis set group =>   1
Atom   1O    basis set group =>   1
Atom   2O    basis set group =>   1
Atom   3O    basis set group =>   1
Atom   4N    basis set group =>   2
Atom   5N    basis set group =>   2
Atom   6N    basis set group =>   2
Atom   7N    basis set group =>   2
Atom   8C    basis set group =>   3
Atom   9C    basis set group =>   3
Atom  10C    basis set group =>   3
Atom  11C    basis set group =>   3
Atom  12C    basis set group =>   3
Atom  13C    basis set group =>   3
Atom  14C    basis set group =>   3
Atom  15C    basis set group =>   3
Atom  16C    basis set group =>   3
Atom  17C    basis set group =>   3
Atom  18H    basis set group =>   4
Atom  19H    basis set group =>   4
Atom  20H    basis set group =>   4
Atom  21H    basis set group =>   4
Atom  22H    basis set group =>   4
Atom  23H    basis set group =>   4
Atom  24H    basis set group =>   4
Atom  25H    basis set group =>   4
Atom  26H    basis set group =>   4
Atom  27H    basis set group =>   4
Atom  28H    basis set group =>   4
Atom  29H    basis set group =>   4
---------------------------------
AUXILIARY/J BASIS SET INFORMATION
---------------------------------
There are 4 groups of distinct atoms

 Group   1 Type O   : 12s5p4d2f1g contracted to 6s4p3d1f1g pattern {711111/2111/211/2/1}
 Group   2 Type N   : 12s5p4d2f1g contracted to 6s4p3d1f1g pattern {711111/2111/211/2/1}
 Group   3 Type C   : 12s5p4d2f1g contracted to 6s4p3d1f1g pattern {711111/2111/211/2/1}
 Group   4 Type H   : 5s2p1d contracted to 3s1p1d pattern {311/2/1}

Atom   0O    basis set group =>   1
Atom   1O    basis set group =>   1
Atom   2O    basis set group =>   1
Atom   3O    basis set group =>   1
Atom   4N    basis set group =>   2
Atom   5N    basis set group =>   2
Atom   6N    basis set group =>   2
Atom   7N    basis set group =>   2
Atom   8C    basis set group =>   3
Atom   9C    basis set group =>   3
Atom  10C    basis set group =>   3
Atom  11C    basis set group =>   3
Atom  12C    basis set group =>   3
Atom  13C    basis set group =>   3
Atom  14C    basis set group =>   3
Atom  15C    basis set group =>   3
Atom  16C    basis set group =>   3
Atom  17C    basis set group =>   3
Atom  18H    basis set group =>   4
Atom  19H    basis set group =>   4
Atom  20H    basis set group =>   4
Atom  21H    basis set group =>   4
Atom  22H    basis set group =>   4
Atom  23H    basis set group =>   4
Atom  24H    basis set group =>   4
Atom  25H    basis set group =>   4
Atom  26H    basis set group =>   4
Atom  27H    basis set group =>   4
Atom  28H    basis set group =>   4
Atom  29H    basis set group =>   4
[1739912164.379228] [ohm:470246:0]        ib_iface.c:1059 UCX  ERROR ibv_create_cq(cqe=256) failed: Connection timed out
[1739912164.396705] [ohm:470252:0]        ib_iface.c:1059 UCX  ERROR ibv_create_cq(cqe=256) failed: Connection timed out
[1739912164.412925] [ohm:470250:0]        ib_iface.c:1059 UCX  ERROR ibv_create_cq(cqe=256) failed: Connection timed out
[1739912164.433557] [ohm:470257:0]        ib_iface.c:1059 UCX  ERROR ibv_create_cq(cqe=256) failed: Connection timed out
[1739912164.437925] [ohm:470245:0]        ib_iface.c:1059 UCX  ERROR ibv_create_cq(cqe=256) failed: Connection timed out
[1739912164.443382] [ohm:470253:0]        ib_iface.c:1059 UCX  ERROR ibv_create_cq(cqe=256) failed: Connection timed out
[1739912164.446759] [ohm:470280:0]        ib_iface.c:1059 UCX  ERROR ibv_create_cq(cqe=256) failed: Connection timed out
[1739912164.451306] [ohm:470256:0]        ib_iface.c:1059 UCX  ERROR ibv_create_cq(cqe=256) failed: Connection timed out
[1739912164.453973] [ohm:470249:0]        ib_iface.c:1059 UCX  ERROR ibv_create_cq(cqe=256) failed: Connection timed out
[1739912164.455762] [ohm:470248:0]        ib_iface.c:1059 UCX  ERROR ibv_create_cq(cqe=256) failed: Connection timed out
[1739912164.455945] [ohm:470247:0]        ib_iface.c:1059 UCX  ERROR ibv_create_cq(cqe=256) failed: Connection timed out
[1739912164.459099] [ohm:470255:0]        ib_iface.c:1059 UCX  ERROR ibv_create_cq(cqe=256) failed: Connection timed out
[1739912164.483553] [ohm:470300:0]        ib_iface.c:1059 UCX  ERROR ibv_create_cq(cqe=256) failed: Connection timed out
[1739912164.494253] [ohm:470328:0]        ib_iface.c:1059 UCX  ERROR ibv_create_cq(cqe=256) failed: Connection timed out
[1739912164.498406] [ohm:470316:0]        ib_iface.c:1059 UCX  ERROR ibv_create_cq(cqe=256) failed: Connection timed out
[1739912164.499137] [ohm:470251:0]        ib_iface.c:1059 UCX  ERROR ibv_create_cq(cqe=256) failed: Connection timed out
[1739912164.500379] [ohm:470340:0]        ib_iface.c:1059 UCX  ERROR ibv_create_cq(cqe=256) failed: Connection timed out
[1739912164.511913] [ohm:470360:0]        ib_iface.c:1059 UCX  ERROR ibv_create_cq(cqe=256) failed: Connection timed out
[1739912164.519938] [ohm:470287:0]        ib_iface.c:1059 UCX  ERROR ibv_create_cq(cqe=256) failed: Connection timed out
[1739912164.543718] [ohm:470336:0]        ib_iface.c:1059 UCX  ERROR ibv_create_cq(cqe=256) failed: Connection timed out
[1739912164.547633] [ohm:470267:0]        ib_iface.c:1059 UCX  ERROR ibv_create_cq(cqe=256) failed: Connection timed out
[1739912164.548456] [ohm:470374:0]        ib_iface.c:1059 UCX  ERROR ibv_create_cq(cqe=256) failed: Connection timed out
[1739912164.550370] [ohm:470265:0]        ib_iface.c:1059 UCX  ERROR ibv_create_cq(cqe=256) failed: Connection timed out
[1739912164.553658] [ohm:470254:0]        ib_iface.c:1059 UCX  ERROR ibv_create_cq(cqe=256) failed: Connection timed out
[1739912164.593329] [ohm:470260:0]        ib_iface.c:1059 UCX  ERROR ibv_create_cq(cqe=256) failed: Connection timed out
[1739912164.596765] [ohm:470268:0]        ib_iface.c:1059 UCX  ERROR ibv_create_cq(cqe=256) failed: Connection timed out
[1739912164.597879] [ohm:470294:0]        ib_iface.c:1059 UCX  ERROR ibv_create_cq(cqe=256) failed: Connection timed out
[1739912164.606222] [ohm:470266:0]        ib_iface.c:1059 UCX  ERROR ibv_create_cq(cqe=256) failed: Connection timed out
[1739912164.610898] [ohm:470262:0]        ib_iface.c:1059 UCX  ERROR ibv_create_cq(cqe=256) failed: Connection timed out
[1739912164.611859] [ohm:470298:0]        ib_iface.c:1059 UCX  ERROR ibv_create_cq(cqe=256) failed: Connection timed out
[1739912164.623571] [ohm:470335:0]        ib_iface.c:1059 UCX  ERROR ibv_create_cq(cqe=256) failed: Connection timed out
[1739912164.630838] [ohm:470264:0]        ib_iface.c:1059 UCX  ERROR ibv_create_cq(cqe=256) failed: Connection timed out
[1739912164.656063] [ohm:470351:0]        ib_iface.c:1059 UCX  ERROR ibv_create_cq(cqe=256) failed: Connection timed out
[1739912164.659716] [ohm:470318:0]        ib_iface.c:1059 UCX  ERROR ibv_create_cq(cqe=256) failed: Connection timed out
[1739912164.661285] [ohm:470289:0]        ib_iface.c:1059 UCX  ERROR ibv_create_cq(cqe=256) failed: Connection timed out
[1739912164.666274] [ohm:470388:0]        ib_iface.c:1059 UCX  ERROR ibv_create_cq(cqe=256) failed: Connection timed out
[1739912164.669413] [ohm:470258:0]        ib_iface.c:1059 UCX  ERROR ibv_create_cq(cqe=256) failed: Connection timed out
[1739912164.671567] [ohm:470312:0]        ib_iface.c:1059 UCX  ERROR ibv_create_cq(cqe=256) failed: Connection timed out
[1739912164.672150] [ohm:470304:0]        ib_iface.c:1059 UCX  ERROR ibv_create_cq(cqe=256) failed: Connection timed out
[1739912164.672922] [ohm:470263:0]        ib_iface.c:1059 UCX  ERROR ibv_create_cq(cqe=256) failed: Connection timed out
[1739912164.691154] [ohm:470261:0]        ib_iface.c:1059 UCX  ERROR ibv_create_cq(cqe=256) failed: Connection timed out
[1739912164.692569] [ohm:470308:0]        ib_iface.c:1059 UCX  ERROR ibv_create_cq(cqe=256) failed: Connection timed out
[1739912164.692678] [ohm:470395:0]        ib_iface.c:1059 UCX  ERROR ibv_create_cq(cqe=256) failed: Connection timed out
[1739912164.692868] [ohm:470384:0]        ib_iface.c:1059 UCX  ERROR ibv_create_cq(cqe=256) failed: Connection timed out
[1739912164.694231] [ohm:470363:0]        ib_iface.c:1059 UCX  ERROR ibv_create_cq(cqe=256) failed: Connection timed out
[1739912164.699698] [ohm:470367:0]        ib_iface.c:1059 UCX  ERROR ibv_create_cq(cqe=256) failed: Connection timed out
[1739912164.702115] [ohm:470320:0]        ib_iface.c:1059 UCX  ERROR ibv_create_cq(cqe=256) failed: Connection timed out
[1739912164.710877] [ohm:470284:0]        ib_iface.c:1059 UCX  ERROR ibv_create_cq(cqe=256) failed: Connection timed out
[1739912164.713579] [ohm:470271:0]        ib_iface.c:1059 UCX  ERROR ibv_create_cq(cqe=256) failed: Connection timed out
[1739912164.716606] [ohm:470259:0]        ib_iface.c:1059 UCX  ERROR ibv_create_cq(cqe=256) failed: Connection timed out
[1739912164.716696] [ohm:470290:0]        ib_iface.c:1059 UCX  ERROR ibv_create_cq(cqe=256) failed: Connection timed out
[1739912164.718331] [ohm:470275:0]        ib_iface.c:1059 UCX  ERROR ibv_create_cq(cqe=256) failed: Connection timed out
[1739912164.720926] [ohm:470354:0]        ib_iface.c:1059 UCX  ERROR ibv_create_cq(cqe=256) failed: Connection timed out
[1739912164.722007] [ohm:470293:0]        ib_iface.c:1059 UCX  ERROR ibv_create_cq(cqe=256) failed: Connection timed out
[1739912164.723118] [ohm:470324:0]        ib_iface.c:1059 UCX  ERROR ibv_create_cq(cqe=256) failed: Connection timed out
[1739912164.729800] [ohm:470376:0]        ib_iface.c:1059 UCX  ERROR ibv_create_cq(cqe=256) failed: Connection timed out
[1739912164.731628] [ohm:470314:0]        ib_iface.c:1059 UCX  ERROR ibv_create_cq(cqe=256) failed: Connection timed out
[1739912164.734736] [ohm:470331:0]        ib_iface.c:1059 UCX  ERROR ibv_create_cq(cqe=256) failed: Connection timed out
[1739912164.735754] [ohm:470370:0]        ib_iface.c:1059 UCX  ERROR ibv_create_cq(cqe=256) failed: Connection timed out
[1739912164.735939] [ohm:470348:0]        ib_iface.c:1059 UCX  ERROR ibv_create_cq(cqe=256) failed: Connection timed out
[1739912164.741103] [ohm:470381:0]        ib_iface.c:1059 UCX  ERROR ibv_create_cq(cqe=256) failed: Connection timed out
[1739912164.741615] [ohm:470344:0]        ib_iface.c:1059 UCX  ERROR ibv_create_cq(cqe=256) failed: Connection timed out
[1739912164.742858] [ohm:470356:0]        ib_iface.c:1059 UCX  ERROR ibv_create_cq(cqe=256) failed: Connection timed out
[1739912164.742843] [ohm:470400:0]        ib_iface.c:1059 UCX  ERROR ibv_create_cq(cqe=256) failed: Connection timed out


           ************************************************************
           *        Program running with 64 parallel MPI-processes    *
           *              working on a common directory               *
           ************************************************************
------------------------------------------------------------------------------
                             ORCA STARTUP CALCULATIONS
                           -- RI-GTO INTEGRALS CHOSEN --
------------------------------------------------------------------------------
------------------------------------------------------------------------------
                   ___                                                        
                  /   \      - P O W E R E D   B Y -                         
                 /     \                                                     
                 |  |  |   _    _      __       _____    __    __             
                 |  |  |  | |  | |    /  \     |  _  \  |  |  /  |          
                  \  \/   | |  | |   /    \    | | | |  |  | /  /          
                 / \  \   | |__| |  /  /\  \   | |_| |  |  |/  /          
                |  |  |   |  __  | /  /__\  \  |    /   |      \           
                |  |  |   | |  | | |   __   |  |    \   |  |\   \          
                \     /   | |  | | |  |  |  |  | |\  \  |  | \   \       
                 \___/    |_|  |_| |__|  |__|  |_| \__\ |__|  \__/        
                                                                              
                      - O R C A' S   B I G   F R I E N D -                    
                                      &                                       
                       - I N T E G R A L  F E E D E R -                       
                                                                              
 v1 FN, 2020, v2 2021, v3 2022-2024                                           
------------------------------------------------------------------------------


----------------------
SHARK INTEGRAL PACKAGE
----------------------

Number of atoms                             ...     30
Number of basis functions                   ...    882
Number of shells                            ...    322
Maximum angular momentum                    ...      3
Integral batch strategy                     ... SHARK/LIBINT Hybrid
RI-J (if used) integral strategy            ... SPLIT-RIJ (Revised 2003 algorithm where possible)
Printlevel                                  ...      1
Contraction scheme used                     ... SEGMENTED contraction
Prescreening option                         ... SCHWARTZ
   Thresh                                   ... 2.500e-11
   Tcut                                     ... 2.500e-12
   Tpresel                                  ... 2.500e-12 
Coulomb Range Separation                    ... NOT USED
Exchange Range Separation                   ... Long Range
   Mu parameter                             ... 3.000e-01
   Scaling (regular/separated)              ... 1.500e-01 8.500e-01
Multipole approximations                    ... NOT USED
Finite Nucleus Model                        ... NOT USED
CABS basis                                  ... NOT available
Auxiliary Coulomb fitting basis             ... AVAILABLE
   # of basis functions in Aux-J            ...   1014
   # of shells in Aux-J                     ...    330
   Maximum angular momentum in Aux-J        ...      4
Auxiliary J/K fitting basis                 ... NOT available
Auxiliary Correlation fitting basis         ... NOT available
Auxiliary 'external' fitting basis          ... NOT available

Checking pre-screening integrals            ... done (  0.0 sec) Dimension = 322
Check shell pair data                       ... done (  0.0 sec)
Shell pair information
Shell pair cut-off parameter TPreSel        ...   2.5e-12
Total number of shell pairs                 ...     52003
Shell pairs after pre-screening             ...     44687
Total number of primitive shell pairs       ...    129718
Primitive shell pairs kept                  ...     83414
          la=0 lb=0:   8652 shell pairs
          la=1 lb=0:  11835 shell pairs
          la=1 lb=1:   4081 shell pairs
          la=2 lb=0:   8026 shell pairs
          la=2 lb=1:   5548 shell pairs
          la=2 lb=2:   1908 shell pairs
          la=3 lb=0:   2054 shell pairs
          la=3 lb=1:   1450 shell pairs
          la=3 lb=2:    995 shell pairs
          la=3 lb=3:    138 shell pairs

Calculating one electron integrals          ... done (  0.2 sec)
Calculating RI/J V-Matrix + Cholesky decomp.... done (  0.1 sec)
Calculating Nuclear repulsion               ... done (  0.0 sec) ENN=   1436.937717881079 Eh

Diagonalization of the overlap matrix:
Smallest eigenvalue                        ... 4.165e-07
Time for diagonalization                   ...    0.126 sec
Threshold for overlap eigenvalues          ... 1.000e-07
Number of eigenvalues below threshold      ... 0

IMPORTANT:
Smallest eigenvalue of S below the DiffSThresh (1.000e-06) while
Thresh>1e-12 and/or TCut>1e-13! In order to avoid SCF convergence issues,
Thresh will be set to at least 1e-12 and TCut to at least 1e-13.
This can be turned off by adding %SCF DiffSThresh -1 END to the input.

Time for construction of square roots      ...    0.140 sec
Total time needed                          ...    0.284 sec

-------------------
DFT GRID GENERATION
-------------------

General Integration Accuracy     IntAcc      ... 4.388
Radial Grid Type                 RadialGrid  ... OptM3 with GC (2021)
Angular Grid (max. ang.)         AngularGrid ... 4 (Lebedev-302)
Angular grid pruning method      GridPruning ... 4 (adaptive)
Weight generation scheme         WeightScheme... mBecke (2022)
Basis function cutoff            BFCut       ... 1.0000e-11
Integration weight cutoff        WCut        ... 1.0000e-14
Partially contracted basis set               ... off
Rotationally invariant grid construction     ... off
Angular grids for H and He will be reduced by one unit
Diffuse basis detected: some atoms will have their outermost
                        angular grid increased by 1.

Total number of grid points                  ...   152160
Total number of batches                      ...     2393
Average number of points per batch           ...       63
Average number of grid points per atom       ...     5072

--------------------
COSX GRID GENERATION
--------------------

GRIDX 1
-------
General Integration Accuracy     IntAcc      ... 3.816
Radial Grid Type                 RadialGrid  ... OptM3 with GC (2021)
Angular Grid (max. ang.)         AngularGrid ... 1 (Lebedev-50)
Angular grid pruning method      GridPruning ... 4 (adaptive)
Weight generation scheme         WeightScheme... mBecke (2022)
Basis function cutoff            BFCut       ... 1.0000e-11
Integration weight cutoff        WCut        ... 1.0000e-14
Partially contracted basis set               ... on
Rotationally invariant grid construction     ... off
Angular grids for H and He will be reduced by one unit
Diffuse basis detected: some atoms will have their outermost
                        angular grid increased by 1.

Total number of grid points                  ...    19062
Total number of batches                      ...      165
Average number of points per batch           ...      115
Average number of grid points per atom       ...      635
UseSFitting                                  ... on

GRIDX 2
-------
General Integration Accuracy     IntAcc      ... 4.020
Radial Grid Type                 RadialGrid  ... OptM3 with GC (2021)
Angular Grid (max. ang.)         AngularGrid ... 2 (Lebedev-110)
Angular grid pruning method      GridPruning ... 4 (adaptive)
Weight generation scheme         WeightScheme... mBecke (2022)
Basis function cutoff            BFCut       ... 1.0000e-11
Integration weight cutoff        WCut        ... 1.0000e-14
Partially contracted basis set               ... on
Rotationally invariant grid construction     ... off
Angular grids for H and He will be reduced by one unit
Diffuse basis detected: some atoms will have their outermost
                        angular grid increased by 1.

Total number of grid points                  ...    45957
Total number of batches                      ...      375
Average number of points per batch           ...      122
Average number of grid points per atom       ...     1532
UseSFitting                                  ... on

GRIDX 3
-------
General Integration Accuracy     IntAcc      ... 4.338
Radial Grid Type                 RadialGrid  ... OptM3 with GC (2021)
Angular Grid (max. ang.)         AngularGrid ... 3 (Lebedev-194)
Angular grid pruning method      GridPruning ... 4 (adaptive)
Weight generation scheme         WeightScheme... mBecke (2022)
Basis function cutoff            BFCut       ... 1.0000e-11
Integration weight cutoff        WCut        ... 1.0000e-14
Partially contracted basis set               ... on
Rotationally invariant grid construction     ... off
Angular grids for H and He will be reduced by one unit
Diffuse basis detected: some atoms will have their outermost
                        angular grid increased by 1.

Total number of grid points                  ...   101145
Total number of batches                      ...      806
Average number of points per batch           ...      125
Average number of grid points per atom       ...     3372
UseSFitting                                  ... on
Initializing property integral containers    ... done (  0.0 sec)

SHARK setup successfully completed in   4.2 seconds

Maximum memory used throughout the entire STARTUP-calculation: 79.7 MB
[1739912170.737466] [ohm:470612:0]        ib_iface.c:1059 UCX  ERROR ibv_create_cq(cqe=256) failed: Connection timed out
[1739912170.740307] [ohm:470615:0]        ib_iface.c:1059 UCX  ERROR ibv_create_cq(cqe=256) failed: Connection timed out
[1739912170.742390] [ohm:470613:0]        ib_iface.c:1059 UCX  ERROR ibv_create_cq(cqe=256) failed: Connection timed out
[1739912170.770680] [ohm:470614:0]        ib_iface.c:1059 UCX  ERROR ibv_create_cq(cqe=256) failed: Connection timed out
[1739912170.804539] [ohm:470617:0]        ib_iface.c:1059 UCX  ERROR ibv_create_cq(cqe=256) failed: Connection timed out
[1739912170.809578] [ohm:470621:0]        ib_iface.c:1059 UCX  ERROR ibv_create_cq(cqe=256) failed: Connection timed out
[1739912170.809611] [ohm:470629:0]        ib_iface.c:1059 UCX  ERROR ibv_create_cq(cqe=256) failed: Connection timed out
[1739912170.819211] [ohm:470627:0]        ib_iface.c:1059 UCX  ERROR ibv_create_cq(cqe=256) failed: Connection timed out
[1739912170.819645] [ohm:470619:0]        ib_iface.c:1059 UCX  ERROR ibv_create_cq(cqe=256) failed: Connection timed out
[1739912170.822043] [ohm:470618:0]        ib_iface.c:1059 UCX  ERROR ibv_create_cq(cqe=256) failed: Connection timed out
[1739912170.824546] [ohm:470624:0]        ib_iface.c:1059 UCX  ERROR ibv_create_cq(cqe=256) failed: Connection timed out
[1739912170.840194] [ohm:470630:0]        ib_iface.c:1059 UCX  ERROR ibv_create_cq(cqe=256) failed: Connection timed out
[1739912170.884810] [ohm:470620:0]        ib_iface.c:1059 UCX  ERROR ibv_create_cq(cqe=256) failed: Connection timed out
[1739912170.888524] [ohm:470673:0]        ib_iface.c:1059 UCX  ERROR ibv_create_cq(cqe=256) failed: Connection timed out
[1739912170.893101] [ohm:470749:0]        ib_iface.c:1059 UCX  ERROR ibv_create_cq(cqe=256) failed: Connection timed out
[1739912170.899116] [ohm:470623:0]        ib_iface.c:1059 UCX  ERROR ibv_create_cq(cqe=256) failed: Connection timed out
[1739912170.903059] [ohm:470684:0]        ib_iface.c:1059 UCX  ERROR ibv_create_cq(cqe=256) failed: Connection timed out
[1739912170.904654] [ohm:470660:0]        ib_iface.c:1059 UCX  ERROR ibv_create_cq(cqe=256) failed: Connection timed out
[1739912170.909857] [ohm:470616:0]        ib_iface.c:1059 UCX  ERROR ibv_create_cq(cqe=256) failed: Connection timed out
[1739912170.951035] [ohm:470675:0]        ib_iface.c:1059 UCX  ERROR ibv_create_cq(cqe=256) failed: Connection timed out
[1739912170.956253] [ohm:470638:0]        ib_iface.c:1059 UCX  ERROR ibv_create_cq(cqe=256) failed: Connection timed out
[1739912170.956263] [ohm:470669:0]        ib_iface.c:1059 UCX  ERROR ibv_create_cq(cqe=256) failed: Connection timed out
[1739912170.964706] [ohm:470635:0]        ib_iface.c:1059 UCX  ERROR ibv_create_cq(cqe=256) failed: Connection timed out
[1739912170.969205] [ohm:470651:0]        ib_iface.c:1059 UCX  ERROR ibv_create_cq(cqe=256) failed: Connection timed out
[1739912170.969943] [ohm:470712:0]        ib_iface.c:1059 UCX  ERROR ibv_create_cq(cqe=256) failed: Connection timed out
[1739912170.978234] [ohm:470678:0]        ib_iface.c:1059 UCX  ERROR ibv_create_cq(cqe=256) failed: Connection timed out
[1739912170.984572] [ohm:470709:0]        ib_iface.c:1059 UCX  ERROR ibv_create_cq(cqe=256) failed: Connection timed out
[1739912170.987682] [ohm:470746:0]        ib_iface.c:1059 UCX  ERROR ibv_create_cq(cqe=256) failed: Connection timed out
[1739912170.989732] [ohm:470693:0]        ib_iface.c:1059 UCX  ERROR ibv_create_cq(cqe=256) failed: Connection timed out
[1739912170.999803] [ohm:470717:0]        ib_iface.c:1059 UCX  ERROR ibv_create_cq(cqe=256) failed: Connection timed out
[1739912171.004705] [ohm:470636:0]        ib_iface.c:1059 UCX  ERROR ibv_create_cq(cqe=256) failed: Connection timed out
[1739912171.005755] [ohm:470632:0]        ib_iface.c:1059 UCX  ERROR ibv_create_cq(cqe=256) failed: Connection timed out
[1739912171.007029] [ohm:470646:0]        ib_iface.c:1059 UCX  ERROR ibv_create_cq(cqe=256) failed: Connection timed out
[1739912171.026488] [ohm:470625:0]        ib_iface.c:1059 UCX  ERROR ibv_create_cq(cqe=256) failed: Connection timed out
[1739912171.026566] [ohm:470703:0]        ib_iface.c:1059 UCX  ERROR ibv_create_cq(cqe=256) failed: Connection timed out
[1739912171.029306] [ohm:470757:0]        ib_iface.c:1059 UCX  ERROR ibv_create_cq(cqe=256) failed: Connection timed out
[1739912171.035169] [ohm:470628:0]        ib_iface.c:1059 UCX  ERROR ibv_create_cq(cqe=256) failed: Connection timed out
[1739912171.035631] [ohm:470701:0]        ib_iface.c:1059 UCX  ERROR ibv_create_cq(cqe=256) failed: Connection timed out
[1739912171.038636] [ohm:470639:0]        ib_iface.c:1059 UCX  ERROR ibv_create_cq(cqe=256) failed: Connection timed out
[1739912171.040517] [ohm:470726:0]        ib_iface.c:1059 UCX  ERROR ibv_create_cq(cqe=256) failed: Connection timed out
[1739912171.043786] [ohm:470671:0]        ib_iface.c:1059 UCX  ERROR ibv_create_cq(cqe=256) failed: Connection timed out
[1739912171.047040] [ohm:470698:0]        ib_iface.c:1059 UCX  ERROR ibv_create_cq(cqe=256) failed: Connection timed out
[1739912171.051294] [ohm:470754:0]        ib_iface.c:1059 UCX  ERROR ibv_create_cq(cqe=256) failed: Connection timed out
[1739912171.052046] [ohm:470655:0]        ib_iface.c:1059 UCX  ERROR ibv_create_cq(cqe=256) failed: Connection timed out
[1739912171.054846] [ohm:470743:0]        ib_iface.c:1059 UCX  ERROR ibv_create_cq(cqe=256) failed: Connection timed out
[1739912171.055436] [ohm:470735:0]        ib_iface.c:1059 UCX  ERROR ibv_create_cq(cqe=256) failed: Connection timed out
[1739912171.055792] [ohm:470728:0]        ib_iface.c:1059 UCX  ERROR ibv_create_cq(cqe=256) failed: Connection timed out
[1739912171.056302] [ohm:470641:0]        ib_iface.c:1059 UCX  ERROR ibv_create_cq(cqe=256) failed: Connection timed out
[1739912171.068115] [ohm:470722:0]        ib_iface.c:1059 UCX  ERROR ibv_create_cq(cqe=256) failed: Connection timed out
[1739912171.068994] [ohm:470626:0]        ib_iface.c:1059 UCX  ERROR ibv_create_cq(cqe=256) failed: Connection timed out
[1739912171.072885] [ohm:470634:0]        ib_iface.c:1059 UCX  ERROR ibv_create_cq(cqe=256) failed: Connection timed out
[1739912171.074286] [ohm:470716:0]        ib_iface.c:1059 UCX  ERROR ibv_create_cq(cqe=256) failed: Connection timed out
[1739912171.077883] [ohm:470644:0]        ib_iface.c:1059 UCX  ERROR ibv_create_cq(cqe=256) failed: Connection timed out
[1739912171.085120] [ohm:470637:0]        ib_iface.c:1059 UCX  ERROR ibv_create_cq(cqe=256) failed: Connection timed out
[1739912171.085756] [ohm:470663:0]        ib_iface.c:1059 UCX  ERROR ibv_create_cq(cqe=256) failed: Connection timed out
[1739912171.085814] [ohm:470688:0]        ib_iface.c:1059 UCX  ERROR ibv_create_cq(cqe=256) failed: Connection timed out
[1739912171.085827] [ohm:470708:0]        ib_iface.c:1059 UCX  ERROR ibv_create_cq(cqe=256) failed: Connection timed out
[1739912171.086547] [ohm:470733:0]        ib_iface.c:1059 UCX  ERROR ibv_create_cq(cqe=256) failed: Connection timed out
[1739912171.086844] [ohm:470633:0]        ib_iface.c:1059 UCX  ERROR ibv_create_cq(cqe=256) failed: Connection timed out
[1739912171.089251] [ohm:470631:0]        ib_iface.c:1059 UCX  ERROR ibv_create_cq(cqe=256) failed: Connection timed out
[1739912171.089456] [ohm:470737:0]        ib_iface.c:1059 UCX  ERROR ibv_create_cq(cqe=256) failed: Connection timed out
[1739912171.089691] [ohm:470622:0]        ib_iface.c:1059 UCX  ERROR ibv_create_cq(cqe=256) failed: Connection timed out
[1739912171.090444] [ohm:470751:0]        ib_iface.c:1059 UCX  ERROR ibv_create_cq(cqe=256) failed: Connection timed out
[1739912171.090893] [ohm:470640:0]        ib_iface.c:1059 UCX  ERROR ibv_create_cq(cqe=256) failed: Connection timed out


           ************************************************************
           *        Program running with 64 parallel MPI-processes    *
           *              working on a common directory               *
           ************************************************************
-------------------------------------------------------------------------------
                                 ORCA GUESS
                   Start orbitals & Density for SCF / CASSCF
-------------------------------------------------------------------------------

------------
SCF SETTINGS
------------
Hamiltonian:
 Density Functional     Method          .... DFT(GTOs)
  Functional kind                       .... Exchange-Correlation
  Functional name                       .... wB97M-V exchange-correlation functional
  Functional family                     .... Hybrid MGGA
  Functional refs                              
    [ 0] N. Mardirossian and M. Head-Gordon.,  J. Chem. Phys. 144, 214110 (2016), doi: 10.1063/1.4952647
  Fraction of HF Exchange (short range) .... 0.1500
  Fraction of HF Exchange (long range)  .... 1.0000
  Range separation parameter mu         .... 0.3000
  Functional external parameters        .... 17
    Parameter  0 _cx00      =  8.500000e-01 : u^00 coefficient for exchange
    Parameter  1 _cx01      =  1.007000e+00 : u^01 coefficient for exchange
    Parameter  2 _cx10      =  2.590000e-01 : u^10 coefficient for exchange
    Parameter  3 _css00     =  4.430000e-01 : u^00 coefficient for same-spin correlation
    Parameter  4 _css04     = -1.437000e+00 : u^04 coefficient for same-spin correlation
    Parameter  5 _css10     = -4.535000e+00 : u^10 coefficient for same-spin correlation
    Parameter  6 _css20     = -3.390000e+00 : u^20 coefficient for same-spin correlation
    Parameter  7 _css43     =  4.278000e+00 : u^43 coefficient for same-spin correlation
    Parameter  8 _cos00     =  1.000000e+00 : u^00 coefficient for opposite-spin correlation
    Parameter  9 _cos10     =  1.358000e+00 : u^10 coefficient for opposite-spin correlation
    Parameter 10 _cos20     =  2.924000e+00 : u^20 coefficient for opposite-spin correlation
    Parameter 11 _cos21     = -8.812000e+00 : u^21 coefficient for opposite-spin correlation
    Parameter 12 _cos60     = -1.390000e+00 : u^60 coefficient for opposite-spin correlation
    Parameter 13 _cos61     =  9.142000e+00 : u^61 coefficient for opposite-spin correlation
    Parameter 14 _alpha     =  1.000000e+00 : fraction of HF exchange
    Parameter 15 _beta      = -8.500000e-01 : fraction of short-range exchange
    Parameter 16 _omega     =  3.000000e-01 : range-separation constant
 Long-range corrected/Screened/Range-Separated Hybrid DFT is turned on
   Amount of maximum screened exact exchange              ....  0.850000
   Range separation parameter mu (erf(mu*r12)/r12)        ....  0.300000
 RI-approximation to the Coulomb term is turned on
   Number of AuxJ basis functions       .... 1014
   RIJ-COSX (HFX calculated with COS-X)).... on


General Settings:
 Integral files         IntName         .... orca
 Hartree-Fock type      HFTyp           .... UHF
 Total Charge           Charge          ....    0
 Multiplicity           Mult            ....    3
 Number of Electrons    NEL             ....  132
 Basis Dimension        Dim             ....  882
 Nuclear Repulsion      ENuc            ....   1436.9377178811 Eh

Convergence Acceleration:
 AO-DIIS                CNVDIIS         .... on
   Start iteration      DIISMaxIt       ....    12
   Startup error        DIISStart       ....  0.200000
   # of expansion vecs  DIISMaxEq       ....     5
   Bias factor          DIISBfac        ....   1.050
   Max. coefficient     DIISMaxC        ....  10.000
 MO-DIIS                CNVKDIIS        .... off
 Trust-Rad. Augm. Hess. CNVTRAH         .... auto
   Auto Start mean grad. ratio tolernc. ....  1.125000
   Auto Start start iteration           ....    50
   Auto Start num. interpolation iter.  ....    10
   Max. Number of Micro iterations      ....    24
   Max. Number of Macro iterations      .... Maxiter - #DIIS iter
   Number of Davidson start vectors     ....     2
   Converg. threshold    (grad. norm)   ....   1.000e-05
   Grad. Scal. Fac. for Micro threshold ....   0.100
   Minimum threshold for Micro iter.    ....   1.000e-02
   NR start threshold (gradient norm)   ....   1.000e-04
   Initial trust radius                 ....   0.400
   Minimum AH scaling param. (alpha)    ....   1.000
   Maximum AH scaling param. (alpha)    .... 1000.000
   Quad. conv. algorithm                .... NR
   White noise on init. David. guess    .... on
   Maximum white noise                  ....   0.010
   Pseudo random numbers                .... off
   Inactive MOs                         .... canonical
   Orbital update algorithm             .... Taylor
   Preconditioner                       .... Diag
   Full preconditioner red. dimension   ....   250
 SOSCF                  CNVSOSCF        .... on
   Start iteration      SOSCFMaxIt      ....   150
   Startup grad/error   SOSCFStart      ....  0.003300
   Hessian update       SOSCFHessUp     .... L-BFGS
 Level Shifting         CNVShift        .... on
   Level shift para.    LevelShift      ....    0.2500
   Turn off err/grad.   ShiftErr        ....    0.0010
 Zerner damping         CNVZerner       .... off
 Static damping         CNVDamp         .... on
   Fraction old density DampFac         ....    0.7000
   Max. Damping (<1)    DampMax         ....    0.9800
   Min. Damping (>=0)   DampMin         ....    0.0000
   Turn off err/grad.   DampErr         ....    0.1000

SCF Procedure:
 Maximum # iterations   MaxIter         ....   125
 SCF integral mode      SCFMode         .... Direct
   Integral package                     .... SHARK and LIBINT hybrid scheme
 Reset frequency        DirectResetFreq ....    20
 Integral Threshold     Thresh          ....  1.000e-12 Eh
 Primitive CutOff       TCut            ....  1.000e-13 Eh

Convergence Tolerance:
 Convergence Check Mode ConvCheckMode   .... Total+1el-Energy
 Convergence forced     ConvForced      .... 1
 Energy Change          TolE            ....  1.000e-08 Eh
 1-El. energy change                    ....  1.000e-05 Eh
 Orbital Gradient       TolG            ....  1.000e-05
 Orbital Rotation angle TolX            ....  1.000e-05
 DIIS Error             TolErr          ....  5.000e-07

------------------------------
INITIAL GUESS: MODEL POTENTIAL
------------------------------
Loading Hartree-Fock densities                     ... done
Calculating cut-offs                               ... done
Initializing the effective Hamiltonian             ... done
Setting up the integral package (SHARK)            ... done
Starting the Coulomb interaction                   ... done (   0.1 sec)
Making the grid                                    ... done (   0.2 sec)
Mapping shells                                     ... done
Starting the XC term evaluation                    ... done (   0.1 sec)
  promolecular density results
     # of electrons  =    131.992947902
     EX              =   -113.529222587
     EC              =     -4.484036077
     EX+EC           =   -118.013258664
Transforming the Hamiltonian                       ... done (   0.1 sec)
Diagonalizing the Hamiltonian                      ... done (   0.1 sec)
Back transforming the eigenvectors                 ... done (   0.1 sec)
Now organizing SCF variables                       ... done
                      ------------------
                      INITIAL GUESS DONE (   1.1 sec)
                      ------------------
             **** ENERGY FILE WAS UPDATED (orca.en.tmp) ****
Finished Guess after   3.5 sec
Maximum memory used throughout the entire GUESS-calculation: 71.9 MB
[1739912175.085548] [ohm:470965:0]        ib_iface.c:1059 UCX  ERROR ibv_create_cq(cqe=256) failed: Connection timed out
[1739912175.151574] [ohm:470979:0]        ib_iface.c:1059 UCX  ERROR ibv_create_cq(cqe=256) failed: Connection timed out
[1739912175.163668] [ohm:470967:0]        ib_iface.c:1059 UCX  ERROR ibv_create_cq(cqe=256) failed: Connection timed out
[1739912175.164871] [ohm:470973:0]        ib_iface.c:1059 UCX  ERROR ibv_create_cq(cqe=256) failed: Connection timed out
[1739912175.173796] [ohm:470974:0]        ib_iface.c:1059 UCX  ERROR ibv_create_cq(cqe=256) failed: Connection timed out
[1739912175.174640] [ohm:470971:0]        ib_iface.c:1059 UCX  ERROR ibv_create_cq(cqe=256) failed: Connection timed out
[1739912175.176360] [ohm:470968:0]        ib_iface.c:1059 UCX  ERROR ibv_create_cq(cqe=256) failed: Connection timed out
[1739912175.179529] [ohm:470966:0]        ib_iface.c:1059 UCX  ERROR ibv_create_cq(cqe=256) failed: Connection timed out
[1739912175.199525] [ohm:470982:0]        ib_iface.c:1059 UCX  ERROR ibv_create_cq(cqe=256) failed: Connection timed out
[1739912175.201612] [ohm:470972:0]        ib_iface.c:1059 UCX  ERROR ibv_create_cq(cqe=256) failed: Connection timed out
[1739912175.207982] [ohm:470986:0]        ib_iface.c:1059 UCX  ERROR ibv_create_cq(cqe=256) failed: Connection timed out
[1739912175.209691] [ohm:470985:0]        ib_iface.c:1059 UCX  ERROR ibv_create_cq(cqe=256) failed: Connection timed out
[1739912175.219123] [ohm:470980:0]        ib_iface.c:1059 UCX  ERROR ibv_create_cq(cqe=256) failed: Connection timed out
[1739912175.255868] [ohm:470969:0]        ib_iface.c:1059 UCX  ERROR ibv_create_cq(cqe=256) failed: Connection timed out
[1739912175.256506] [ohm:471036:0]        ib_iface.c:1059 UCX  ERROR ibv_create_cq(cqe=256) failed: Connection timed out
[1739912175.259415] [ohm:470970:0]        ib_iface.c:1059 UCX  ERROR ibv_create_cq(cqe=256) failed: Connection timed out
[1739912175.260504] [ohm:470977:0]        ib_iface.c:1059 UCX  ERROR ibv_create_cq(cqe=256) failed: Connection timed out
[1739912175.271627] [ohm:470990:0]        ib_iface.c:1059 UCX  ERROR ibv_create_cq(cqe=256) failed: Connection timed out
[1739912175.309408] [ohm:470987:0]        ib_iface.c:1059 UCX  ERROR ibv_create_cq(cqe=256) failed: Connection timed out
[1739912175.312474] [ohm:471018:0]        ib_iface.c:1059 UCX  ERROR ibv_create_cq(cqe=256) failed: Connection timed out
[1739912175.313529] [ohm:471029:0]        ib_iface.c:1059 UCX  ERROR ibv_create_cq(cqe=256) failed: Connection timed out
[1739912175.318604] [ohm:471004:0]        ib_iface.c:1059 UCX  ERROR ibv_create_cq(cqe=256) failed: Connection timed out
[1739912175.321037] [ohm:470989:0]        ib_iface.c:1059 UCX  ERROR ibv_create_cq(cqe=256) failed: Connection timed out
[1739912175.337996] [ohm:470975:0]        ib_iface.c:1059 UCX  ERROR ibv_create_cq(cqe=256) failed: Connection timed out
[1739912175.348306] [ohm:470991:0]        ib_iface.c:1059 UCX  ERROR ibv_create_cq(cqe=256) failed: Connection timed out
[1739912175.352329] [ohm:471014:0]        ib_iface.c:1059 UCX  ERROR ibv_create_cq(cqe=256) failed: Connection timed out
[1739912175.352668] [ohm:471000:0]        ib_iface.c:1059 UCX  ERROR ibv_create_cq(cqe=256) failed: Connection timed out
[1739912175.355759] [ohm:470983:0]        ib_iface.c:1059 UCX  ERROR ibv_create_cq(cqe=256) failed: Connection timed out
[1739912175.357590] [ohm:471102:0]        ib_iface.c:1059 UCX  ERROR ibv_create_cq(cqe=256) failed: Connection timed out
[1739912175.363989] [ohm:470994:0]        ib_iface.c:1059 UCX  ERROR ibv_create_cq(cqe=256) failed: Connection timed out
[1739912175.367253] [ohm:471040:0]        ib_iface.c:1059 UCX  ERROR ibv_create_cq(cqe=256) failed: Connection timed out
[1739912175.380872] [ohm:471077:0]        ib_iface.c:1059 UCX  ERROR ibv_create_cq(cqe=256) failed: Connection timed out
[1739912175.392220] [ohm:471068:0]        ib_iface.c:1059 UCX  ERROR ibv_create_cq(cqe=256) failed: Connection timed out
[1739912175.394343] [ohm:471020:0]        ib_iface.c:1059 UCX  ERROR ibv_create_cq(cqe=256) failed: Connection timed out
[1739912175.396961] [ohm:471042:0]        ib_iface.c:1059 UCX  ERROR ibv_create_cq(cqe=256) failed: Connection timed out
[1739912175.401847] [ohm:471088:0]        ib_iface.c:1059 UCX  ERROR ibv_create_cq(cqe=256) failed: Connection timed out
[1739912175.404102] [ohm:470988:0]        ib_iface.c:1059 UCX  ERROR ibv_create_cq(cqe=256) failed: Connection timed out
[1739912175.406002] [ohm:471105:0]        ib_iface.c:1059 UCX  ERROR ibv_create_cq(cqe=256) failed: Connection timed out
[1739912175.407296] [ohm:471048:0]        ib_iface.c:1059 UCX  ERROR ibv_create_cq(cqe=256) failed: Connection timed out
[1739912175.409197] [ohm:471084:0]        ib_iface.c:1059 UCX  ERROR ibv_create_cq(cqe=256) failed: Connection timed out
[1739912175.412641] [ohm:470981:0]        ib_iface.c:1059 UCX  ERROR ibv_create_cq(cqe=256) failed: Connection timed out
[1739912175.417626] [ohm:471013:0]        ib_iface.c:1059 UCX  ERROR ibv_create_cq(cqe=256) failed: Connection timed out
[1739912175.427559] [ohm:471076:0]        ib_iface.c:1059 UCX  ERROR ibv_create_cq(cqe=256) failed: Connection timed out
[1739912175.428428] [ohm:471097:0]        ib_iface.c:1059 UCX  ERROR ibv_create_cq(cqe=256) failed: Connection timed out
[1739912175.436351] [ohm:471110:0]        ib_iface.c:1059 UCX  ERROR ibv_create_cq(cqe=256) failed: Connection timed out
[1739912175.437788] [ohm:470993:0]        ib_iface.c:1059 UCX  ERROR ibv_create_cq(cqe=256) failed: Connection timed out
[1739912175.441343] [ohm:471091:0]        ib_iface.c:1059 UCX  ERROR ibv_create_cq(cqe=256) failed: Connection timed out
[1739912175.442485] [ohm:470976:0]        ib_iface.c:1059 UCX  ERROR ibv_create_cq(cqe=256) failed: Connection timed out
[1739912175.445336] [ohm:471069:0]        ib_iface.c:1059 UCX  ERROR ibv_create_cq(cqe=256) failed: Connection timed out
[1739912175.448029] [ohm:471061:0]        ib_iface.c:1059 UCX  ERROR ibv_create_cq(cqe=256) failed: Connection timed out
[1739912175.448366] [ohm:471024:0]        ib_iface.c:1059 UCX  ERROR ibv_create_cq(cqe=256) failed: Connection timed out
[1739912175.455749] [ohm:471008:0]        ib_iface.c:1059 UCX  ERROR ibv_create_cq(cqe=256) failed: Connection timed out
[1739912175.458409] [ohm:470984:0]        ib_iface.c:1059 UCX  ERROR ibv_create_cq(cqe=256) failed: Connection timed out
[1739912175.459782] [ohm:471098:0]        ib_iface.c:1059 UCX  ERROR ibv_create_cq(cqe=256) failed: Connection timed out
[1739912175.461148] [ohm:471064:0]        ib_iface.c:1059 UCX  ERROR ibv_create_cq(cqe=256) failed: Connection timed out
[1739912175.462052] [ohm:470998:0]        ib_iface.c:1059 UCX  ERROR ibv_create_cq(cqe=256) failed: Connection timed out
[1739912175.462062] [ohm:471030:0]        ib_iface.c:1059 UCX  ERROR ibv_create_cq(cqe=256) failed: Connection timed out
[1739912175.463305] [ohm:471051:0]        ib_iface.c:1059 UCX  ERROR ibv_create_cq(cqe=256) failed: Connection timed out
[1739912175.464048] [ohm:471034:0]        ib_iface.c:1059 UCX  ERROR ibv_create_cq(cqe=256) failed: Connection timed out
[1739912175.464521] [ohm:470978:0]        ib_iface.c:1059 UCX  ERROR ibv_create_cq(cqe=256) failed: Connection timed out
[1739912175.466558] [ohm:471085:0]        ib_iface.c:1059 UCX  ERROR ibv_create_cq(cqe=256) failed: Connection timed out
[1739912175.467440] [ohm:471059:0]        ib_iface.c:1059 UCX  ERROR ibv_create_cq(cqe=256) failed: Connection timed out
[1739912175.467832] [ohm:471080:0]        ib_iface.c:1059 UCX  ERROR ibv_create_cq(cqe=256) failed: Connection timed out
[1739912175.468576] [ohm:471055:0]        ib_iface.c:1059 UCX  ERROR ibv_create_cq(cqe=256) failed: Connection timed out


           ************************************************************
           *        Program running with 64 parallel MPI-processes    *
           *              working on a common directory               *
           ************************************************************

-------------------------------------------------------------------------------------------
                                      ORCA LEAN-SCF
                              memory conserving SCF solver
-------------------------------------------------------------------------------------------

----------------------------------------D-I-I-S--------------------------------------------
Iteration    Energy (Eh)           Delta-E    RMSDP     MaxDP     DIISErr   Damp  Time(sec)
-------------------------------------------------------------------------------------------
               ***  Starting incremental Fock matrix formation  ***
    1    -908.0419360005018916     0.00e+00  2.10e-03  5.91e-01  1.46e-01  0.700   7.8
    2    -908.3059233107767341    -2.64e-01  1.65e-03  4.67e-01  6.99e-02  0.700   6.7
                               ***Turning on AO-DIIS***
    3    -908.4223795034624800    -1.16e-01  1.20e-03  3.43e-01  2.78e-02  0.700   5.8
    4    -908.4941081369445328    -7.17e-02  2.81e-03  8.15e-01  1.83e-02  0.000   5.8
    5    -908.6556447531841059    -1.62e-01  2.02e-04  3.88e-02  6.11e-03  0.000   5.8
    6    -908.6570317295452242    -1.39e-03  1.03e-04  1.66e-02  4.13e-03  0.000   5.6
                              *** Initializing SOSCF ***
---------------------------------------S-O-S-C-F--------------------------------------
Iteration    Energy (Eh)           Delta-E    RMSDP     MaxDP     MaxGrad    Time(sec)
--------------------------------------------------------------------------------------
    7    -908.6576449412634702    -6.13e-04  9.35e-05  1.75e-02  2.75e-03     6.6
               *** Restarting incremental Fock matrix formation ***
    8    -908.6579966646684170    -3.52e-04  2.72e-04  2.53e-02  2.09e-03     7.4
    9    -908.6581110906251979    -1.14e-04  1.58e-04  1.28e-02  1.40e-03     6.5
   10    -908.6581610894515961    -5.00e-05  1.27e-04  1.15e-02  4.02e-04     6.5
   11    -908.6581697085518954    -8.62e-06  1.94e-05  1.95e-03  2.78e-04     6.3
   12    -908.6581715108507069    -1.80e-06  1.90e-05  1.67e-03  1.24e-04     6.2
   13    -908.6581724885820677    -9.78e-07  2.56e-06  4.14e-04  8.81e-05     6.1
   14    -908.6581727464779306    -2.58e-07  4.34e-06  6.17e-04  4.47e-05     5.9
   15    -908.6581728023877531    -5.59e-08  1.09e-06  1.94e-04  9.95e-06     5.8
   16    -908.6581728771113831    -7.47e-08  1.40e-06  2.25e-04  1.09e-05     5.5
   17    -908.6581728698904499     7.22e-09  1.45e-06  3.60e-04  4.08e-06     5.4
                 **** Energy Check signals convergence ****

               *****************************************************
               *                     SUCCESS                       *
               *           SCF CONVERGED AFTER  17 CYCLES          *
               *****************************************************

Recomputing exchange energy using gridx3       ... done (    7.711 sec)
Old exchange energy                            :    -35.026676968 Eh
New exchange energy                            :    -35.026673372 Eh
Exchange energy change after final integration :      0.000003596 Eh
Total energy after final integration           :   -908.658169274 Eh
             **** ENERGY FILE WAS UPDATED (orca.en.tmp) ****

----------------
TOTAL SCF ENERGY
----------------

Total Energy       :       -908.65816927422020 Eh          -24725.84582 eV

Components:
Nuclear Repulsion  :       1436.93771788107892 Eh           39101.06316 eV
Electronic Energy  :      -2345.59589075096937 Eh          -63826.90908 eV
One Electron Energy:      -4090.98191462572777 Eh         -111321.27736 eV
Two Electron Energy:       1745.38602387475862 Eh           47494.36828 eV

Virial components:
Potential Energy   :      -1814.28738004395223 Eh          -49369.26950 eV
Kinetic Energy     :        905.62921076973203 Eh           24643.42367 eV
Virial Ratio       :          2.00334459011311

DFT components:
N(Alpha)           :       66.999972994606 electrons
N(Beta)            :       64.999979153954 electrons
N(Total)           :      131.999952148560 electrons
E(XC)              :      -86.224636060688 Eh       

---------------
SCF CONVERGENCE
---------------

  Last Energy change         ...   -7.2209e-09  Tolerance :   1.0000e-08
  Last MAX-Density change    ...    3.6041e-04  Tolerance :   1.0000e-07
  Last RMS-Density change    ...    1.4513e-06  Tolerance :   5.0000e-09
  Last DIIS Error            ...    2.7517e-03  Tolerance :   5.0000e-07
  Last Orbital Gradient      ...    4.0824e-06  Tolerance :   1.0000e-05
  Last Orbital Rotation      ...    2.4024e-05  Tolerance :   1.0000e-05


----------------------
UHF SPIN CONTAMINATION
----------------------

Warning: in a DFT calculation there is little theoretical justification to 
         calculate <S**2> as in Hartree-Fock theory. We will do it anyways
         but you should keep in mind that the values have only limited relevance

Expectation value of <S**2>     :     2.013076
Ideal value S*(S+1) for S=1.0   :     2.000000
Deviation                       :     0.013076

----------------
ORBITAL ENERGIES
----------------
                 SPIN UP ORBITALS
  NO   OCC          E(Eh)            E(eV) 
   0   1.0000     -19.339341      -526.2502 
   1   1.0000     -19.334960      -526.1310 
   2   1.0000     -19.324708      -525.8520 
   3   1.0000     -19.318990      -525.6965 
   4   1.0000     -14.573097      -396.5541 
   5   1.0000     -14.568049      -396.4168 
   6   1.0000     -14.565735      -396.3538 
   7   1.0000     -14.550698      -395.9446 
   8   1.0000     -10.511891      -286.0431 
   9   1.0000     -10.506983      -285.9095 
  10   1.0000     -10.491431      -285.4863 
  11   1.0000     -10.490572      -285.4630 
  12   1.0000     -10.444524      -284.2099 
  13   1.0000     -10.433336      -283.9055 
  14   1.0000     -10.417324      -283.4698 
  15   1.0000     -10.404032      -283.1081 
  16   1.0000     -10.388410      -282.6830 
  17   1.0000     -10.367160      -282.1048 
  18   1.0000      -1.224803       -33.3286 
  19   1.0000      -1.212018       -32.9807 
  20   1.0000      -1.201066       -32.6827 
  21   1.0000      -1.186007       -32.2729 
  22   1.0000      -1.132212       -30.8090 
  23   1.0000      -1.093997       -29.7692 
  24   1.0000      -1.062481       -28.9116 
  25   1.0000      -1.055741       -28.7282 
  26   1.0000      -1.013743       -27.5853 
  27   1.0000      -0.942898       -25.6576 
  28   1.0000      -0.882729       -24.0203 
  29   1.0000      -0.832124       -22.6432 
  30   1.0000      -0.816821       -22.2268 
  31   1.0000      -0.813883       -22.1469 
  32   1.0000      -0.786180       -21.3930 
  33   1.0000      -0.772027       -21.0079 
  34   1.0000      -0.724978       -19.7276 
  35   1.0000      -0.696014       -18.9395 
  36   1.0000      -0.682426       -18.5698 
  37   1.0000      -0.667910       -18.1747 
  38   1.0000      -0.635920       -17.3042 
  39   1.0000      -0.627558       -17.0767 
  40   1.0000      -0.613588       -16.6966 
  41   1.0000      -0.604623       -16.4526 
  42   1.0000      -0.597891       -16.2694 
  43   1.0000      -0.588448       -16.0125 
  44   1.0000      -0.576787       -15.6952 
  45   1.0000      -0.573217       -15.5980 
  46   1.0000      -0.563837       -15.3428 
  47   1.0000      -0.562100       -15.2955 
  48   1.0000      -0.555783       -15.1236 
  49   1.0000      -0.553551       -15.0629 
  50   1.0000      -0.547668       -14.9028 
  51   1.0000      -0.543158       -14.7801 
  52   1.0000      -0.529612       -14.4115 
  53   1.0000      -0.520555       -14.1650 
  54   1.0000      -0.512871       -13.9559 
  55   1.0000      -0.478864       -13.0306 
  56   1.0000      -0.453718       -12.3463 
  57   1.0000      -0.433212       -11.7883 
  58   1.0000      -0.423139       -11.5142 
  59   1.0000      -0.411079       -11.1860 
  60   1.0000      -0.398353       -10.8397 
  61   1.0000      -0.395401       -10.7594 
  62   1.0000      -0.392352       -10.6765 
  63   1.0000      -0.386697       -10.5226 
  64   1.0000      -0.371559       -10.1106 
  65   1.0000      -0.350711        -9.5433 
  66   1.0000      -0.319900        -8.7049 
  67   0.0000       0.006537         0.1779 
  68   0.0000       0.026268         0.7148 
  69   0.0000       0.032076         0.8728 
  70   0.0000       0.038422         1.0455 
  71   0.0000       0.044870         1.2210 
  72   0.0000       0.051167         1.3923 
  73   0.0000       0.056372         1.5340 
  74   0.0000       0.059883         1.6295 
  75   0.0000       0.064187         1.7466 
  76   0.0000       0.066782         1.8172 
  77   0.0000       0.069835         1.9003 

                 SPIN DOWN ORBITALS
  NO   OCC          E(Eh)            E(eV) 
   0   1.0000     -19.334961      -526.1310 
   1   1.0000     -19.334110      -526.1079 
   2   1.0000     -19.324664      -525.8508 
   3   1.0000     -19.318785      -525.6909 
   4   1.0000     -14.572946      -396.5500 
   5   1.0000     -14.567976      -396.4148 
   6   1.0000     -14.565719      -396.3534 
   7   1.0000     -14.550007      -395.9258 
   8   1.0000     -10.511888      -286.0430 
   9   1.0000     -10.507006      -285.9102 
  10   1.0000     -10.492340      -285.5111 
  11   1.0000     -10.490588      -285.4634 
  12   1.0000     -10.443941      -284.1941 
  13   1.0000     -10.432906      -283.8938 
  14   1.0000     -10.417134      -283.4646 
  15   1.0000     -10.389163      -282.7035 
  16   1.0000     -10.377803      -282.3944 
  17   1.0000     -10.367060      -282.1021 
  18   1.0000      -1.224664       -33.3248 
  19   1.0000      -1.210753       -32.9463 
  20   1.0000      -1.201024       -32.6815 
  21   1.0000      -1.178014       -32.0554 
  22   1.0000      -1.131582       -30.7919 
  23   1.0000      -1.093203       -29.7476 
  24   1.0000      -1.062131       -28.9021 
  25   1.0000      -1.052833       -28.6491 
  26   1.0000      -1.012806       -27.5598 
  27   1.0000      -0.912362       -24.8266 
  28   1.0000      -0.882151       -24.0046 
  29   1.0000      -0.823873       -22.4187 
  30   1.0000      -0.813591       -22.1389 
  31   1.0000      -0.808191       -21.9920 
  32   1.0000      -0.784337       -21.3429 
  33   1.0000      -0.768574       -20.9140 
  34   1.0000      -0.722058       -19.6482 
  35   1.0000      -0.694169       -18.8893 
  36   1.0000      -0.672951       -18.3119 
  37   1.0000      -0.665079       -18.0977 
  38   1.0000      -0.628284       -17.0965 
  39   1.0000      -0.621003       -16.8983 
  40   1.0000      -0.609782       -16.5930 
  41   1.0000      -0.602587       -16.3972 
  42   1.0000      -0.583415       -15.8755 
  43   1.0000      -0.581113       -15.8129 
  44   1.0000      -0.572978       -15.5915 
  45   1.0000      -0.565912       -15.3992 
  46   1.0000      -0.560792       -15.2599 
  47   1.0000      -0.557032       -15.1576 
  48   1.0000      -0.549405       -14.9501 
  49   1.0000      -0.548236       -14.9183 
  50   1.0000      -0.537450       -14.6248 
  51   1.0000      -0.535665       -14.5762 
  52   1.0000      -0.528518       -14.3817 
  53   1.0000      -0.512680       -13.9507 
  54   1.0000      -0.507457       -13.8086 
  55   1.0000      -0.476719       -12.9722 
  56   1.0000      -0.451220       -12.2783 
  57   1.0000      -0.423784       -11.5317 
  58   1.0000      -0.421957       -11.4820 
  59   1.0000      -0.407443       -11.0871 
  60   1.0000      -0.395738       -10.7686 
  61   1.0000      -0.390326       -10.6213 
  62   1.0000      -0.383029       -10.4228 
  63   1.0000      -0.380349       -10.3498 
  64   1.0000      -0.359807        -9.7909 
  65   0.0000      -0.045511        -1.2384 
  66   0.0000       0.006061         0.1649 
  67   0.0000       0.008940         0.2433 
  68   0.0000       0.026889         0.7317 
  69   0.0000       0.033475         0.9109 
  70   0.0000       0.038447         1.0462 
  71   0.0000       0.047685         1.2976 
  72   0.0000       0.055807         1.5186 
  73   0.0000       0.058146         1.5822 
  74   0.0000       0.059636         1.6228 
  75   0.0000       0.066370         1.8060 
*Only the first 10 virtual orbitals were printed.

                    ********************************
                    * MULLIKEN POPULATION ANALYSIS *
                    ********************************

--------------------------------------------
MULLIKEN ATOMIC CHARGES AND SPIN POPULATIONS
--------------------------------------------
   0 O :   -0.652247    0.000549
   1 O :   -0.632520    0.176829
   2 O :   -0.627098    0.001502
   3 O :   -0.688020    0.008257
   4 N :   -0.116576    0.003633
   5 N :   -0.153365    0.021900
   6 N :    0.021930    0.000299
   7 N :    0.090031    0.025344
   8 C :    2.394232    0.016676
   9 C :    0.025619    1.420239
  10 C :   -0.396494    0.031380
  11 C :   -1.023510    0.071618
  12 C :   -1.863557   -0.016424
  13 C :   -1.187276    0.051110
  14 C :   -0.049246    0.001177
  15 C :    0.899964    0.157061
  16 C :    0.416753    0.000244
  17 C :    0.578883   -0.014803
  18 H :    0.231622   -0.000432
  19 H :    0.552733   -0.049466
  20 H :    0.317373    0.001194
  21 H :    0.379664    0.005017
  22 H :    0.423749    0.003639
  23 H :    0.228999    0.026416
  24 H :    0.272956    0.026448
  25 H :    0.353294    0.031117
  26 H :    0.062810   -0.000028
  27 H :    0.136719   -0.001609
  28 H :    0.047298   -0.000063
  29 H :   -0.044721    0.001174
Sum of atomic charges         :   -0.0000000
Sum of atomic spin populations:    2.0000000

-----------------------------------------------------
MULLIKEN REDUCED ORBITAL CHARGES AND SPIN POPULATIONS
-----------------------------------------------------
CHARGE
  0 O s       :     4.093597  s :     4.093597
      pz      :     1.416838  p :     4.526964
      px      :     1.358264
      py      :     1.751862
      dz2     :     0.009771  d :     0.029747
      dxz     :     0.007137
      dyz     :     0.005077
      dx2y2   :     0.006202
      dxy     :     0.001560
      f0      :     0.000320  f :     0.001939
      f+1     :     0.000388
      f-1     :     0.000235
      f+2     :     0.000388
      f-2     :     0.000340
      f+3     :     0.000151
      f-3     :     0.000117

  1 O s       :     4.094458  s :     4.094458
      pz      :     1.460228  p :     4.505186
[...]
[1739912448.223522] [ohm:473412:0]        ib_iface.c:1059 UCX  ERROR ibv_create_cq(cqe=256) failed: Connection timed out
[1739912448.223654] [ohm:473472:0]        ib_iface.c:1059 UCX  ERROR ibv_create_cq(cqe=256) failed: Connection timed out
[1739912448.229918] [ohm:473473:0]        ib_iface.c:1059 UCX  ERROR ibv_create_cq(cqe=256) failed: Connection timed out
[1739912448.230875] [ohm:473360:0]        ib_iface.c:1059 UCX  ERROR ibv_create_cq(cqe=256) failed: Connection timed out
[1739912448.233689] [ohm:473420:0]        ib_iface.c:1059 UCX  ERROR ibv_create_cq(cqe=256) failed: Connection timed out
[1739912448.234003] [ohm:473430:0]        ib_iface.c:1059 UCX  ERROR ibv_create_cq(cqe=256) failed: Connection timed out
[1739912448.234419] [ohm:473478:0]        ib_iface.c:1059 UCX  ERROR ibv_create_cq(cqe=256) failed: Connection timed out
[1739912448.238108] [ohm:473358:0]        ib_iface.c:1059 UCX  ERROR ibv_create_cq(cqe=256) failed: Connection timed out
[1739912448.238542] [ohm:473438:0]        ib_iface.c:1059 UCX  ERROR ibv_create_cq(cqe=256) failed: Connection timed out
[1739912448.238862] [ohm:473427:0]        ib_iface.c:1059 UCX  ERROR ibv_create_cq(cqe=256) failed: Connection timed out
[1739912448.239610] [ohm:473408:0]        ib_iface.c:1059 UCX  ERROR ibv_create_cq(cqe=256) failed: Connection timed out


           ************************************************************
           *        Program running with 64 parallel MPI-processes    *
           *              working on a common directory               *
           ************************************************************

------------------------------------------------------------------------------
                              ORCA PROPERTY CALCULATIONS
------------------------------------------------------------------------------

GBWName                                 ... orca.gbw
Number of atoms                         ...     30
Number of basis functions               ...    882
Max core memory                         ...   1024 MB

Electric properties:
Dipole moment                           ... YES
Quadrupole moment                       ...  NO
Static polarizability (Dipole/Dipole)   ...  NO
Static polarizability (Dipole/Quad.)    ...  NO
Static polarizability (Quad./Quad.)     ...  NO
Static polarizability (Velocity)        ...  NO

Atomic electric properties:
Dipole moment                           ...  NO
Quadrupole moment                       ...  NO
Static polarizability                   ...  NO

Choice of electric origin               ... Center of mass
Position of electric origin             ...     0.150721     0.000563     0.035866

General magnetic properties:
Magnetizability                         ...  NO

EPR properties:
g-Tensor (aka g-matrix)                 ...  NO
Zero-Field splitting spin-orbit         ...  NO
Zero-field splitting spin-spin          ...  NO
Hyperfine couplings                     ...  NO (   0 nuclei)
Quadrupole couplings                    ...  NO (   0 nuclei)
Contact density                         ...  NO (   0 nuclei)

NMR properties:
Chemical shifts                         ...  NO (   0 nuclei)
Spin-rotation constants                 ...  NO (   0 nuclei)
Spin-spin couplings                     ...  NO (   0 nuclei,    0 pairs)

Choice of magnetic origin               ... GIAO
Position of magnetic origin             ...     0.000000     0.000000     0.000000

Properties with geometric perturbations:
SCF Hessian                             ...  NO
IR spectrum                             ...  NO
VCD spectrum                            ...  NO
X-ray spectroscopy properties:
SCF XES/XAS/RIXS spectra                ...  NO


-------------
DIPOLE MOMENT
-------------

Method             : SCF
Type of density    : Electron Density
Multiplicity       :   3
Irrep              :   0
Energy             :  -908.6581692742201994 Eh
Relativity type    : 
Basis              : AO
                                X                 Y                 Z
Electronic contribution:     -0.181107848      -9.738725574      -6.744338169
Nuclear contribution   :     -0.028158404      10.829744085       9.772739494
                        -----------------------------------------
Total Dipole Moment    :     -0.209266252       1.091018510       3.028401325
                        -----------------------------------------
Magnitude (a.u.)       :      3.225729117
Magnitude (Debye)      :      8.199151819



--------------------
Rotational spectrum 
--------------------
 
Rotational constants in cm-1:             0.022876             0.012302             0.011391 
Rotational constants in MHz :           685.795941           368.798779           341.506144 

Dipole components along the rotational axes: 
x,y,z [a.u.] :     0.028279     2.035203     2.502494 
x,y,z [Debye]:     0.071880     5.173074     6.360835 

 

-------------
DIPOLE MOMENT
-------------

Method             : TDA/CIS
Type of density    : Electron Density
Level              : Relaxed density
State              :   2
Multiplicity       :   3
Irrep              :   0
Energy             :     0.0000000000000000 Eh
Relativity type    : 
Basis              : AO
                                X                 Y                 Z
Electronic contribution:     -0.320483011      -9.691888579      -6.741248782
Nuclear contribution   :     -0.028158404      10.829744085       9.772739494
                        -----------------------------------------
Total Dipole Moment    :     -0.348641415       1.137855506       3.031490712
                        -----------------------------------------
Magnitude (a.u.)       :      3.256716433
Magnitude (Debye)      :      8.277915316



--------------------
Rotational spectrum 
--------------------
 
Rotational constants in cm-1:             0.022876             0.012302             0.011391 
Rotational constants in MHz :           685.795941           368.798779           341.506144 

Dipole components along the rotational axes: 
x,y,z [a.u.] :    -0.046874     1.957589     2.602278 
x,y,z [Debye]:    -0.119143     4.975795     6.614466 

 

Dipole moment calculation done in   0.2 sec 

Maximum memory used throughout the entire PROP-calculation: 81.2 MB
[1739912450.845398] [ohm:473679:0]        ib_iface.c:1059 UCX  ERROR ibv_create_cq(cqe=256) failed: Connection timed out
[1739912450.849216] [ohm:473677:0]        ib_iface.c:1059 UCX  ERROR ibv_create_cq(cqe=256) failed: Connection timed out
[1739912450.854583] [ohm:473676:0]        ib_iface.c:1059 UCX  ERROR ibv_create_cq(cqe=256) failed: Connection timed out
[1739912450.875858] [ohm:473689:0]        ib_iface.c:1059 UCX  ERROR ibv_create_cq(cqe=256) failed: Connection timed out
[1739912450.908501] [ohm:473683:0]        ib_iface.c:1059 UCX  ERROR ibv_create_cq(cqe=256) failed: Connection timed out
[1739912450.909281] [ohm:473697:0]        ib_iface.c:1059 UCX  ERROR ibv_create_cq(cqe=256) failed: Connection timed out
[1739912450.913432] [ohm:473682:0]        ib_iface.c:1059 UCX  ERROR ibv_create_cq(cqe=256) failed: Connection timed out
[1739912450.914944] [ohm:473690:0]        ib_iface.c:1059 UCX  ERROR ibv_create_cq(cqe=256) failed: Connection timed out
[1739912450.918399] [ohm:473678:0]        ib_iface.c:1059 UCX  ERROR ibv_create_cq(cqe=256) failed: Connection timed out
[1739912450.918408] [ohm:473680:0]        ib_iface.c:1059 UCX  ERROR ibv_create_cq(cqe=256) failed: Connection timed out
[1739912450.944828] [ohm:473681:0]        ib_iface.c:1059 UCX  ERROR ibv_create_cq(cqe=256) failed: Connection timed out
[1739912450.952519] [ohm:473728:0]        ib_iface.c:1059 UCX  ERROR ibv_create_cq(cqe=256) failed: Connection timed out
[1739912450.957049] [ohm:473705:0]        ib_iface.c:1059 UCX  ERROR ibv_create_cq(cqe=256) failed: Connection timed out
[1739912450.973142] [ohm:473734:0]        ib_iface.c:1059 UCX  ERROR ibv_create_cq(cqe=256) failed: Connection timed out
[1739912451.005352] [ohm:473693:0]        ib_iface.c:1059 UCX  ERROR ibv_create_cq(cqe=256) failed: Connection timed out
[1739912451.014609] [ohm:473695:0]        ib_iface.c:1059 UCX  ERROR ibv_create_cq(cqe=256) failed: Connection timed out
[1739912451.014717] [ohm:473688:0]        ib_iface.c:1059 UCX  ERROR ibv_create_cq(cqe=256) failed: Connection timed out
[1739912451.021336] [ohm:473700:0]        ib_iface.c:1059 UCX  ERROR ibv_create_cq(cqe=256) failed: Connection timed out
[1739912451.030669] [ohm:473768:0]        ib_iface.c:1059 UCX  ERROR ibv_create_cq(cqe=256) failed: Connection timed out
[1739912451.036168] [ohm:473739:0]        ib_iface.c:1059 UCX  ERROR ibv_create_cq(cqe=256) failed: Connection timed out
[1739912451.041315] [ohm:473762:0]        ib_iface.c:1059 UCX  ERROR ibv_create_cq(cqe=256) failed: Connection timed out
[1739912451.043235] [ohm:473696:0]        ib_iface.c:1059 UCX  ERROR ibv_create_cq(cqe=256) failed: Connection timed out
[1739912451.077887] [ohm:473820:0]        ib_iface.c:1059 UCX  ERROR ibv_create_cq(cqe=256) failed: Connection timed out
[1739912451.089735] [ohm:473756:0]        ib_iface.c:1059 UCX  ERROR ibv_create_cq(cqe=256) failed: Connection timed out
[1739912451.091456] [ohm:473794:0]        ib_iface.c:1059 UCX  ERROR ibv_create_cq(cqe=256) failed: Connection timed out
[1739912451.098857] [ohm:473742:0]        ib_iface.c:1059 UCX  ERROR ibv_create_cq(cqe=256) failed: Connection timed out
[1739912451.108882] [ohm:473729:0]        ib_iface.c:1059 UCX  ERROR ibv_create_cq(cqe=256) failed: Connection timed out
[1739912451.111507] [ohm:473815:0]        ib_iface.c:1059 UCX  ERROR ibv_create_cq(cqe=256) failed: Connection timed out
[1739912451.113157] [ohm:473692:0]        ib_iface.c:1059 UCX  ERROR ibv_create_cq(cqe=256) failed: Connection timed out
[1739912451.113624] [ohm:473802:0]        ib_iface.c:1059 UCX  ERROR ibv_create_cq(cqe=256) failed: Connection timed out
[1739912451.122444] [ohm:473703:0]        ib_iface.c:1059 UCX  ERROR ibv_create_cq(cqe=256) failed: Connection timed out
[1739912451.125101] [ohm:473804:0]        ib_iface.c:1059 UCX  ERROR ibv_create_cq(cqe=256) failed: Connection timed out
[1739912451.126713] [ohm:473775:0]        ib_iface.c:1059 UCX  ERROR ibv_create_cq(cqe=256) failed: Connection timed out
[1739912451.133761] [ohm:473765:0]        ib_iface.c:1059 UCX  ERROR ibv_create_cq(cqe=256) failed: Connection timed out
[1739912451.140996] [ohm:473718:0]        ib_iface.c:1059 UCX  ERROR ibv_create_cq(cqe=256) failed: Connection timed out
[1739912451.148378] [ohm:473760:0]        ib_iface.c:1059 UCX  ERROR ibv_create_cq(cqe=256) failed: Connection timed out
[1739912451.150805] [ohm:473694:0]        ib_iface.c:1059 UCX  ERROR ibv_create_cq(cqe=256) failed: Connection timed out
[1739912451.153793] [ohm:473684:0]        ib_iface.c:1059 UCX  ERROR ibv_create_cq(cqe=256) failed: Connection timed out
[1739912451.156967] [ohm:473699:0]        ib_iface.c:1059 UCX  ERROR ibv_create_cq(cqe=256) failed: Connection timed out
[1739912451.165317] [ohm:473726:0]        ib_iface.c:1059 UCX  ERROR ibv_create_cq(cqe=256) failed: Connection timed out
[1739912451.176202] [ohm:473772:0]        ib_iface.c:1059 UCX  ERROR ibv_create_cq(cqe=256) failed: Connection timed out
[1739912451.177175] [ohm:473721:0]        ib_iface.c:1059 UCX  ERROR ibv_create_cq(cqe=256) failed: Connection timed out
[1739912451.180410] [ohm:473789:0]        ib_iface.c:1059 UCX  ERROR ibv_create_cq(cqe=256) failed: Connection timed out
[1739912451.181726] [ohm:473750:0]        ib_iface.c:1059 UCX  ERROR ibv_create_cq(cqe=256) failed: Connection timed out
[1739912451.186575] [ohm:473779:0]        ib_iface.c:1059 UCX  ERROR ibv_create_cq(cqe=256) failed: Connection timed out
[1739912451.203426] [ohm:473737:0]        ib_iface.c:1059 UCX  ERROR ibv_create_cq(cqe=256) failed: Connection timed out
[1739912451.203749] [ohm:473795:0]        ib_iface.c:1059 UCX  ERROR ibv_create_cq(cqe=256) failed: Connection timed out
[1739912451.203859] [ohm:473685:0]        ib_iface.c:1059 UCX  ERROR ibv_create_cq(cqe=256) failed: Connection timed out
[1739912451.207058] [ohm:473698:0]        ib_iface.c:1059 UCX  ERROR ibv_create_cq(cqe=256) failed: Connection timed out
[1739912451.209547] [ohm:473747:0]        ib_iface.c:1059 UCX  ERROR ibv_create_cq(cqe=256) failed: Connection timed out
[1739912451.210479] [ohm:473817:0]        ib_iface.c:1059 UCX  ERROR ibv_create_cq(cqe=256) failed: Connection timed out
[1739912451.212335] [ohm:473799:0]        ib_iface.c:1059 UCX  ERROR ibv_create_cq(cqe=256) failed: Connection timed out
[1739912451.215223] [ohm:473686:0]        ib_iface.c:1059 UCX  ERROR ibv_create_cq(cqe=256) failed: Connection timed out
[1739912451.216123] [ohm:473708:0]        ib_iface.c:1059 UCX  ERROR ibv_create_cq(cqe=256) failed: Connection timed out
[1739912451.216924] [ohm:473687:0]        ib_iface.c:1059 UCX  ERROR ibv_create_cq(cqe=256) failed: Connection timed out
[1739912451.219271] [ohm:473701:0]        ib_iface.c:1059 UCX  ERROR ibv_create_cq(cqe=256) failed: Connection timed out
[1739912451.219491] [ohm:473781:0]        ib_iface.c:1059 UCX  ERROR ibv_create_cq(cqe=256) failed: Connection timed out
[1739912451.219516] [ohm:473808:0]        ib_iface.c:1059 UCX  ERROR ibv_create_cq(cqe=256) failed: Connection timed out
[1739912451.221866] [ohm:473712:0]        ib_iface.c:1059 UCX  ERROR ibv_create_cq(cqe=256) failed: Connection timed out
[1739912451.222924] [ohm:473691:0]        ib_iface.c:1059 UCX  ERROR ibv_create_cq(cqe=256) failed: Connection timed out
[1739912451.225132] [ohm:473787:0]        ib_iface.c:1059 UCX  ERROR ibv_create_cq(cqe=256) failed: Connection timed out
[1739912451.225690] [ohm:473813:0]        ib_iface.c:1059 UCX  ERROR ibv_create_cq(cqe=256) failed: Connection timed out
[1739912451.225741] [ohm:473767:0]        ib_iface.c:1059 UCX  ERROR ibv_create_cq(cqe=256) failed: Connection timed out
[1739912451.226175] [ohm:473702:0]        ib_iface.c:1059 UCX  ERROR ibv_create_cq(cqe=256) failed: Connection timed out

--------------------------------
SUGGESTED CITATIONS FOR THIS RUN
--------------------------------

Below you find a list of papers that are relevant to this ORCA run
We neither can nor want to force you to cite these papers, but we appreciate if you do
You receive ORCA, which is the product of decades of hard work by many enthusiastic individuals, for free
The only thing we kindly ask in return is that you cite our papers,
We deeply appreciate it, if you show your appreciation for ORCA by not just citing the generic ORCA reference.

Please note that relegating all ORCA citations to the supporting information does *not* help us.
SI sections are not indexed - citations you put there will not count into any citation statistics
But we need these citations in order to attract the funding resources that allow us to do what we are doing

Therefore, if you are a happy ORCA user, please consider citing a few of the papers listed below in the main body of your paper

In addition to the list printed below, the program has created the file orca.bibtex that contains the list in bibtex format
You can import this file easily into all common literature databanks and citation aid programs


List of essential papers. We consider these as the minimum necessary citations

  1. Neese,F.
     Software update: the ORCA program system, version 5.0
     WIRES Comput. Molec. Sci., 2022 12(1)e1606
     doi.org/10.1002/wcms.1606

List of papers to cite with high priority. The work reported in these papers was absolutely
necessary for this run to complete.
Our perspective: the developers of density functionals and basis sets usually get cited in chemistry papers
Good! But without the algorithms to do something with them, the functionals or basis sets would not do anything.
Hence, in our opinion, the algorithm design and method developments papers are equally worthy of getting cited

  1. Neese,F.; Olbrich,G.
     Efficient use of the resolution of the identity approximation in time-dependent density functional calculations with hybrid density functionals
     Chem. Phys. Lett., 2002 362 170-178
     doi.org/10.1016/s0009-2614(02)01053-9
  2. Neese,F.
     An improvement of the resolution of the identity approximation for the formation of the Coulomb matrix
     J. Comp. Chem., 2003 24(14)1740-1747
     doi.org/10.1002/jcc.10318
  3. Neese,F.; Wennmohs,F.; Hansen,A.; Becker,U.
     Efficient, approximate and parallel Hartree-Fock and hybrid DFT calculations. A 'chain-of-spheres' algorithm for the Hartree-Fock exchange
     Chem. Phys., 2009 356(1-3)98-109
     doi.org/10.1016/j.chemphys.2008.10.036
  4. Petrenko,T.; Kossmann,S.; Neese,F.
     Efficient time-dependent density functional theory approximations for hybrid density functionals: Analytical gradients and parallelization
     J. Chem. Phys., 2011 134 054116
     doi.org/10.1063/1.3533441
  5. Helmich-Paris,B.; de Souza,B.; Neese,F.; Izsák,R.
     An improved chain of spheres for exchange algorithm
     J. Chem. Phys., 2021 155 104109
     doi.org/doi: 10.1063/5.0058766.
  6. Neese,F.
     The SHARK Integral Generation and Digestion System
     J. Comp. Chem., 2022  1-16
     doi.org/10.1002/jcc.26942
  7. Lehtola,S.; Steigemann,C.; Oliveira,M.; Marques,M.
     Recent developments in Libxc - A comprehensive library of functionals for density functional theory
     Software X, 2018 7 
     doi.org/10.1016/j.softx.2017.11.002
  8. Grimme,S.; Antony,J.; Ehrlich,S.; Krieg,H.
     A consistent and accurate ab initio parametrization of density functional dispersion correction (DFT-D) for the 94 elements H-Pu
     J. Chem. Phys., 2010 132 154104-XXXX
     doi.org/10.1063/1.3382344
  9. Grimme,S.; Ehrlich,S.; Goerigk,L.
     Effect of the damping function in dispersion corrected density functional theory
     J. Comput. Chem., 2011 32(7)1456-1465
     doi.org/10.1002/jcc.21759

List of suggested additional citations. These are papers that are important in the 'surrounding' of 
of this run, or papers that preceded the highly important papers. If you like your results we are grateful for a citation.

  1. Izsak,R.; Neese,F.
     An overlap fitted chain of spheres exchange method
     J. Chem. Phys., 2011 135 144105
     doi.org/10.1063/1.3646921
  2. Izsak,R.; Hansen,A.; Neese,F.
     The resolution of identity and chain of spheres approximations for the LPNO-CCSD singles Fock term
     Molec. Phys., 2012 110 2413-2417
     doi.org/10.1080/00268976.2012.687466
  3. Neese,F.
     The ORCA program system
     WIRES Comput. Molec. Sci., 2012 2(1)73-78
     doi.org/10.1002/wcms.81
  4. Izsak,R.; Neese,F.; Klopper,W.
     Robust fitting techniques in the chain of spheres approximation to the Fock exchange: The role of the complementary space
     J. Chem. Phys., 2013 139 
     doi.org/10.1063/1.4819264
  5. Neese,F.
     Software update: the ORCA program system, version 4.0
     WIRES Comput. Molec. Sci., 2018 8(1)1-6
     doi.org/10.1002/wcms.1327
  6. Neese,F.; Wennmohs,F.; Becker,U.; Riplinger,C.
     The ORCA quantum chemistry program package
     J. Chem. Phys., 2020 152 Art. No. L224108
     doi.org/10.1063/5.0004608

List of optional additional citations

  1. Neese,F.
     Approximate second-order SCF convergence for spin unrestricted wavefunctions
     Chem. Phys. Lett., 2000 325(1-3)93-98
     doi.org/10.1016/s0009-2614(00)00662-x

Timings for individual modules:

Sum of individual times          ...      286.237 sec (=   4.771 min)
Startup calculation              ...        6.329 sec (=   0.105 min)   2.2 %
SCF iterations                   ...      123.252 sec (=   2.054 min)  43.1 %
Property integrals               ...        4.170 sec (=   0.070 min)   1.5 %
Property calculations            ...        2.849 sec (=   0.047 min)   1.0 %
CIS module                       ...      149.636 sec (=   2.494 min)  52.3 %
                             ****ORCA TERMINATED NORMALLY****
TOTAL RUN TIME: 0 days 0 hours 4 minutes 48 seconds 454 msec
