7
Properties=species:S:1:pos:R:3:momenta:R:3:forces:R:3 Coordinates=T from=T ORCA-job=T orca=T E=T -153.873139603898=T energy=-4183.539593470489 free_energy=-4183.539593470489 stress="2.6419815982862936e-06 3.2324411218941167e-06 -6.797099349385043e-08 3.2324411218941167e-06 -4.834972916352612e-06 4.291339369095425e-06 -6.797099349385043e-08 4.291339369095425e-06 -4.846981592801908e-06" pbc="F F F"
O       -0.24128692       0.94827611      -0.50270615       0.82083999      -2.10478701       0.83104602      -0.12532434       1.55527629      -1.54507323
C        0.46035594      -1.15685199       0.05279824      -0.43007194       1.51663357       0.27804556       0.98992826      -2.33241114      -0.40661038
C       -0.23006396       0.03095169       0.47941525      -0.32665178       0.93051837      -0.49888233      -1.68918680      -0.07766771       0.13215587
H        1.57262024      -1.25659205       0.05674326       0.02178540      -0.09662777      -0.15133356      -1.09956779       0.15504577       0.00916476
H       -0.15247089      -1.95601538      -0.47614956      -0.19137813       0.31613897      -0.18662166       0.96464827       0.96555927       0.69287141
H       -1.29180924      -0.20590775       0.71024937      -0.12249278      -0.54736251      -0.10220597       0.07724050      -0.03045487       0.06093494
H        0.03990567       0.60391233       1.34748696       0.22796925      -0.01451361      -0.17004805       0.88226191      -0.23534762       1.05655663
