
                                 *****************
                                 * O   R   C   A *
                                 *****************

                                            #,                                       
                                            ###                                      
                                            ####                                     
                                            #####                                    
                                            ######                                   
                                           ########,                                 
                                     ,,################,,,,,                         
                               ,,#################################,,                 
                          ,,##########################################,,             
                       ,#########################################, ''#####,          
                    ,#############################################,,   '####,        
                  ,##################################################,,,,####,       
                ,###########''''           ''''###############################       
              ,#####''   ,,,,##########,,,,          '''####'''          '####       
            ,##' ,,,,###########################,,,                        '##       
           ' ,,###''''                  '''############,,,                           
         ,,##''                                '''############,,,,        ,,,,,,###''
      ,#''                                            '''#######################'''  
     '                                                          ''''####''''         
             ,#######,   #######,   ,#######,      ##                                
            ,#'     '#,  ##    ##  ,#'     '#,    #''#        ,####,   ,####,        
            ##       ##  ##   ,#'  ##            #'  '#       #'       #'  '#        
            ##       ##  #######   ##           ,######,      #####,   #    #        
            '#,     ,#'  ##    ##  '#,     ,#' ,#      #,     #,   #   #,  ,#        
             '#######'   ##     ##  '#######'  #'      '#     '####' # '####'        



                #########################################################
                #                        -***-                          #
                #          Department of theory and spectroscopy        #
                #                                                       #
                #                      Frank Neese                      #
                #                                                       #
                #     Directorship, Architecture, Infrastructure        #
                #                    SHARK, DRIVERS                     #
                #        Core code/Algorithms in most modules           #
                #                                                       #
                #        Max Planck Institute fuer Kohlenforschung      #
                #                Kaiser Wilhelm Platz 1                 #
                #                 D-45470 Muelheim/Ruhr                 #
                #                      Germany                          #
                #                                                       #
                #                  All rights reserved                  #
                #                        -***-                          #
                #########################################################


                         Program Version 6.0.0  -   RELEASE  -


 With contributions from (in alphabetic order):
   Daniel Aravena         : Magnetic Suceptibility
   Michael Atanasov       : Ab Initio Ligand Field Theory (pilot matlab implementation)
   Alexander A. Auer      : GIAO ZORA, VPT2 properties, NMR spectrum
   Ute Becker             : All parallelization in ORCA, NUMFREQ, NUMCALC
   Giovanni Bistoni       : ED, misc. LED, open-shell LED, HFLD
   Martin Brehm           : Molecular dynamics
   Dmytro Bykov           : pre 5.0 version of the SCF Hessian
   Marcos Casanova-Páez   : Triplet and SCS-CIS(D). UHF-(DLPNO)-IP/EA/STEOM-CCSD. UHF-CVS-IP/STEOM-CCSD
   Vijay G. Chilkuri      : MRCI spin determinant printing, contributions to CSF-ICE
   Pauline Colinet        : FMM embedding
   Dipayan Datta          : RHF DLPNO-CCSD density
   Achintya Kumar Dutta   : EOM-CC, STEOM-CC
   Nicolas Foglia         : Exact transition moments, OPA infrastructure, MCD improvements
   Dmitry Ganyushin       : Spin-Orbit,Spin-Spin,Magnetic field MRCI
   Miquel Garcia          : C-PCM and meta-GGA Hessian, CCSD/C-PCM, Gaussian charge scheme
   Tiago L. C. Gouveia    : GS-ROHF, GS-ROCIS
   Yang Guo               : DLPNO-NEVPT2, F12-NEVPT2, CIM, IAO-localization
   Andreas Hansen         : Spin unrestricted coupled pair/coupled cluster methods
   Ingolf Harden          : AUTO-CI MPn and infrastructure 
   Benjamin Helmich-Paris : MC-RPA, TRAH-(SCF,CASSCF), AVAS, COSX integrals, SCF dyn. polar.
   Lee Huntington         : MR-EOM, pCC
   Robert Izsak           : Overlap fitted RIJCOSX, COSX-SCS-MP3, EOM
   Riya Kayal             : Wick's Theorem for AUTO-CI, AUTO-CI UHF-CCSDT
   Emily Kempfer          : AUTO-CI, RHF CISDT and CCSDT
   Christian Kollmar      : KDIIS, OOCD, Brueckner-CCSD(T), CCSD density, CASPT2, CASPT2-K, improved NEVPT2
   Axel Koslowski         : Symmetry handling
   Simone Kossmann        : Meta GGA functionals, TD-DFT gradient, OOMP2, (MP2 Hessian; deprecated post 5.0)
   Lucas Lang             : DCDCAS
   Marvin Lechner         : AUTO-CI (C++ implementation), FIC-MRCC
   Spencer Leger          : CASSCF response
   Dagmar Lenk            : GEPOL surface, SMD, ORCA-2-JSON
   Dimitrios Liakos       : Extrapolation schemes; Compound Job, initial MDCI parallelization
   Dimitrios Manganas     : Further ROCIS development; embedding schemes. LFT, Crystal Embedding
   Dimitrios Pantazis     : SARC Basis sets
   Anastasios Papadopoulos: AUTO-CI, single reference methods and gradients
   Taras Petrenko         : pre 6.0 DFT Hessian and TD-DFT gradient, (ASA, deprecated), ECA, 1-Electron XAS/XES, NRVS
   Peter Pinski           : DLPNO-MP2, DLPNO-MP2 Gradient
   Christoph Reimann      : Effective Core Potentials
   Marius Retegan         : Local ZFS, SOC
   Christoph Riplinger    : Optimizer, TS searches, QM/MM, DLPNO-CCSD(T), (RO)-DLPNO pert. Triples
   Michael Roemelt        : Original ROCIS implementation
   Masaaki Saitow         : Open-shell DLPNO-CCSD energy and density
   Barbara Sandhoefer     : DKH picture change effects
   Kantharuban Sivalingam : CASSCF convergence/infrastructure, NEVPT2 and variants, FIC-MRCI
   Bernardo de Souza      : ESD, SOC TD-DFT
   Georgi Stoychev        : AutoAux, RI-MP2 NMR, DLPNO-MP2 response, X2C
   Van Anh Tran           : RI-MP2 g-tensors
   Willem Van den Heuvel  : Paramagnetic NMR
   Zikuan Wang            : NOTCH, Electric field optimization 
   Frank Wennmohs         : Technical directorship and infrastructure
   Hang Xu                : AUTO-CI-Response properties 


 We gratefully acknowledge several colleagues who have allowed us to
 interface, adapt or use parts of their codes:
   Stefan Grimme, W. Hujo, H. Kruse, P. Pracht,  : VdW corrections, initial TS optimization,
                  C. Bannwarth, S. Ehlert,         DFT functionals, gCP, sTDA/sTD-DF
                  L. Wittmann, M. Mueller
   Ed Valeev, F. Pavosevic, A. Kumar             : LibInt (2-el integral package), F12 methods
   Garnet Chan, S. Sharma, J. Yang, R. Olivares  : DMRG
   Ulf Ekstrom                                   : XCFun DFT Library
   Mihaly Kallay                                 : mrcc  (arbitrary order and MRCC methods)
   Frank Weinhold                                : gennbo (NPA and NBO analysis)
   Simon Mueller                                 : openCOSMO-RS
   Christopher J. Cramer and Donald G. Truhlar   : smd solvation model
   Lars Goerigk                                  : TD-DFT with DH, B97 family of functionals
   V. Asgeirsson, H. Jonsson                     : NEB implementation
   FAccTs GmbH                                   : IRC, NEB, NEB-TS, DLPNO-Multilevel, CI-OPT
                                                   MM, QMMM, 2- and 3-layer-ONIOM, Crystal-QMMM,
                                                   LR-CPCM, SF, NACMEs, symmetry and pop. for TD-DFT,
                                                   nearIR, NL-DFT gradient (VV10), updates on ESD,
                                                   ML-optimized integration grids, MBIS, APM,
                                                   GOAT, DOCKER, SOLVATOR, interface openCOSMO-RS
   S Lehtola, MJT Oliveira, MAL Marques          : LibXC Library
   Liviu Ungur et al                             : ANISO software


 Your calculation uses the libint2 library for the computation of 2-el integrals
 For citations please refer to: http://libint.valeyev.net

 Your ORCA version has been built with support for libXC version: 6.2.2
 For citations please refer to: https://libxc.gitlab.io

 This ORCA versions uses:
   CBLAS   interface :  Fast vector & matrix operations
   LAPACKE interface :  Fast linear algebra routines
   SCALAPACK package :  Parallel linear algebra routines
   Shared memory     :  Shared parallel matrices
   BLAS/LAPACK       :  OpenBLAS 0.3.27  USE64BITINT DYNAMIC_ARCH NO_AFFINITY Zen SINGLE_THREADED
        Core in use  :  Zen
   Copyright (c) 2011-2014, The OpenBLAS Project


Your calculation utilizes the atom-pairwise dispersion correction
with the Becke-Johnson damping scheme (D3BJ)


Warning: RI is on but no J-basis has been assigned. Assigning Def2/J (nothing to worry about!)
================================================================================

----- Orbital basis set information -----
Your calculation utilizes the basis: def2-TZVPPD
   F. Weigend and R. Ahlrichs, Phys. Chem. Chem. Phys. 7, 3297 (2005).
   D. Rappoport and F. Furche, J. Chem. Phys. 133, 134105 (2010)
   D. Rappoport, J. Chem. Phys. 155, 124102 (2021).

----- AuxJ basis set information -----
Your calculation utilizes the auxiliary basis: def2/J
   F. Weigend, Phys. Chem. Chem. Phys. 8, 1057 (2006).

================================================================================
                                        WARNINGS
                       Please study these warnings very carefully!
================================================================================

Using LibXC functional ID 531 : wB97M-V exchange-correlation functional
[ 1]  N. Mardirossian and M. Head-Gordon.,  J. Chem. Phys. 144, 214110 (2016)
Using LibXC functional ID 531 : wB97M-V exchange-correlation functional
[ 1]  N. Mardirossian and M. Head-Gordon.,  J. Chem. Phys. 144, 214110 (2016)

WARNING: B97M-V or wB97M-V functional requested.
  ===> : libXC variant has now been activated.
         Any manually given DFX/HFX/RangeSep scaling parameters are IGNORED!

Your calculation utilizes LibXC
 by S Lehtola, C Steigemann, MJT Oliveira & MAL Marques
Please cite in your paper:
 S Lehtola, C Steigemann, MJT Oliveira & MAL Marques, SoftwareX, 7, (2018), 1.
   


WARNING: your system is open-shell and RHF/RKS was chosen
  ===> : WILL SWITCH to UHF/UKS

INFO   : Checking CIS options ...

WARNING: CIS/ROCIS methods need fully converged wavefunctions
  ===> : Setting SCFConvForced true
         You can overwrite this default with %scf ConvForced false 


================================================================================
                                       INPUT FILE
================================================================================
NAME = orca.inp
|  1> ! EnGrad wB97M-D3BJ def2-TZVPPD 
|  2> %pal nprocs 8 end%pal nprocs 16 end 
|  3> %tddft 
|  4>  sf true 
|  5>  nroots 2 Iroot 2 end 
|  6> *xyz 0 3 
|  7> O   0.70937556126862 1.33586693361277 0.07761229206744
|  8> C   0.5594648836356 0.19183318278981 -0.25358833563444
|  9> C   -0.45032624699331 -0.8050166186138 0.22470167138627
| 10> H   0.07944063579793 -1.66643799364054 0.63205408533424
| 11> H   1.24287240660773 -0.23088525422898 -1.02008677084289
| 12> H   -1.02206484490995 -1.15862892698659 -0.63371173835275
| 13> H   -1.11656239540662 -0.38513132293267 0.97301879604213
| 14> *
| 15> 
| 16>                          ****END OF INPUT****
================================================================================

                     *******************************
                     * Energy+Gradient Calculation *
                     *******************************

---------------------------------
CARTESIAN COORDINATES (ANGSTROEM)
---------------------------------
  O      0.709376    1.335867    0.077612
  C      0.559465    0.191833   -0.253588
  C     -0.450326   -0.805017    0.224702
  H      0.079441   -1.666438    0.632054
  H      1.242872   -0.230885   -1.020087
  H     -1.022065   -1.158629   -0.633712
  H     -1.116562   -0.385131    0.973019

----------------------------
CARTESIAN COORDINATES (A.U.)
----------------------------
  NO LB      ZA    FRAG     MASS         X           Y           Z
   0 O     8.0000    0    15.999    1.340526    2.524423    0.146666
   1 C     6.0000    0    12.011    1.057235    0.362512   -0.479213
   2 C     6.0000    0    12.011   -0.850993   -1.521261    0.424625
   3 H     1.0000    0     1.008    0.150121   -3.149111    1.194409
   4 H     1.0000    0     1.008    2.348688   -0.436310   -1.927685
   5 H     1.0000    0     1.008   -1.931423   -2.189491   -1.197542
   6 H     1.0000    0     1.008   -2.109997   -0.727793    1.838739

--------------------------------
INTERNAL COORDINATES (ANGSTROEM)
--------------------------------
 O      0   0   0     0.000000000000     0.00000000     0.00000000
 C      1   0   0     1.200408384709     0.00000000     0.00000000
 C      2   1   0     1.497380708060   129.09090387     0.00000000
 H      3   2   1     1.090245717536   108.52155808   238.09669789
 H      2   1   3     1.110520855557   118.44762073   180.01353901
 H      3   2   1     1.090321177911   108.54532317   122.12023703
 H      3   2   1     1.086348372317   112.10433352     0.09763774

---------------------------
INTERNAL COORDINATES (A.U.)
---------------------------
 O      0   0   0     0.000000000000     0.00000000     0.00000000
 C      1   0   0     2.268443095963     0.00000000     0.00000000
 C      2   1   0     2.829639456451   129.09090387     0.00000000
 H      3   2   1     2.060265824823   108.52155808   238.09669789
 H      2   1   3     2.098580283011   118.44762073   180.01353901
 H      3   2   1     2.060408424265   108.54532317   122.12023703
 H      3   2   1     2.052900909710   112.10433352     0.09763774

---------------------
BASIS SET INFORMATION
---------------------
There are 3 groups of distinct atoms

 Group   1 Type O   : 12s7p3d1f contracted to 6s4p3d1f pattern {621111/4111/111/1}
 Group   2 Type C   : 12s6p3d1f contracted to 6s3p3d1f pattern {621111/411/111/1}
 Group   3 Type H   : 5s3p1d contracted to 3s3p1d pattern {311/111/1}

Atom   0O    basis set group =>   1
Atom   1C    basis set group =>   2
Atom   2C    basis set group =>   2
Atom   3H    basis set group =>   3
Atom   4H    basis set group =>   3
Atom   5H    basis set group =>   3
Atom   6H    basis set group =>   3
---------------------------------
AUXILIARY/J BASIS SET INFORMATION
---------------------------------
There are 3 groups of distinct atoms

 Group   1 Type O   : 12s5p4d2f1g contracted to 6s4p3d1f1g pattern {711111/2111/211/2/1}
 Group   2 Type C   : 12s5p4d2f1g contracted to 6s4p3d1f1g pattern {711111/2111/211/2/1}
 Group   3 Type H   : 5s2p1d contracted to 3s1p1d pattern {311/2/1}

Atom   0O    basis set group =>   1
Atom   1C    basis set group =>   2
Atom   2C    basis set group =>   2
Atom   3H    basis set group =>   3
Atom   4H    basis set group =>   3
Atom   5H    basis set group =>   3
Atom   6H    basis set group =>   3
[1741000419.549913] [ohm:3244474:0]        ib_iface.c:1059 UCX  ERROR ibv_create_cq(cqe=256) failed: Connection timed out
[1741000419.550223] [ohm:3244472:0]        ib_iface.c:1059 UCX  ERROR ibv_create_cq(cqe=256) failed: Connection timed out
[1741000419.550416] [ohm:3244476:0]        ib_iface.c:1059 UCX  ERROR ibv_create_cq(cqe=256) failed: Connection timed out
[1741000419.564899] [ohm:3244478:0]        ib_iface.c:1059 UCX  ERROR ibv_create_cq(cqe=256) failed: Connection timed out
[1741000419.566125] [ohm:3244471:0]        ib_iface.c:1059 UCX  ERROR ibv_create_cq(cqe=256) failed: Connection timed out
[1741000419.566114] [ohm:3244473:0]        ib_iface.c:1059 UCX  ERROR ibv_create_cq(cqe=256) failed: Connection timed out
[1741000419.566115] [ohm:3244477:0]        ib_iface.c:1059 UCX  ERROR ibv_create_cq(cqe=256) failed: Connection timed out
[1741000419.566290] [ohm:3244475:0]        ib_iface.c:1059 UCX  ERROR ibv_create_cq(cqe=256) failed: Connection timed out
[1741000419.570590] [ohm:3244487:0]        ib_iface.c:1059 UCX  ERROR ibv_create_cq(cqe=256) failed: Connection timed out
[1741000419.585658] [ohm:3244482:0]        ib_iface.c:1059 UCX  ERROR ibv_create_cq(cqe=256) failed: Connection timed out
[1741000419.587760] [ohm:3244499:0]        ib_iface.c:1059 UCX  ERROR ibv_create_cq(cqe=256) failed: Connection timed out
[1741000419.593562] [ohm:3244493:0]        ib_iface.c:1059 UCX  ERROR ibv_create_cq(cqe=256) failed: Connection timed out
[1741000419.593876] [ohm:3244490:0]        ib_iface.c:1059 UCX  ERROR ibv_create_cq(cqe=256) failed: Connection timed out
[1741000419.594000] [ohm:3244496:0]        ib_iface.c:1059 UCX  ERROR ibv_create_cq(cqe=256) failed: Connection timed out
[1741000419.593993] [ohm:3244479:0]        ib_iface.c:1059 UCX  ERROR ibv_create_cq(cqe=256) failed: Connection timed out
[1741000419.593993] [ohm:3244484:0]        ib_iface.c:1059 UCX  ERROR ibv_create_cq(cqe=256) failed: Connection timed out


           ************************************************************
           *        Program running with 16 parallel MPI-processes    *
           *              working on a common directory               *
           ************************************************************
------------------------------------------------------------------------------
                             ORCA STARTUP CALCULATIONS
                           -- RI-GTO INTEGRALS CHOSEN --
------------------------------------------------------------------------------
------------------------------------------------------------------------------
                   ___                                                        
                  /   \      - P O W E R E D   B Y -                         
                 /     \                                                     
                 |  |  |   _    _      __       _____    __    __             
                 |  |  |  | |  | |    /  \     |  _  \  |  |  /  |          
                  \  \/   | |  | |   /    \    | | | |  |  | /  /          
                 / \  \   | |__| |  /  /\  \   | |_| |  |  |/  /          
                |  |  |   |  __  | /  /__\  \  |    /   |      \           
                |  |  |   | |  | | |   __   |  |    \   |  |\   \          
                \     /   | |  | | |  |  |  |  | |\  \  |  | \   \       
                 \___/    |_|  |_| |__|  |__|  |_| \__\ |__|  \__/        
                                                                              
                      - O R C A' S   B I G   F R I E N D -                    
                                      &                                       
                       - I N T E G R A L  F E E D E R -                       
                                                                              
 v1 FN, 2020, v2 2021, v3 2022-2024                                           
------------------------------------------------------------------------------


----------------------
SHARK INTEGRAL PACKAGE
----------------------

Number of atoms                             ...      7
Number of basis functions                   ...    182
Number of shells                            ...     68
Maximum angular momentum                    ...      3
Integral batch strategy                     ... SHARK/LIBINT Hybrid
RI-J (if used) integral strategy            ... SPLIT-RIJ (Revised 2003 algorithm where possible)
Printlevel                                  ...      1
Contraction scheme used                     ... SEGMENTED contraction
Prescreening option                         ... SCHWARTZ
   Thresh                                   ... 2.500e-11
   Tcut                                     ... 2.500e-12
   Tpresel                                  ... 2.500e-12 
Coulomb Range Separation                    ... NOT USED
Exchange Range Separation                   ... Long Range
   Mu parameter                             ... 3.000e-01
   Scaling (regular/separated)              ... 1.500e-01 8.500e-01
Multipole approximations                    ... NOT USED
Finite Nucleus Model                        ... NOT USED
CABS basis                                  ... NOT available
Auxiliary Coulomb fitting basis             ... AVAILABLE
   # of basis functions in Aux-J            ...    191
   # of shells in Aux-J                     ...     65
   Maximum angular momentum in Aux-J        ...      4
Auxiliary J/K fitting basis                 ... NOT available
Auxiliary Correlation fitting basis         ... NOT available
Auxiliary 'external' fitting basis          ... NOT available

Checking pre-screening integrals            ... done (  0.0 sec) Dimension = 68
Check shell pair data                       ... done (  0.0 sec)
Shell pair information
Shell pair cut-off parameter TPreSel        ...   2.5e-12
Total number of shell pairs                 ...      2346
Shell pairs after pre-screening             ...      2323
Total number of primitive shell pairs       ...      5434
Primitive shell pairs kept                  ...      4804
          la=0 lb=0:    454 shell pairs
          la=1 lb=0:    653 shell pairs
          la=1 lb=1:    253 shell pairs
          la=2 lb=0:    385 shell pairs
          la=2 lb=1:    286 shell pairs
          la=2 lb=2:     91 shell pairs
          la=3 lb=0:     90 shell pairs
          la=3 lb=1:     66 shell pairs
          la=3 lb=2:     39 shell pairs
          la=3 lb=3:      6 shell pairs

Calculating one electron integrals          ... done (  0.0 sec)
Calculating RI/J V-Matrix + Cholesky decomp.... done (  0.0 sec)
Calculating Nuclear repulsion               ... done (  0.0 sec) ENN=     69.764777361094 Eh

Diagonalization of the overlap matrix:
Smallest eigenvalue                        ... 1.425e-05
Time for diagonalization                   ...    0.003 sec
Threshold for overlap eigenvalues          ... 1.000e-07
Number of eigenvalues below threshold      ... 0
Time for construction of square roots      ...    0.001 sec
Total time needed                          ...    0.005 sec

-------------------
DFT GRID GENERATION
-------------------

General Integration Accuracy     IntAcc      ... 4.388
Radial Grid Type                 RadialGrid  ... OptM3 with GC (2021)
Angular Grid (max. ang.)         AngularGrid ... 4 (Lebedev-302)
Angular grid pruning method      GridPruning ... 4 (adaptive)
Weight generation scheme         WeightScheme... mBecke (2022)
Basis function cutoff            BFCut       ... 1.0000e-11
Integration weight cutoff        WCut        ... 1.0000e-14
Partially contracted basis set               ... off
Rotationally invariant grid construction     ... off
Angular grids for H and He will be reduced by one unit
Diffuse basis detected: some atoms will have their outermost
                        angular grid increased by 1.

Total number of grid points                  ...    33135
Total number of batches                      ...      521
Average number of points per batch           ...       63
Average number of grid points per atom       ...     4734

--------------------
COSX GRID GENERATION
--------------------

GRIDX 1
-------
General Integration Accuracy     IntAcc      ... 3.816
Radial Grid Type                 RadialGrid  ... OptM3 with GC (2021)
Angular Grid (max. ang.)         AngularGrid ... 1 (Lebedev-50)
Angular grid pruning method      GridPruning ... 4 (adaptive)
Weight generation scheme         WeightScheme... mBecke (2022)
Basis function cutoff            BFCut       ... 1.0000e-11
Integration weight cutoff        WCut        ... 1.0000e-14
Partially contracted basis set               ... on
Rotationally invariant grid construction     ... off
Angular grids for H and He will be reduced by one unit
Diffuse basis detected: some atoms will have their outermost
                        angular grid increased by 1.

Total number of grid points                  ...     4178
Total number of batches                      ...       36
Average number of points per batch           ...      116
Average number of grid points per atom       ...      597
UseSFitting                                  ... on

GRIDX 2
-------
General Integration Accuracy     IntAcc      ... 4.020
Radial Grid Type                 RadialGrid  ... OptM3 with GC (2021)
Angular Grid (max. ang.)         AngularGrid ... 2 (Lebedev-110)
Angular grid pruning method      GridPruning ... 4 (adaptive)
Weight generation scheme         WeightScheme... mBecke (2022)
Basis function cutoff            BFCut       ... 1.0000e-11
Integration weight cutoff        WCut        ... 1.0000e-14
Partially contracted basis set               ... on
Rotationally invariant grid construction     ... off
Angular grids for H and He will be reduced by one unit
Diffuse basis detected: some atoms will have their outermost
                        angular grid increased by 1.

Total number of grid points                  ...    10304
Total number of batches                      ...       84
Average number of points per batch           ...      122
Average number of grid points per atom       ...     1472
UseSFitting                                  ... on

GRIDX 3
-------
General Integration Accuracy     IntAcc      ... 4.338
Radial Grid Type                 RadialGrid  ... OptM3 with GC (2021)
Angular Grid (max. ang.)         AngularGrid ... 3 (Lebedev-194)
Angular grid pruning method      GridPruning ... 4 (adaptive)
Weight generation scheme         WeightScheme... mBecke (2022)
Basis function cutoff            BFCut       ... 1.0000e-11
Integration weight cutoff        WCut        ... 1.0000e-14
Partially contracted basis set               ... on
Rotationally invariant grid construction     ... off
Angular grids for H and He will be reduced by one unit
Diffuse basis detected: some atoms will have their outermost
                        angular grid increased by 1.

Total number of grid points                  ...    23152
Total number of batches                      ...      184
Average number of points per batch           ...      125
Average number of grid points per atom       ...     3307
UseSFitting                                  ... on
Initializing property integral containers    ... done (  0.0 sec)

SHARK setup successfully completed in   0.3 seconds

Maximum memory used throughout the entire STARTUP-calculation: 13.8 MB
[1741000420.510233] [ohm:3244556:0]        ib_iface.c:1059 UCX  ERROR ibv_create_cq(cqe=256) failed: Connection timed out
[1741000420.510222] [ohm:3244560:0]        ib_iface.c:1059 UCX  ERROR ibv_create_cq(cqe=256) failed: Connection timed out
[1741000420.523182] [ohm:3244555:0]        ib_iface.c:1059 UCX  ERROR ibv_create_cq(cqe=256) failed: Connection timed out
[1741000420.523182] [ohm:3244557:0]        ib_iface.c:1059 UCX  ERROR ibv_create_cq(cqe=256) failed: Connection timed out
[1741000420.523744] [ohm:3244559:0]        ib_iface.c:1059 UCX  ERROR ibv_create_cq(cqe=256) failed: Connection timed out
[1741000420.529977] [ohm:3244565:0]        ib_iface.c:1059 UCX  ERROR ibv_create_cq(cqe=256) failed: Connection timed out
[1741000420.535195] [ohm:3244561:0]        ib_iface.c:1059 UCX  ERROR ibv_create_cq(cqe=256) failed: Connection timed out
[1741000420.536159] [ohm:3244562:0]        ib_iface.c:1059 UCX  ERROR ibv_create_cq(cqe=256) failed: Connection timed out
[1741000420.536961] [ohm:3244558:0]        ib_iface.c:1059 UCX  ERROR ibv_create_cq(cqe=256) failed: Connection timed out
[1741000420.571564] [ohm:3244576:0]        ib_iface.c:1059 UCX  ERROR ibv_create_cq(cqe=256) failed: Connection timed out
[1741000420.571645] [ohm:3244568:0]        ib_iface.c:1059 UCX  ERROR ibv_create_cq(cqe=256) failed: Connection timed out
[1741000420.571779] [ohm:3244581:0]        ib_iface.c:1059 UCX  ERROR ibv_create_cq(cqe=256) failed: Connection timed out
[1741000420.571760] [ohm:3244567:0]        ib_iface.c:1059 UCX  ERROR ibv_create_cq(cqe=256) failed: Connection timed out
[1741000420.571821] [ohm:3244563:0]        ib_iface.c:1059 UCX  ERROR ibv_create_cq(cqe=256) failed: Connection timed out
[1741000420.571883] [ohm:3244570:0]        ib_iface.c:1059 UCX  ERROR ibv_create_cq(cqe=256) failed: Connection timed out
[1741000420.571872] [ohm:3244583:0]        ib_iface.c:1059 UCX  ERROR ibv_create_cq(cqe=256) failed: Connection timed out


           ************************************************************
           *        Program running with 16 parallel MPI-processes    *
           *              working on a common directory               *
           ************************************************************
-------------------------------------------------------------------------------
                                 ORCA GUESS
                   Start orbitals & Density for SCF / CASSCF
-------------------------------------------------------------------------------

------------
SCF SETTINGS
------------
Hamiltonian:
 Density Functional     Method          .... DFT(GTOs)
  Functional kind                       .... Exchange-Correlation
  Functional name                       .... wB97M-V exchange-correlation functional
  Functional family                     .... Hybrid MGGA
  Functional refs                              
    [ 0] N. Mardirossian and M. Head-Gordon.,  J. Chem. Phys. 144, 214110 (2016), doi: 10.1063/1.4952647
  Fraction of HF Exchange (short range) .... 0.1500
  Fraction of HF Exchange (long range)  .... 1.0000
  Range separation parameter mu         .... 0.3000
  Functional external parameters        .... 17
    Parameter  0 _cx00      =  8.500000e-01 : u^00 coefficient for exchange
    Parameter  1 _cx01      =  1.007000e+00 : u^01 coefficient for exchange
    Parameter  2 _cx10      =  2.590000e-01 : u^10 coefficient for exchange
    Parameter  3 _css00     =  4.430000e-01 : u^00 coefficient for same-spin correlation
    Parameter  4 _css04     = -1.437000e+00 : u^04 coefficient for same-spin correlation
    Parameter  5 _css10     = -4.535000e+00 : u^10 coefficient for same-spin correlation
    Parameter  6 _css20     = -3.390000e+00 : u^20 coefficient for same-spin correlation
    Parameter  7 _css43     =  4.278000e+00 : u^43 coefficient for same-spin correlation
    Parameter  8 _cos00     =  1.000000e+00 : u^00 coefficient for opposite-spin correlation
    Parameter  9 _cos10     =  1.358000e+00 : u^10 coefficient for opposite-spin correlation
    Parameter 10 _cos20     =  2.924000e+00 : u^20 coefficient for opposite-spin correlation
    Parameter 11 _cos21     = -8.812000e+00 : u^21 coefficient for opposite-spin correlation
    Parameter 12 _cos60     = -1.390000e+00 : u^60 coefficient for opposite-spin correlation
    Parameter 13 _cos61     =  9.142000e+00 : u^61 coefficient for opposite-spin correlation
    Parameter 14 _alpha     =  1.000000e+00 : fraction of HF exchange
    Parameter 15 _beta      = -8.500000e-01 : fraction of short-range exchange
    Parameter 16 _omega     =  3.000000e-01 : range-separation constant
 Long-range corrected/Screened/Range-Separated Hybrid DFT is turned on
   Amount of maximum screened exact exchange              ....  0.850000
   Range separation parameter mu (erf(mu*r12)/r12)        ....  0.300000
 RI-approximation to the Coulomb term is turned on
   Number of AuxJ basis functions       .... 191
   RIJ-COSX (HFX calculated with COS-X)).... on


General Settings:
 Integral files         IntName         .... orca
 Hartree-Fock type      HFTyp           .... UHF
 Total Charge           Charge          ....    0
 Multiplicity           Mult            ....    3
 Number of Electrons    NEL             ....   24
 Basis Dimension        Dim             ....  182
 Nuclear Repulsion      ENuc            ....     69.7647773611 Eh

Convergence Acceleration:
 AO-DIIS                CNVDIIS         .... on
   Start iteration      DIISMaxIt       ....    12
   Startup error        DIISStart       ....  0.200000
   # of expansion vecs  DIISMaxEq       ....     5
   Bias factor          DIISBfac        ....   1.050
   Max. coefficient     DIISMaxC        ....  10.000
 MO-DIIS                CNVKDIIS        .... off
 Trust-Rad. Augm. Hess. CNVTRAH         .... auto
   Auto Start mean grad. ratio tolernc. ....  1.125000
   Auto Start start iteration           ....    50
   Auto Start num. interpolation iter.  ....    10
   Max. Number of Micro iterations      ....    24
   Max. Number of Macro iterations      .... Maxiter - #DIIS iter
   Number of Davidson start vectors     ....     2
   Converg. threshold    (grad. norm)   ....   1.000e-05
   Grad. Scal. Fac. for Micro threshold ....   0.100
   Minimum threshold for Micro iter.    ....   1.000e-02
   NR start threshold (gradient norm)   ....   1.000e-04
   Initial trust radius                 ....   0.400
   Minimum AH scaling param. (alpha)    ....   1.000
   Maximum AH scaling param. (alpha)    .... 1000.000
   Quad. conv. algorithm                .... NR
   White noise on init. David. guess    .... on
   Maximum white noise                  ....   0.010
   Pseudo random numbers                .... off
   Inactive MOs                         .... canonical
   Orbital update algorithm             .... Taylor
   Preconditioner                       .... Diag
   Full preconditioner red. dimension   ....   250
 SOSCF                  CNVSOSCF        .... on
   Start iteration      SOSCFMaxIt      ....   150
   Startup grad/error   SOSCFStart      ....  0.003300
   Hessian update       SOSCFHessUp     .... L-BFGS
 Level Shifting         CNVShift        .... on
   Level shift para.    LevelShift      ....    0.2500
   Turn off err/grad.   ShiftErr        ....    0.0010
 Zerner damping         CNVZerner       .... off
 Static damping         CNVDamp         .... on
   Fraction old density DampFac         ....    0.7000
   Max. Damping (<1)    DampMax         ....    0.9800
   Min. Damping (>=0)   DampMin         ....    0.0000
   Turn off err/grad.   DampErr         ....    0.1000

SCF Procedure:
 Maximum # iterations   MaxIter         ....   125
 SCF integral mode      SCFMode         .... Direct
   Integral package                     .... SHARK and LIBINT hybrid scheme
 Reset frequency        DirectResetFreq ....    20
 Integral Threshold     Thresh          ....  2.500e-11 Eh
 Primitive CutOff       TCut            ....  2.500e-12 Eh

Convergence Tolerance:
 Convergence Check Mode ConvCheckMode   .... Total+1el-Energy
 Convergence forced     ConvForced      .... 1
 Energy Change          TolE            ....  1.000e-08 Eh
 1-El. energy change                    ....  1.000e-05 Eh
 Orbital Gradient       TolG            ....  1.000e-05
 Orbital Rotation angle TolX            ....  1.000e-05
 DIIS Error             TolErr          ....  5.000e-07

------------------------------
INITIAL GUESS: MODEL POTENTIAL
------------------------------
Loading Hartree-Fock densities                     ... done
Calculating cut-offs                               ... done
Initializing the effective Hamiltonian             ... done
Setting up the integral package (SHARK)            ... done
Starting the Coulomb interaction                   ... done (   0.0 sec)
Making the grid                                    ... done (   0.0 sec)
Mapping shells                                     ... done
Starting the XC term evaluation                    ... done (   0.0 sec)
  promolecular density results
     # of electrons  =     23.997669715
     EX              =    -19.522333289
     EC              =     -0.771902326
     EX+EC           =    -20.294235614
Transforming the Hamiltonian                       ... done (   0.0 sec)
Diagonalizing the Hamiltonian                      ... done (   0.0 sec)
Back transforming the eigenvectors                 ... done (   0.0 sec)
Now organizing SCF variables                       ... done
                      ------------------
                      INITIAL GUESS DONE (   0.1 sec)
                      ------------------
             **** ENERGY FILE WAS UPDATED (orca.en.tmp) ****
Finished Guess after   0.5 sec
Maximum memory used throughout the entire GUESS-calculation: 9.7 MB
[1741000421.271663] [ohm:3244643:0]        ib_iface.c:1059 UCX  ERROR ibv_create_cq(cqe=256) failed: Connection timed out
[1741000421.272284] [ohm:3244641:0]        ib_iface.c:1059 UCX  ERROR ibv_create_cq(cqe=256) failed: Connection timed out
[1741000421.290513] [ohm:3244645:0]        ib_iface.c:1059 UCX  ERROR ibv_create_cq(cqe=256) failed: Connection timed out
[1741000421.292278] [ohm:3244639:0]        ib_iface.c:1059 UCX  ERROR ibv_create_cq(cqe=256) failed: Connection timed out
[1741000421.305203] [ohm:3244651:0]        ib_iface.c:1059 UCX  ERROR ibv_create_cq(cqe=256) failed: Connection timed out
[1741000421.305950] [ohm:3244659:0]        ib_iface.c:1059 UCX  ERROR ibv_create_cq(cqe=256) failed: Connection timed out
[1741000421.307825] [ohm:3244644:0]        ib_iface.c:1059 UCX  ERROR ibv_create_cq(cqe=256) failed: Connection timed out
[1741000421.307814] [ohm:3244640:0]        ib_iface.c:1059 UCX  ERROR ibv_create_cq(cqe=256) failed: Connection timed out
[1741000421.307879] [ohm:3244638:0]        ib_iface.c:1059 UCX  ERROR ibv_create_cq(cqe=256) failed: Connection timed out
[1741000421.307878] [ohm:3244642:0]        ib_iface.c:1059 UCX  ERROR ibv_create_cq(cqe=256) failed: Connection timed out
[1741000421.308760] [ohm:3244647:0]        ib_iface.c:1059 UCX  ERROR ibv_create_cq(cqe=256) failed: Connection timed out
[1741000421.310844] [ohm:3244646:0]        ib_iface.c:1059 UCX  ERROR ibv_create_cq(cqe=256) failed: Connection timed out
[1741000421.310858] [ohm:3244649:0]        ib_iface.c:1059 UCX  ERROR ibv_create_cq(cqe=256) failed: Connection timed out
[1741000421.312969] [ohm:3244667:0]        ib_iface.c:1059 UCX  ERROR ibv_create_cq(cqe=256) failed: Connection timed out
[1741000421.314938] [ohm:3244653:0]        ib_iface.c:1059 UCX  ERROR ibv_create_cq(cqe=256) failed: Connection timed out
[1741000421.314934] [ohm:3244663:0]        ib_iface.c:1059 UCX  ERROR ibv_create_cq(cqe=256) failed: Connection timed out


           ************************************************************
           *        Program running with 16 parallel MPI-processes    *
           *              working on a common directory               *
           ************************************************************

-------------------------------------------------------------------------------------------
                                      ORCA LEAN-SCF
                              memory conserving SCF solver
-------------------------------------------------------------------------------------------

----------------------------------------D-I-I-S--------------------------------------------
Iteration    Energy (Eh)           Delta-E    RMSDP     MaxDP     DIISErr   Damp  Time(sec)
-------------------------------------------------------------------------------------------
               ***  Starting incremental Fock matrix formation  ***
    1    -153.6981378827100571     0.00e+00  9.34e-04  2.67e-02  8.06e-02  0.700   0.4
    2    -153.7302414968663697    -3.21e-02  8.46e-04  2.48e-02  4.88e-02  0.700   0.3
                               ***Turning on AO-DIIS***
    3    -153.7474735739243101    -1.72e-02  6.64e-04  2.20e-02  2.55e-02  0.700   0.3
    4    -153.7579257985012191    -1.05e-02  1.59e-03  5.13e-02  1.79e-02  0.000   0.3
    5    -153.7814328444604826    -2.35e-02  1.22e-04  4.48e-03  4.84e-03  0.000   0.3
                              *** Initializing SOSCF ***
---------------------------------------S-O-S-C-F--------------------------------------
Iteration    Energy (Eh)           Delta-E    RMSDP     MaxDP     MaxGrad    Time(sec)
--------------------------------------------------------------------------------------
    6    -153.7818325650289921    -4.00e-04  8.16e-05  2.16e-03  3.04e-03     0.3
               *** Restarting incremental Fock matrix formation ***
    7    -153.7820600415855665    -2.27e-04  6.58e-05  1.66e-03  3.90e-03     0.4
    8    -153.7821586053158285    -9.86e-05  9.45e-05  2.25e-03  1.53e-03     0.3
    9    -153.7822339052051461    -7.53e-05  2.41e-05  6.51e-04  2.41e-04     0.3
   10    -153.7822355054069590    -1.60e-06  1.62e-05  4.93e-04  1.05e-04     0.4
   11    -153.7822359059227324    -4.01e-07  3.71e-06  1.03e-04  4.14e-05     0.3
   12    -153.7822359580466127    -5.21e-08  1.47e-06  7.48e-05  1.44e-05     0.3
   13    -153.7822359675155326    -9.47e-09  5.85e-07  1.21e-05  4.86e-06     0.3
                 **** Energy Check signals convergence ****

               *****************************************************
               *                     SUCCESS                       *
               *           SCF CONVERGED AFTER  13 CYCLES          *
               *****************************************************

Recomputing exchange energy using gridx3       ... done (    0.416 sec)
Old exchange energy                            :     -6.203299932 Eh
New exchange energy                            :     -6.203311461 Eh
Exchange energy change after final integration :     -0.000011530 Eh
Total energy after final integration           :   -153.782247497 Eh
             **** ENERGY FILE WAS UPDATED (orca.en.tmp) ****

----------------
TOTAL SCF ENERGY
----------------

Total Energy       :       -153.78224749727556 Eh           -4184.62770 eV

Components:
Nuclear Repulsion  :         69.76477736109437 Eh            1898.39610 eV
Electronic Energy  :       -223.54701332860989 Eh           -6083.02349 eV
One Electron Energy:       -345.83686586038061 Eh           -9410.69955 eV
Two Electron Energy:        122.28985253177072 Eh            3327.67606 eV

Virial components:
Potential Energy   :       -307.38206775074252 Eh           -8364.29130 eV
Kinetic Energy     :        153.59982025346693 Eh            4179.66360 eV
Virial Ratio       :          2.00118767875840

DFT components:
N(Alpha)           :       12.999992766746 electrons
N(Beta)            :       10.999992624424 electrons
N(Total)           :       23.999985391170 electrons
E(XC)              :      -14.756260536484 Eh       

---------------
SCF CONVERGENCE
---------------

  Last Energy change         ...    9.4689e-09  Tolerance :   1.0000e-08
  Last MAX-Density change    ...    1.2142e-05  Tolerance :   1.0000e-07
  Last RMS-Density change    ...    5.8491e-07  Tolerance :   5.0000e-09
  Last DIIS Error            ...    3.0403e-03  Tolerance :   5.0000e-07
  Last Orbital Gradient      ...    4.8584e-06  Tolerance :   1.0000e-05
  Last Orbital Rotation      ...    1.8690e-05  Tolerance :   1.0000e-05


----------------------
UHF SPIN CONTAMINATION
----------------------

Warning: in a DFT calculation there is little theoretical justification to 
         calculate <S**2> as in Hartree-Fock theory. We will do it anyways
         but you should keep in mind that the values have only limited relevance

Expectation value of <S**2>     :     2.005845
Ideal value S*(S+1) for S=1.0   :     2.000000
Deviation                       :     0.005845

----------------
ORBITAL ENERGIES
----------------
                 SPIN UP ORBITALS
  NO   OCC          E(Eh)            E(eV) 
   0   1.0000     -19.408573      -528.1341 
   1   1.0000     -10.379497      -282.4405 
   2   1.0000     -10.367844      -282.1234 
   3   1.0000      -1.245239       -33.8847 
   4   1.0000      -0.884499       -24.0684 
   5   1.0000      -0.717195       -19.5159 
   6   1.0000      -0.633330       -17.2338 
   7   1.0000      -0.588131       -16.0039 
   8   1.0000      -0.581585       -15.8257 
   9   1.0000      -0.515773       -14.0349 
  10   1.0000      -0.514716       -14.0061 
  11   1.0000      -0.431161       -11.7325 
  12   1.0000      -0.219262        -5.9664 
  13   0.0000       0.040058         1.0900 
  14   0.0000       0.060122         1.6360 
  15   0.0000       0.078176         2.1273 
  16   0.0000       0.087771         2.3884 
  17   0.0000       0.107365         2.9215 
  18   0.0000       0.128715         3.5025 
  19   0.0000       0.129267         3.5175 
  20   0.0000       0.133963         3.6453 
  21   0.0000       0.171624         4.6701 
  22   0.0000       0.183730         4.9995 
  23   0.0000       0.201241         5.4761 

                 SPIN DOWN ORBITALS
  NO   OCC          E(Eh)            E(eV) 
   0   1.0000     -19.381109      -527.3868 
   1   1.0000     -10.369244      -282.1615 
   2   1.0000     -10.365750      -282.0664 
   3   1.0000      -1.188024       -32.3278 
   4   1.0000      -0.865382       -23.5482 
   5   1.0000      -0.672071       -18.2880 
   6   1.0000      -0.585842       -15.9416 
   7   1.0000      -0.541145       -14.7253 
   8   1.0000      -0.535644       -14.5756 
   9   1.0000      -0.498859       -13.5746 
  10   1.0000      -0.471486       -12.8298 
  11   0.0000      -0.083261        -2.2656 
  12   0.0000       0.040659         1.1064 
  13   0.0000       0.059787         1.6269 
  14   0.0000       0.077944         2.1210 
  15   0.0000       0.084473         2.2986 
  16   0.0000       0.093378         2.5409 
  17   0.0000       0.108039         2.9399 
  18   0.0000       0.128640         3.5005 
  19   0.0000       0.129200         3.5157 
  20   0.0000       0.134396         3.6571 
  21   0.0000       0.172060         4.6820 
*Only the first 10 virtual orbitals were printed.

                    ********************************
                    * MULLIKEN POPULATION ANALYSIS *
                    ********************************

--------------------------------------------
MULLIKEN ATOMIC CHARGES AND SPIN POPULATIONS
--------------------------------------------
   0 O :   -0.314481    0.957269
   1 C :   -0.005421    0.772791
   2 C :   -0.589266    0.115350
   3 H :    0.207358    0.030365
   4 H :    0.238568    0.088629
   5 H :    0.207114    0.030208
   6 H :    0.256129    0.005387
Sum of atomic charges         :   -0.0000000
Sum of atomic spin populations:    2.0000000

-----------------------------------------------------
MULLIKEN REDUCED ORBITAL CHARGES AND SPIN POPULATIONS
-----------------------------------------------------
CHARGE
  0 O s       :     4.018377  s :     4.018377
      pz      :     1.457731  p :     4.241120
      px      :     1.380922
      py      :     1.402468
      dz2     :     0.005965  d :     0.053009
      dxz     :     0.002752
      dyz     :     0.017318
      dx2y2   :     0.010957
      dxy     :     0.016016
      f0      :     0.000179  f :     0.001976
      f+1     :     0.000031
      f-1     :     0.000405
      f+2     :     0.000357
      f-2     :     0.000145
      f+3     :     0.000508
      f-3     :     0.000350

  1 C s       :     3.288187  s :     3.288187
      pz      :     1.005718  p :     2.609041
      px      :     0.946760
      py      :     0.656563
      dz2     :     0.015395  d :     0.092610
      dxz     :     0.002743
      dyz     :     0.036258
      dx2y2   :    -0.000682
      dxy     :     0.038896
      f0      :     0.001403  f :     0.015583
      f+1     :     0.000627
      f-1     :     0.002890
      f+2     :     0.002431
      f-2     :     0.001630
      f+3     :     0.003864
      f-3     :     0.002738

  2 C s       :     3.327149  s :     3.327149
      pz      :     1.149805  p :     3.178984
      px      :     0.998802
      py      :     1.030377
      dz2     :    -0.006902  d :     0.080373
      dxz     :     0.021160
      dyz     :     0.034632
      dx2y2   :     0.012647
      dxy     :     0.018836
      f0      :     0.000135  f :     0.002761
      f+1     :     0.000443
      f-1     :     0.000261
      f+2     :     0.000131
      f-2     :     0.000808
      f+3     :     0.000474
      f-3     :     0.000509

  3 H s       :     0.737520  s :     0.737520
      pz      :     0.016247  p :     0.052939
      px      :     0.007835
      py      :     0.028857
      dz2     :     0.000284  d :     0.002183
      dxz     :     0.000295
      dyz     :     0.000449
      dx2y2   :     0.000595
      dxy     :     0.000560

  4 H s       :     0.713637  s :     0.713637
      pz      :     0.018736  p :     0.044882
      px      :     0.015000
      py      :     0.011145
      dz2     :     0.000813  d :     0.002914
      dxz     :     0.000521
      dyz     :     0.000620
      dx2y2   :     0.000535
      dxy     :     0.000425

  5 H s       :     0.737821  s :     0.737821
      pz      :     0.013517  p :     0.052882
      px      :     0.016966
      py      :     0.022398
      dz2     :     0.000662  d :     0.002183
      dxz     :     0.000480
      dyz     :     0.000486
      dx2y2   :     0.000233
      dxy     :     0.000322

  6 H s       :     0.705842  s :     0.705842
      pz      :     0.017535  p :     0.035862
      px      :     0.016193
      py      :     0.002135
      dz2     :     0.000554  d :     0.002167
      dxz     :     0.000457
      dyz     :     0.000419
      dx2y2   :     0.000369
      dxy     :     0.000368


SPIN
  0 O s       :    -0.001164  s :    -0.001164
      pz      :     0.407636  p :     0.948215
      px      :     0.511780
      py      :     0.028798
      dz2     :     0.001363  d :     0.010369
      dxz     :     0.000800
      dyz     :     0.003988
      dx2y2   :     0.002787
      dxy     :     0.001431
      f0      :    -0.000003  f :    -0.000152
      f+1     :     0.000003
      f-1     :    -0.000002
      f+2     :    -0.000045
      f-2     :    -0.000001
      f+3     :    -0.000029
      f-3     :    -0.000076

  1 C s       :    -0.007554  s :    -0.007554
      pz      :     0.371698  p :     0.701750
      px      :     0.286006
      py      :     0.044046
      dz2     :     0.016292  d :     0.077731
      dxz     :     0.002136
      dyz     :     0.023325
      dx2y2   :     0.000975
      dxy     :     0.035003
      f0      :    -0.000034  f :     0.000865
      f+1     :     0.000011
      f-1     :     0.000117
      f+2     :     0.000362
      f-2     :    -0.000156
      f+3     :     0.000689
      f-3     :    -0.000122

  2 C s       :     0.066293  s :     0.066293
      pz      :    -0.008526  p :     0.035218
      px      :     0.017988
      py      :     0.025756
      dz2     :    -0.014755  d :     0.012855
      dxz     :    -0.000177
      dyz     :     0.015563
      dx2y2   :     0.004986
      dxy     :     0.007238
      f0      :     0.000038  f :     0.000983
      f+1     :     0.000271
      f-1     :     0.000145
      f+2     :     0.000065
      f-2     :     0.000122
      f+3     :     0.000121
      f-3     :     0.000221

  3 H s       :     0.023089  s :     0.023089
      pz      :     0.001192  p :     0.007102
      px      :     0.003075
      py      :     0.002834
      dz2     :     0.000004  d :     0.000174
      dxz     :     0.000007
      dyz     :     0.000030
      dx2y2   :     0.000074
      dxy     :     0.000061

  4 H s       :     0.056674  s :     0.056674
      pz      :     0.016518  p :     0.031048
      px      :     0.012173
      py      :     0.002357
      dz2     :     0.000623  d :     0.000907
      dxz     :    -0.000014
      dyz     :     0.000012
      dx2y2   :     0.000136
      dxy     :     0.000150

  5 H s       :     0.022975  s :     0.022975
      pz      :    -0.000064  p :     0.007060
      px      :     0.005411
      py      :     0.001712
      dz2     :     0.000089  d :     0.000174
      dxz     :     0.000013
      dyz     :     0.000024
      dx2y2   :     0.000012
      dxy     :     0.000036

  6 H s       :     0.005779  s :     0.005779
      pz      :    -0.000698  p :    -0.000515
      px      :    -0.000679
      py      :     0.000862
      dz2     :     0.000014  d :     0.000124
      dxz     :     0.000030
      dyz     :     0.000024
      dx2y2   :     0.000043
      dxy     :     0.000012



                     *******************************
                     * LOEWDIN POPULATION ANALYSIS *
                     *******************************

-------------------------------------------
LOEWDIN ATOMIC CHARGES AND SPIN POPULATIONS
-------------------------------------------
   0 O :    0.163005    0.956856
   1 C :   -0.287549    0.660072
   2 C :    0.144130    0.173906
   3 H :   -0.019465    0.030301
   4 H :    0.029689    0.146379
   5 H :   -0.019371    0.030185
   6 H :   -0.010439    0.002302

----------------------------------------------------
LOEWDIN REDUCED ORBITAL CHARGES AND SPIN POPULATIONS
----------------------------------------------------
CHARGE
  0 O s       :     3.377837  s :     3.377837
      pz      :     1.345996  p :     4.153440
      px      :     1.259405
      py      :     1.548039
      dz2     :     0.036082  d :     0.297531
      dxz     :     0.011785
      dyz     :     0.093089
      dx2y2   :     0.066905
      dxy     :     0.089670
      f0      :     0.000692  f :     0.008188
      f+1     :     0.000096
      f-1     :     0.001709
      f+2     :     0.001458
      f-2     :     0.000650
      f+3     :     0.002044
      f-3     :     0.001538

  1 C s       :     2.680131  s :     2.680131
      pz      :     0.873796  p :     2.641387
      px      :     0.877468
      py      :     0.890123
      dz2     :     0.106042  d :     0.860465
      dxz     :     0.095250
      dyz     :     0.206803
      dx2y2   :     0.235478
      dxy     :     0.216892
      f0      :     0.008610  f :     0.105567
      f+1     :     0.003755
      f-1     :     0.020095
      f+2     :     0.017444
      f-2     :     0.010892
      f+3     :     0.025756
      f-3     :     0.019015

  2 C s       :     2.643097  s :     2.643097
      pz      :     0.922504  p :     2.692321
      px      :     0.890468
      py      :     0.879349
      dz2     :     0.048735  d :     0.487252
      dxz     :     0.125425
      dyz     :     0.102235
      dx2y2   :     0.096607
      dxy     :     0.114250
      f0      :     0.003590  f :     0.033199
      f+1     :     0.005330
      f-1     :     0.004474
      f+2     :     0.002839
      f-2     :     0.005596
      f+3     :     0.006190
      f-3     :     0.005181

  3 H s       :     0.702348  s :     0.702348
      pz      :     0.086768  p :     0.286884
      px      :     0.087155
      py      :     0.112962
      dz2     :     0.004313  d :     0.030232
      dxz     :     0.003846
      dyz     :     0.006926
      dx2y2   :     0.007568
      dxy     :     0.007580

  4 H s       :     0.662115  s :     0.662115
      pz      :     0.111447  p :     0.278112
      px      :     0.101168
      py      :     0.065497
      dz2     :     0.008724  d :     0.030084
      dxz     :     0.006874
      dyz     :     0.005249
      dx2y2   :     0.004498
      dxy     :     0.004739

  5 H s       :     0.702343  s :     0.702343
      pz      :     0.109868  p :     0.286807
      px      :     0.093915
      py      :     0.083024
      dz2     :     0.008159  d :     0.030221
      dxz     :     0.007972
      dyz     :     0.006861
      dx2y2   :     0.003368
      dxy     :     0.003861

  6 H s       :     0.700803  s :     0.700803
      pz      :     0.102944  p :     0.279420
      px      :     0.093972
      py      :     0.082504
      dz2     :     0.007893  d :     0.030216
      dxz     :     0.007451
      dyz     :     0.005307
      dx2y2   :     0.004494
      dxy     :     0.005072


SPIN
  0 O s       :     0.009165  s :     0.009165
      pz      :     0.362596  p :     0.830729
      px      :     0.445858
      py      :     0.022275
      dz2     :     0.014767  d :     0.113826
      dxz     :     0.006936
      dyz     :     0.040434
      dx2y2   :     0.011762
      dxy     :     0.039927
      f0      :     0.000216  f :     0.003136
      f+1     :     0.000029
      f-1     :     0.000851
      f+2     :     0.000421
      f-2     :     0.000423
      f+3     :     0.000836
      f-3     :     0.000360

  1 C s       :     0.005585  s :     0.005585
      pz      :     0.226062  p :     0.434312
      px      :     0.176977
      py      :     0.031273
      dz2     :     0.032316  d :     0.190894
      dxz     :     0.007841
      dyz     :     0.055921
      dx2y2   :     0.001371
      dxy     :     0.093444
      f0      :     0.001146  f :     0.029282
      f+1     :     0.001269
      f-1     :     0.005144
      f+2     :     0.006937
      f-2     :     0.003023
      f+3     :     0.009174
      f-3     :     0.002589

  2 C s       :     0.008697  s :     0.008697
      pz      :     0.004724  p :     0.060513
      px      :     0.024128
      py      :     0.031661
      dz2     :     0.007838  d :     0.097840
      dxz     :     0.008980
      dyz     :     0.037320
      dx2y2   :     0.033603
      dxy     :     0.010099
      f0      :     0.000183  f :     0.006856
      f+1     :     0.001983
      f-1     :     0.001152
      f+2     :     0.000477
      f-2     :     0.000838
      f+3     :     0.000960
      f-3     :     0.001262

  3 H s       :     0.019080  s :     0.019080
      pz      :     0.001354  p :     0.010246
      px      :     0.002105
      py      :     0.006787
      dz2     :    -0.000002  d :     0.000975
      dxz     :     0.000031
      dyz     :     0.000128
      dx2y2   :     0.000599
      dxy     :     0.000219

  4 H s       :     0.070623  s :     0.070623
      pz      :     0.035883  p :     0.068083
      px      :     0.026837
      py      :     0.005362
      dz2     :     0.005652  d :     0.007673
      dxz     :     0.000051
      dyz     :    -0.000084
      dx2y2   :     0.000834
      dxy     :     0.001220

  5 H s       :     0.019004  s :     0.019004
      pz      :     0.000108  p :     0.010207
      px      :     0.005403
      py      :     0.004697
      dz2     :     0.000502  d :     0.000974
      dxz     :     0.000019
      dyz     :     0.000173
      dx2y2   :     0.000010
      dxy     :     0.000271

  6 H s       :    -0.000146  s :    -0.000146
      pz      :     0.000242  p :     0.001408
      px      :     0.000933
      py      :     0.000233
      dz2     :     0.000040  d :     0.001040
      dxz     :     0.000252
      dyz     :     0.000252
      dx2y2   :     0.000399
      dxy     :     0.000097



                      *****************************
                      * MAYER POPULATION ANALYSIS *
                      *****************************

  NA   - Mulliken gross atomic population
  ZA   - Total nuclear charge
  QA   - Mulliken gross atomic charge
  VA   - Mayer's total valence
  BVA  - Mayer's bonded valence
  FA   - Mayer's free valence

  ATOM       NA         ZA         QA         VA         BVA        FA
  0 O      8.3145     8.0000    -0.3145     2.0456     1.4289     0.6167
  1 C      6.0054     6.0000    -0.0054     3.3282     2.7840     0.5442
  2 C      6.5893     6.0000    -0.5893     3.6234     3.6091     0.0144
  3 H      0.7926     1.0000     0.2074     1.0328     1.0318     0.0010
  4 H      0.7614     1.0000     0.2386     0.9517     0.9448     0.0069
  5 H      0.7929     1.0000     0.2071     1.0328     1.0319     0.0010
  6 H      0.7439     1.0000     0.2561     0.9807     0.9806     0.0001

  Mayer bond orders larger than 0.100000
B(  0-O ,  1-C ) :   1.2899 B(  1-C ,  2-C ) :   0.6268 B(  1-C ,  4-H ) :   0.9287 
B(  2-C ,  3-H ) :   1.0127 B(  2-C ,  5-H ) :   1.0128 B(  2-C ,  6-H ) :   0.9270 


-------
TIMINGS
-------

Total SCF time: 0 days 0 hours 0 min 5 sec 

Total time                  ....       5.024 sec
Sum of individual times     ....       5.016 sec  ( 99.8%)

SCF preparation             ....       0.391 sec  (  7.8%)
Fock matrix formation       ....       4.099 sec  ( 81.6%)
  Startup                   ....       0.029 sec  (  0.7% of F)
  Split-RI-J                ....       0.176 sec  (  4.3% of F)
  Chain of spheres X        ....       2.668 sec  ( 65.1% of F)
  XC integration            ....       1.133 sec  ( 27.6% of F)
    XC Preparation          ....       0.000 sec  (  0.0% of XC)
    Basis function eval.    ....       0.079 sec  (  7.0% of XC)
    Density eval.           ....       0.333 sec  ( 29.4% of XC)
    XC-Functional eval.     ....       0.034 sec  (  3.0% of XC)
    XC-Potential eval.      ....       0.556 sec  ( 49.0% of XC)
Diagonalization             ....       0.000 sec  (  0.0%)
Density matrix formation    ....       0.067 sec  (  1.3%)
Total Energy calculation    ....       0.042 sec  (  0.8%)
Population analysis         ....       0.020 sec  (  0.4%)
Orbital Transformation      ....       0.048 sec  (  0.9%)
Orbital Orthonormalization  ....       0.000 sec  (  0.0%)
DIIS solution               ....       0.229 sec  (  4.6%)
SOSCF solution              ....       0.118 sec  (  2.3%)
Finished LeanSCF after   5.0 sec

Maximum memory used throughout the entire LEANSCF-calculation: 14.7 MB
[1741000426.610548] [ohm:3244740:0]        ib_iface.c:1059 UCX  ERROR ibv_create_cq(cqe=256) failed: Connection timed out
[1741000426.610548] [ohm:3244742:0]        ib_iface.c:1059 UCX  ERROR ibv_create_cq(cqe=256) failed: Connection timed out
[1741000426.610808] [ohm:3244744:0]        ib_iface.c:1059 UCX  ERROR ibv_create_cq(cqe=256) failed: Connection timed out
[1741000426.614521] [ohm:3244746:0]        ib_iface.c:1059 UCX  ERROR ibv_create_cq(cqe=256) failed: Connection timed out
[1741000426.622242] [ohm:3244739:0]        ib_iface.c:1059 UCX  ERROR ibv_create_cq(cqe=256) failed: Connection timed out
[1741000426.622803] [ohm:3244743:0]        ib_iface.c:1059 UCX  ERROR ibv_create_cq(cqe=256) failed: Connection timed out
[1741000426.622999] [ohm:3244741:0]        ib_iface.c:1059 UCX  ERROR ibv_create_cq(cqe=256) failed: Connection timed out
[1741000426.625054] [ohm:3244749:0]        ib_iface.c:1059 UCX  ERROR ibv_create_cq(cqe=256) failed: Connection timed out
[1741000426.632542] [ohm:3244747:0]        ib_iface.c:1059 UCX  ERROR ibv_create_cq(cqe=256) failed: Connection timed out
[1741000426.632549] [ohm:3244751:0]        ib_iface.c:1059 UCX  ERROR ibv_create_cq(cqe=256) failed: Connection timed out
[1741000426.633185] [ohm:3244745:0]        ib_iface.c:1059 UCX  ERROR ibv_create_cq(cqe=256) failed: Connection timed out
[1741000426.638949] [ohm:3244753:0]        ib_iface.c:1059 UCX  ERROR ibv_create_cq(cqe=256) failed: Connection timed out
[1741000426.638955] [ohm:3244767:0]        ib_iface.c:1059 UCX  ERROR ibv_create_cq(cqe=256) failed: Connection timed out
[1741000426.640625] [ohm:3244765:0]        ib_iface.c:1059 UCX  ERROR ibv_create_cq(cqe=256) failed: Connection timed out
[1741000426.641143] [ohm:3244757:0]        ib_iface.c:1059 UCX  ERROR ibv_create_cq(cqe=256) failed: Connection timed out
[1741000426.641434] [ohm:3244762:0]        ib_iface.c:1059 UCX  ERROR ibv_create_cq(cqe=256) failed: Connection timed out


           ************************************************************
           *        Program running with 16 parallel MPI-processes    *
           *              working on a common directory               *
           ************************************************************

------------------------------------------------------------------------------
                         ORCA PROPERTY INTEGRAL CALCULATIONS
------------------------------------------------------------------------------

GBWName                                   ... orca.gbw
Number of atoms                           ...      7
Number of basis functions                 ...    182
Max core memory                           ...   1024 MB

Dipole integrals                          ... YES
Quadrupole integrals                      ...  NO
Linear momentum integrals                 ... YES
Angular momentum integrals                ... YES
Higher moments length integrals           ...  NO
Higher moments velocity integrals         ...  NO
Kinetic energy integrals                  ...  NO
GIAO right hand sides                     ...  NO
GIAO dipole derivative integrals          ...  NO
SOC integrals                             ...  NO
EPR diamagnetic integrals (GIAO)          ...  NO
EPR gauge integrals                       ...  NO
Field gradient integrals                  ...  NO (   0 nuclei)
Spin-dipole/Fermi contact integrals       ...  NO (   0 nuclei)
Contact density integrals                 ...  NO (   0 nuclei)
Nucleus-orbit integrals                   ...  NO (   0 nuclei)
Geometric perturbations                   ...  NO (   7 nuclei)

Choice of electric origin   ... Center of mass
Position of electric origin ... (  0.5078,  0.4521,  0.0363) 
Choice of magnetic origin   ... GIAO
Position of magnetic origin ... (  0.0000,  0.0000,  0.0000) 

Calculating integrals                     ... Electric Dipole (Length)     done (  0.0 sec)
Calculating integrals                     ... Linear Momentum              done (  0.0 sec)
Calculating integrals                     ... Angular Momentum  (ElOri)    done (  0.0 sec)

Property integrals calculated in   0.0 sec

Maximum memory used throughout the entire PROPINT-calculation: 10.3 MB
[1741000427.280072] [ohm:3244828:0]        ib_iface.c:1059 UCX  ERROR ibv_create_cq(cqe=256) failed: Connection timed out
[1741000427.281566] [ohm:3244826:0]        ib_iface.c:1059 UCX  ERROR ibv_create_cq(cqe=256) failed: Connection timed out
[1741000427.283159] [ohm:3244824:0]        ib_iface.c:1059 UCX  ERROR ibv_create_cq(cqe=256) failed: Connection timed out
[1741000427.285774] [ohm:3244823:0]        ib_iface.c:1059 UCX  ERROR ibv_create_cq(cqe=256) failed: Connection timed out
[1741000427.310872] [ohm:3244827:0]        ib_iface.c:1059 UCX  ERROR ibv_create_cq(cqe=256) failed: Connection timed out
[1741000427.318299] [ohm:3244830:0]        ib_iface.c:1059 UCX  ERROR ibv_create_cq(cqe=256) failed: Connection timed out
[1741000427.320466] [ohm:3244825:0]        ib_iface.c:1059 UCX  ERROR ibv_create_cq(cqe=256) failed: Connection timed out
[1741000427.330400] [ohm:3244836:0]        ib_iface.c:1059 UCX  ERROR ibv_create_cq(cqe=256) failed: Connection timed out
[1741000427.330392] [ohm:3244842:0]        ib_iface.c:1059 UCX  ERROR ibv_create_cq(cqe=256) failed: Connection timed out
[1741000427.331951] [ohm:3244852:0]        ib_iface.c:1059 UCX  ERROR ibv_create_cq(cqe=256) failed: Connection timed out
[1741000427.332234] [ohm:3244833:0]        ib_iface.c:1059 UCX  ERROR ibv_create_cq(cqe=256) failed: Connection timed out
[1741000427.332337] [ohm:3244834:0]        ib_iface.c:1059 UCX  ERROR ibv_create_cq(cqe=256) failed: Connection timed out
[1741000427.332368] [ohm:3244831:0]        ib_iface.c:1059 UCX  ERROR ibv_create_cq(cqe=256) failed: Connection timed out
[1741000427.332381] [ohm:3244840:0]        ib_iface.c:1059 UCX  ERROR ibv_create_cq(cqe=256) failed: Connection timed out
[1741000427.332394] [ohm:3244829:0]        ib_iface.c:1059 UCX  ERROR ibv_create_cq(cqe=256) failed: Connection timed out
[1741000427.333075] [ohm:3244847:0]        ib_iface.c:1059 UCX  ERROR ibv_create_cq(cqe=256) failed: Connection timed out


           ************************************************************
           *        Program running with 16 parallel MPI-processes    *
           *              working on a common directory               *
           ************************************************************
------------------------------------------------------------------------------
                        ORCA TD-DFT/TDA CALCULATION
------------------------------------------------------------------------------

Input orbitals are from        ... orca.gbw
CI-vector output               ... orca.cis
Solver                         ... FN-2001
Tamm-Dancoff approximation     ... operative
CIS-Integral strategy          ... AO-integrals
Integral handling              ... AO integral Direct
Max. core memory used          ... 512 MB
Reference state                ... UHF
Follow IRoot                   ... off
Number of operators            ... 2
Orbital ranges used for CIS calculation:
 Operator 0:  Orbitals   3... 12  to  11...181

-------------------
XC-INTEGRATION GRID
-------------------

General Integration Accuracy     IntAcc      ... 3.467
Radial Grid Type                 RadialGrid  ... OptM3 with GC (2021)
Angular Grid (max. ang.)         AngularGrid ... 1 (Lebedev-50)
Angular grid pruning method      GridPruning ... 4 (adaptive)
Weight generation scheme         WeightScheme... mBecke (2022)
Basis function cutoff            BFCut       ... 1.0000e-11
Integration weight cutoff        WCut        ... 1.0000e-14
Partially contracted basis set               ... off
Rotationally invariant grid construction     ... off
Angular grids for H and He will be reduced by one unit
Diffuse basis detected: some atoms will have their outermost
                        angular grid increased by 1.

Total number of grid points                  ...     4746
Total number of batches                      ...       76
Average number of points per batch           ...       62
Average number of grid points per atom       ...      678

---------------------
COSX-INTEGRATION GRID
---------------------

General Integration Accuracy     IntAcc      ... 3.067
Radial Grid Type                 RadialGrid  ... OptM3 with GC (2021)
Angular Grid (max. ang.)         AngularGrid ... 1 (Lebedev-50)
Angular grid pruning method      GridPruning ... 4 (adaptive)
Weight generation scheme         WeightScheme... mBecke (2022)
Basis function cutoff            BFCut       ... 1.0000e-11
Integration weight cutoff        WCut        ... 1.0000e-14
Partially contracted basis set               ... on
Rotationally invariant grid construction     ... off
Angular grids for H and He will be reduced by one unit
Diffuse basis detected: some atoms will have their outermost
                        angular grid increased by 1.

Total number of grid points                  ...     2160
Total number of batches                      ...       22
Average number of points per batch           ...       98
Average number of grid points per atom       ...      309

---------------
TD-DFT XC SETUP
---------------

DFT calculation                         ... on
Name of the grid file                   ... orca.grid_cis.tmp
RI-approximation                        ... on
Aux-basis dimension                     ... 0
Functional (TD-DFT)
  Functional kind                       .... Exchange-Correlation
  Functional name                       .... wB97M-V exchange-correlation functional
  Functional family                     .... Hybrid MGGA
  Functional refs                              
    [ 0] N. Mardirossian and M. Head-Gordon.,  J. Chem. Phys. 144, 214110 (2016), doi: 10.1063/1.4952647
  Fraction of HF Exchange (short range) .... 0.1500
  Fraction of HF Exchange (long range)  .... 1.0000
  Range separation parameter mu         .... 0.3000
  Functional external parameters        .... 17
    Parameter  0 _cx00      =  8.500000e-01 : u^00 coefficient for exchange
    Parameter  1 _cx01      =  1.007000e+00 : u^01 coefficient for exchange
    Parameter  2 _cx10      =  2.590000e-01 : u^10 coefficient for exchange
    Parameter  3 _css00     =  4.430000e-01 : u^00 coefficient for same-spin correlation
    Parameter  4 _css04     = -1.437000e+00 : u^04 coefficient for same-spin correlation
    Parameter  5 _css10     = -4.535000e+00 : u^10 coefficient for same-spin correlation
    Parameter  6 _css20     = -3.390000e+00 : u^20 coefficient for same-spin correlation
    Parameter  7 _css43     =  4.278000e+00 : u^43 coefficient for same-spin correlation
    Parameter  8 _cos00     =  1.000000e+00 : u^00 coefficient for opposite-spin correlation
    Parameter  9 _cos10     =  1.358000e+00 : u^10 coefficient for opposite-spin correlation
    Parameter 10 _cos20     =  2.924000e+00 : u^20 coefficient for opposite-spin correlation
    Parameter 11 _cos21     = -8.812000e+00 : u^21 coefficient for opposite-spin correlation
    Parameter 12 _cos60     = -1.390000e+00 : u^60 coefficient for opposite-spin correlation
    Parameter 13 _cos61     =  9.142000e+00 : u^61 coefficient for opposite-spin correlation
    Parameter 14 _alpha     =  1.000000e+00 : fraction of HF exchange
    Parameter 15 _beta      = -8.500000e-01 : fraction of short-range exchange
    Parameter 16 _omega     =  3.000000e-01 : range-separation constant
Hybrid DFT                              ... on
   Exchange mixing (TD-DFT)             ...  0.150
   GGA exch. scaling (TD-DFT)           ...  0.000
   GGA corr. scaling (TD-DFT)           ...  1.000
Range-Separated Exchange                ... on
   Range Range separation parameter mu  .... 0.300
   Max. amount of RS exchange (TD-DFT)  ...  0.850

Building densities             ... done
Calculating rho(r) on the grid ... done
Building xc-kernel on the grid ... done
                    *** TD-DFT CALCULATION INITIALIZED ***

------------------------
DAVIDSON-DIAGONALIZATION
------------------------

Dimension of the eigenvalue problem            ...   1710
Number of roots to be determined               ...      2
Maximum size of the expansion space            ...     20
Maximum number of iterations                   ...    100
Convergence tolerance for the residual         ...    2.500e-07
Convergence tolerance for the energies         ...    2.500e-07
Orthogonality tolerance                        ...    1.000e-14
Level Shift                                    ...    0.000e+00
Constructing the preconditioner                ... o.k.
Building the initial guess                     ... o.k.
Number of trial vectors determined             ...     20


                       ****Iteration    0****
   Time for iteration     :  TOTAL=0.2 TRAFO=0.0 RIJ=0.0 COSX=0.2
   Size of expansion space: 6
   Lowest Energy          :    -0.133087802513
   Maximum Energy change  :     0.133087802513 (vector 0)
   Maximum residual norm  :     0.004540412858

                       ****Iteration    1****
   Time for iteration     :  TOTAL=0.1 TRAFO=0.0 COSX=0.1
   Size of expansion space: 8
   Lowest Energy          :    -0.136366678214
   Maximum Energy change  :     0.013059576064 (vector 1)
   Maximum residual norm  :     0.000507080444

                       ****Iteration    2****
   Time for iteration     :  TOTAL=0.1 TRAFO=0.0 COSX=0.1
   Size of expansion space: 10
   Lowest Energy          :    -0.136399891160
   Maximum Energy change  :     0.001232393365 (vector 1)
   Maximum residual norm  :     0.000041602061

                       ****Iteration    3****
   Time for iteration     :  TOTAL=0.1 TRAFO=0.0 COSX=0.1
   Size of expansion space: 12
   Lowest Energy          :    -0.136400445190
   Maximum Energy change  :     0.000130328974 (vector 1)
   Maximum residual norm  :     0.000059171748

                       ****Iteration    4****
   Time for iteration     :  TOTAL=0.1 TRAFO=0.0 COSX=0.1
   Size of expansion space: 14
   Lowest Energy          :    -0.136400457206
   Maximum Energy change  :     0.017243065447 (vector 1)
   Maximum residual norm  :     0.006890260844

                       ****Iteration    5****
   Time for iteration     :  TOTAL=0.1 TRAFO=0.0 COSX=0.1
   Size of expansion space: 16
   Lowest Energy          :    -0.136400457397
   Maximum Energy change  :     0.006412117805 (vector 1)
   Maximum residual norm  :     0.000539472065

                       ****Iteration    6****
   Time for iteration     :  TOTAL=0.1 TRAFO=0.0 COSX=0.1
   Size of expansion space: 18
   Lowest Energy          :    -0.136400457400
   Maximum Energy change  :     0.000525224354 (vector 1)
   Maximum residual norm  :     0.000054501443

                       ****Iteration    7****
   Time for iteration     :  TOTAL=0.1 TRAFO=0.0 COSX=0.1
   Size of expansion space: 20
   Lowest Energy          :    -0.136400457400
   Maximum Energy change  :     0.000043408051 (vector 1)
   Maximum residual norm  :     0.000002315033
   Rebuilding the expansion space

                       ****Iteration    8****
   Time for iteration     :  TOTAL=0.2 TRAFO=0.0 COSX=0.1
   Size of expansion space: 4
   Lowest Energy          :    -0.136399696717
   Maximum Energy change  :     0.000000760683 (vector 0)
   Maximum residual norm  :     0.000000131332

      *** CONVERGENCE OF RESIDUAL NORM REACHED ***

Storing the converged CI vectors               ... orca.cis3

                 *** DAVIDSON DONE ***

Total time for solving the CIS problem:     1.367sec

---------------------
SF-TDA EXCITED STATES
---------------------

the weight of the individual excitations are printed if larger than 1.0e-02

UHF/UKS reference: multiplicity estimated based on rounded <S**2> value, RELEVANCE IS LIMITED!

(SPIN-FLIP GROUND STATE)
STATE  1:  E=  -0.136400 au     -3.712 eV   -29936.3 cm**-1 <S**2> =   0.020318 Mult 1
    12a ->  11b  :     0.978167 (c= -0.98902332)

STATE  2:  E=   0.033101 au      0.901 eV     7264.8 cm**-1 <S**2> =   1.134632 Mult 3
    12a ->  15b  :     0.329071 (c= -0.57364678)
    12a ->  16b  :     0.610277 (c= -0.78120235)
    12a ->  18b  :     0.011458 (c= -0.10704431)
    12a ->  21b  :     0.013007 (c= -0.11404643)
    12a ->  26b  :     0.020833 (c=  0.14433621)


-----------------------------
TD-DFT/TDA-EXCITATION SPECTRA
-----------------------------

Center of mass = (  0.5078,  0.4521,  0.0363)
Generating CIS-Spin-flip transition densities           ... done

UHF/UKS reference: multiplicity estimated based on rounded <S**2> value, use it judiciously!

----------------------------------------------------------------------------------------------------
          SPIN FLIP ABSORPTION SPECTRUM VIA TRANSITION ELECTRIC DIPOLE MOMENTS    
----------------------------------------------------------------------------------------------------
     Transition      Energy     Energy  Wavelength fosc(D2)      D2        DX        DY        DZ   
                      (eV)      (cm-1)    (nm)                 (au**2)    (au)      (au)      (au)  
----------------------------------------------------------------------------------------------------
  1-3A  ->  2-3A    4.612343   37201.1   268.8   0.000157707   0.00140   0.02349  -0.01084   0.02695

----------------------------------------------------------------------------------------------------
          SPIN FLIP ABSORPTION SPECTRUM VIA TRANSITION VELOCITY DIPOLE MOMENTS    
----------------------------------------------------------------------------------------------------
     Transition      Energy     Energy  Wavelength fosc(P2)      P2        PX        PY        PZ   
[...]
      f+1     :     0.001081
      f-1     :     0.000639
      f+2     :     0.003590
      f-2     :    -0.000554
      f+3     :     0.005828
      f-3     :    -0.001392
  2 C s       :     0.011964  s :     0.011964
      pz      :     0.008787  p :     0.089582
      px      :     0.035692
      py      :     0.045103
      dz2     :    -0.009987  d :    -0.110008
      dxz     :    -0.008922
      dyz     :    -0.039783
      dx2y2   :    -0.038796
      dxy     :    -0.012521
      f0      :    -0.000040  f :    -0.007048
      f+1     :    -0.002010
      f-1     :    -0.001301
      f+2     :    -0.000422
      f-2     :    -0.000914
      f+3     :    -0.001176
      f-3     :    -0.001186
  3 H s       :    -0.019111  s :    -0.019111
      pz      :    -0.000794  p :    -0.003381
      px      :     0.000678
      py      :    -0.003265
      dz2     :     0.000062  d :     0.001316
      dxz     :     0.000069
      dyz     :     0.000206
      dx2y2   :     0.000887
      dxy     :     0.000091
  4 H s       :     0.089966  s :     0.089966
      pz      :    -0.039611  p :    -0.077979
      px      :    -0.030923
      py      :    -0.007445
      dz2     :    -0.005459  d :    -0.008376
      dxz     :    -0.000326
      dyz     :    -0.000359
      dx2y2   :    -0.000924
      dxy     :    -0.001308
  5 H s       :    -0.019047  s :    -0.019047
      pz      :     0.000629  p :    -0.003349
      px      :    -0.002868
      py      :    -0.001109
      dz2     :     0.000659  d :     0.001314
      dxz     :     0.000110
      dyz     :     0.000141
      dx2y2   :     0.000045
      dxy     :     0.000358
  6 H s       :     0.000309  s :     0.000309
      pz      :     0.000521  p :     0.004332
      px      :     0.002007
      py      :     0.001804
      dz2     :     0.000066  d :     0.001385
      dxz     :     0.000342
      dyz     :     0.000319
      dx2y2   :     0.000597
      dxy     :     0.000062


                      *****************************
                      * MAYER POPULATION ANALYSIS *
                      *****************************

  NA   - Mulliken gross atomic population
  ZA   - Total nuclear charge
  QA   - Mulliken gross atomic charge
  VA   - Mayer's total valence
  BVA  - Mayer's bonded valence
  FA   - Mayer's free valence

  ATOM       NA         ZA         QA         VA         BVA        FA
  0 O      8.2638     8.0000    -0.2638     2.0295     1.4232     0.6063
  1 C      5.7764     6.0000     0.2236     3.4174     2.8666     0.5508
  2 C      6.7106     6.0000    -0.7106     3.6890     3.6501     0.0389
  3 H      0.7966     1.0000     0.2034     1.0510     1.0425     0.0085
  4 H      0.9042     1.0000     0.0958     1.0855     1.0589     0.0267
  5 H      0.7974     1.0000     0.2026     1.0508     1.0423     0.0084
  6 H      0.7509     1.0000     0.2491     0.9927     0.9916     0.0011

  Mayer bond orders larger than 0.100000
B(  0-O ,  1-C ) :   1.2836 B(  1-C ,  2-C ) :   0.6296 B(  1-C ,  4-H ) :   1.0047 
B(  2-C ,  3-H ) :   1.0116 B(  2-C ,  5-H ) :   1.0116 B(  2-C ,  6-H ) :   0.9302 



-------
TIMINGS
-------

Total TD-DFT gradient time  ....        4.988 sec

Fock matrix formation       ....       1.066 sec  ( 21.4%)
  Coulomb formation         ....       0.831 sec  ( 78.0% of F)
  XC integration            ....       0.235 sec  ( 22.0% of F)
Z-vector equation           ....       1.316 sec  ( 26.4%)
Densities                   ....       0.000 sec  (  0.0%)
One electron gradient       ....       0.009 sec  (  0.2%)
RI-J Coulomb gradient       ....       0.095 sec  (  1.9%)
COSX gradient               ....       0.388 sec  (  7.8%)
XC gradient                 ....       1.901 sec  ( 38.1%)

Maximum memory used throughout the entire CIS-calculation: 35.8 MB
=> NOW LEAVING ORCA_CIS


-------------------------------------------------------------------------------
                          DFT DISPERSION CORRECTION                            
                                                                               
                              DFTD3 V3.1  Rev 1                                
                          USING Becke-Johnson damping                          
-------------------------------------------------------------------------------
The WB97M functional is recognized
Active option DFTDOPT                   ...         4   

molecular C6(AA) [au] = 395.048891 


            DFT-D V3
 parameters
 s6 scaling factor         :     1.0000 
 a1 scaling factor         :     0.5660 
 s8 scaling factor         :     0.3908 
 a2 scaling factor         :     3.1280 
 ad hoc parameters k1-k3   :    16.0000     1.3333    -4.0000 

 Edisp/kcal,au: -3.467604342563  -0.005525978676 
 E6   /kcal   :  -2.796299062 
 E8   /kcal   :  -0.671305281 
 % E8         :  19.359339025 

-------------------------   ----------------
Dispersion correction           -0.005525979
-------------------------   ----------------


-------------------------   --------------------
FINAL SINGLE POINT ENERGY      -153.754672688541
-------------------------   --------------------

[1741000434.469411] [ohm:3244943:0]        ib_iface.c:1059 UCX  ERROR ibv_create_cq(cqe=256) failed: Connection timed out
[1741000434.469408] [ohm:3244945:0]        ib_iface.c:1059 UCX  ERROR ibv_create_cq(cqe=256) failed: Connection timed out
[1741000434.471607] [ohm:3244947:0]        ib_iface.c:1059 UCX  ERROR ibv_create_cq(cqe=256) failed: Connection timed out
[1741000434.472147] [ohm:3244946:0]        ib_iface.c:1059 UCX  ERROR ibv_create_cq(cqe=256) failed: Connection timed out
[1741000434.472223] [ohm:3244944:0]        ib_iface.c:1059 UCX  ERROR ibv_create_cq(cqe=256) failed: Connection timed out
[1741000434.476977] [ohm:3244952:0]        ib_iface.c:1059 UCX  ERROR ibv_create_cq(cqe=256) failed: Connection timed out
[1741000434.478595] [ohm:3244949:0]        ib_iface.c:1059 UCX  ERROR ibv_create_cq(cqe=256) failed: Connection timed out
[1741000434.481288] [ohm:3244955:0]        ib_iface.c:1059 UCX  ERROR ibv_create_cq(cqe=256) failed: Connection timed out
[1741000434.481691] [ohm:3244954:0]        ib_iface.c:1059 UCX  ERROR ibv_create_cq(cqe=256) failed: Connection timed out
[1741000434.482466] [ohm:3244942:0]        ib_iface.c:1059 UCX  ERROR ibv_create_cq(cqe=256) failed: Connection timed out
[1741000434.483439] [ohm:3244950:0]        ib_iface.c:1059 UCX  ERROR ibv_create_cq(cqe=256) failed: Connection timed out
[1741000434.483437] [ohm:3244948:0]        ib_iface.c:1059 UCX  ERROR ibv_create_cq(cqe=256) failed: Connection timed out
[1741000434.501916] [ohm:3244968:0]        ib_iface.c:1059 UCX  ERROR ibv_create_cq(cqe=256) failed: Connection timed out
[1741000434.502241] [ohm:3244957:0]        ib_iface.c:1059 UCX  ERROR ibv_create_cq(cqe=256) failed: Connection timed out
[1741000434.514846] [ohm:3244974:0]        ib_iface.c:1059 UCX  ERROR ibv_create_cq(cqe=256) failed: Connection timed out
[1741000434.515184] [ohm:3244971:0]        ib_iface.c:1059 UCX  ERROR ibv_create_cq(cqe=256) failed: Connection timed out


           ************************************************************
           *        Program running with 16 parallel MPI-processes    *
           *              working on a common directory               *
           ************************************************************

------------------------------------------------------------------------------
                              ORCA PROPERTY CALCULATIONS
------------------------------------------------------------------------------

GBWName                                 ... orca.gbw
Number of atoms                         ...      7
Number of basis functions               ...    182
Max core memory                         ...   1024 MB

Electric properties:
Dipole moment                           ... YES
Quadrupole moment                       ...  NO
Static polarizability (Dipole/Dipole)   ...  NO
Static polarizability (Dipole/Quad.)    ...  NO
Static polarizability (Quad./Quad.)     ...  NO
Static polarizability (Velocity)        ...  NO

Atomic electric properties:
Dipole moment                           ...  NO
Quadrupole moment                       ...  NO
Static polarizability                   ...  NO

Choice of electric origin               ... Center of mass
Position of electric origin             ...     0.507781     0.452087     0.036275

General magnetic properties:
Magnetizability                         ...  NO

EPR properties:
g-Tensor (aka g-matrix)                 ...  NO
Zero-Field splitting spin-orbit         ...  NO
Zero-field splitting spin-spin          ...  NO
Hyperfine couplings                     ...  NO (   0 nuclei)
Quadrupole couplings                    ...  NO (   0 nuclei)
Contact density                         ...  NO (   0 nuclei)

NMR properties:
Chemical shifts                         ...  NO (   0 nuclei)
Spin-rotation constants                 ...  NO (   0 nuclei)
Spin-spin couplings                     ...  NO (   0 nuclei,    0 pairs)

Choice of magnetic origin               ... GIAO
Position of magnetic origin             ...     0.000000     0.000000     0.000000

Properties with geometric perturbations:
SCF Hessian                             ...  NO
IR spectrum                             ...  NO
VCD spectrum                            ...  NO
X-ray spectroscopy properties:
SCF XES/XAS/RIXS spectra                ...  NO


-------------
DIPOLE MOMENT
-------------

Method             : SCF
Type of density    : Electron Density
Multiplicity       :   3
Irrep              :   0
Energy             :  -153.7822474972755629 Eh
Relativity type    : 
Basis              : AO
                                X                 Y                 Z
Electronic contribution:      1.591378497       3.474536307       0.014446965
Nuclear contribution   :     -1.767705230      -4.109899848      -0.116886623
                        -----------------------------------------
Total Dipole Moment    :     -0.176326734      -0.635363541      -0.102439658
                        -----------------------------------------
Magnitude (a.u.)       :      0.667286917
Magnitude (Debye)      :      1.696108550



--------------------
Rotational spectrum 
--------------------
 
Rotational constants in cm-1:             2.044775             0.329741             0.299584 
Rotational constants in MHz :         61300.824087          9885.391361          8981.300305 

Dipole components along the rotational axes: 
x,y,z [a.u.] :    -0.630391     0.218813     0.000207 
x,y,z [Debye]:    -1.602326     0.556178     0.000527 

 

-------------
DIPOLE MOMENT
-------------

Method             : TDA/CIS
Type of density    : Electron Density
Level              : Relaxed density
State              :   2
Multiplicity       :   3
Irrep              :   0
Energy             :     0.0000000000000000 Eh
Relativity type    : 
Basis              : AO
                                X                 Y                 Z
Electronic contribution:      1.547506884       3.517701281       0.070587845
Nuclear contribution   :     -1.767705230      -4.109899848      -0.116886623
                        -----------------------------------------
Total Dipole Moment    :     -0.220198347      -0.592198567      -0.046298778
                        -----------------------------------------
Magnitude (a.u.)       :      0.633506142
Magnitude (Debye)      :      1.610244644



--------------------
Rotational spectrum 
--------------------
 
Rotational constants in cm-1:             2.044775             0.329741             0.299584 
Rotational constants in MHz :         61300.824087          9885.391361          8981.300305 

Dipole components along the rotational axes: 
x,y,z [a.u.] :    -0.618661     0.136338     0.000533 
x,y,z [Debye]:    -1.572512     0.346545     0.001355 

 

Dipole moment calculation done in   0.0 sec 

Maximum memory used throughout the entire PROP-calculation: 7.5 MB
[1741000435.168722] [ohm:3245027:0]        ib_iface.c:1059 UCX  ERROR ibv_create_cq(cqe=256) failed: Connection timed out
[1741000435.179823] [ohm:3245029:0]        ib_iface.c:1059 UCX  ERROR ibv_create_cq(cqe=256) failed: Connection timed out
[1741000435.187284] [ohm:3245031:0]        ib_iface.c:1059 UCX  ERROR ibv_create_cq(cqe=256) failed: Connection timed out
[1741000435.187882] [ohm:3245033:0]        ib_iface.c:1059 UCX  ERROR ibv_create_cq(cqe=256) failed: Connection timed out
[1741000435.187883] [ohm:3245036:0]        ib_iface.c:1059 UCX  ERROR ibv_create_cq(cqe=256) failed: Connection timed out
[1741000435.188187] [ohm:3245047:0]        ib_iface.c:1059 UCX  ERROR ibv_create_cq(cqe=256) failed: Connection timed out
[1741000435.188208] [ohm:3245039:0]        ib_iface.c:1059 UCX  ERROR ibv_create_cq(cqe=256) failed: Connection timed out
[1741000435.190739] [ohm:3245026:0]        ib_iface.c:1059 UCX  ERROR ibv_create_cq(cqe=256) failed: Connection timed out
[1741000435.190739] [ohm:3245042:0]        ib_iface.c:1059 UCX  ERROR ibv_create_cq(cqe=256) failed: Connection timed out
[1741000435.191044] [ohm:3245034:0]        ib_iface.c:1059 UCX  ERROR ibv_create_cq(cqe=256) failed: Connection timed out
[1741000435.191044] [ohm:3245037:0]        ib_iface.c:1059 UCX  ERROR ibv_create_cq(cqe=256) failed: Connection timed out
[1741000435.191053] [ohm:3245030:0]        ib_iface.c:1059 UCX  ERROR ibv_create_cq(cqe=256) failed: Connection timed out
[1741000435.191326] [ohm:3245032:0]        ib_iface.c:1059 UCX  ERROR ibv_create_cq(cqe=256) failed: Connection timed out
[1741000435.191402] [ohm:3245028:0]        ib_iface.c:1059 UCX  ERROR ibv_create_cq(cqe=256) failed: Connection timed out
[1741000435.207000] [ohm:3245054:0]        ib_iface.c:1059 UCX  ERROR ibv_create_cq(cqe=256) failed: Connection timed out
[1741000435.208786] [ohm:3245052:0]        ib_iface.c:1059 UCX  ERROR ibv_create_cq(cqe=256) failed: Connection timed out

--------------------------------
SUGGESTED CITATIONS FOR THIS RUN
--------------------------------

Below you find a list of papers that are relevant to this ORCA run
We neither can nor want to force you to cite these papers, but we appreciate if you do
You receive ORCA, which is the product of decades of hard work by many enthusiastic individuals, for free
The only thing we kindly ask in return is that you cite our papers,
We deeply appreciate it, if you show your appreciation for ORCA by not just citing the generic ORCA reference.

Please note that relegating all ORCA citations to the supporting information does *not* help us.
SI sections are not indexed - citations you put there will not count into any citation statistics
But we need these citations in order to attract the funding resources that allow us to do what we are doing

Therefore, if you are a happy ORCA user, please consider citing a few of the papers listed below in the main body of your paper

In addition to the list printed below, the program has created the file orca.bibtex that contains the list in bibtex format
You can import this file easily into all common literature databanks and citation aid programs


List of essential papers. We consider these as the minimum necessary citations

  1. Neese,F.
     Software update: the ORCA program system, version 5.0
     WIRES Comput. Molec. Sci., 2022 12(1)e1606
     doi.org/10.1002/wcms.1606

List of papers to cite with high priority. The work reported in these papers was absolutely
necessary for this run to complete.
Our perspective: the developers of density functionals and basis sets usually get cited in chemistry papers
Good! But without the algorithms to do something with them, the functionals or basis sets would not do anything.
Hence, in our opinion, the algorithm design and method developments papers are equally worthy of getting cited

  1. Neese,F.; Olbrich,G.
     Efficient use of the resolution of the identity approximation in time-dependent density functional calculations with hybrid density functionals
     Chem. Phys. Lett., 2002 362 170-178
     doi.org/10.1016/s0009-2614(02)01053-9
  2. Neese,F.
     An improvement of the resolution of the identity approximation for the formation of the Coulomb matrix
     J. Comp. Chem., 2003 24(14)1740-1747
     doi.org/10.1002/jcc.10318
  3. Neese,F.; Wennmohs,F.; Hansen,A.; Becker,U.
     Efficient, approximate and parallel Hartree-Fock and hybrid DFT calculations. A 'chain-of-spheres' algorithm for the Hartree-Fock exchange
     Chem. Phys., 2009 356(1-3)98-109
     doi.org/10.1016/j.chemphys.2008.10.036
  4. Petrenko,T.; Kossmann,S.; Neese,F.
     Efficient time-dependent density functional theory approximations for hybrid density functionals: Analytical gradients and parallelization
     J. Chem. Phys., 2011 134 054116
     doi.org/10.1063/1.3533441
  5. Helmich-Paris,B.; de Souza,B.; Neese,F.; Izsák,R.
     An improved chain of spheres for exchange algorithm
     J. Chem. Phys., 2021 155 104109
     doi.org/doi: 10.1063/5.0058766.
  6. Neese,F.
     The SHARK Integral Generation and Digestion System
     J. Comp. Chem., 2022  1-16
     doi.org/10.1002/jcc.26942
  7. Lehtola,S.; Steigemann,C.; Oliveira,M.; Marques,M.
     Recent developments in Libxc - A comprehensive library of functionals for density functional theory
     Software X, 2018 7 
     doi.org/10.1016/j.softx.2017.11.002
  8. Grimme,S.; Antony,J.; Ehrlich,S.; Krieg,H.
     A consistent and accurate ab initio parametrization of density functional dispersion correction (DFT-D) for the 94 elements H-Pu
     J. Chem. Phys., 2010 132 154104-XXXX
     doi.org/10.1063/1.3382344
  9. Grimme,S.; Ehrlich,S.; Goerigk,L.
     Effect of the damping function in dispersion corrected density functional theory
     J. Comput. Chem., 2011 32(7)1456-1465
     doi.org/10.1002/jcc.21759

List of suggested additional citations. These are papers that are important in the 'surrounding' of 
of this run, or papers that preceded the highly important papers. If you like your results we are grateful for a citation.

  1. Izsak,R.; Neese,F.
     An overlap fitted chain of spheres exchange method
     J. Chem. Phys., 2011 135 144105
     doi.org/10.1063/1.3646921
  2. Izsak,R.; Hansen,A.; Neese,F.
     The resolution of identity and chain of spheres approximations for the LPNO-CCSD singles Fock term
     Molec. Phys., 2012 110 2413-2417
     doi.org/10.1080/00268976.2012.687466
  3. Neese,F.
     The ORCA program system
     WIRES Comput. Molec. Sci., 2012 2(1)73-78
     doi.org/10.1002/wcms.81
  4. Izsak,R.; Neese,F.; Klopper,W.
     Robust fitting techniques in the chain of spheres approximation to the Fock exchange: The role of the complementary space
     J. Chem. Phys., 2013 139 
     doi.org/10.1063/1.4819264
  5. Neese,F.
     Software update: the ORCA program system, version 4.0
     WIRES Comput. Molec. Sci., 2018 8(1)1-6
     doi.org/10.1002/wcms.1327
  6. Neese,F.; Wennmohs,F.; Becker,U.; Riplinger,C.
     The ORCA quantum chemistry program package
     J. Chem. Phys., 2020 152 Art. No. L224108
     doi.org/10.1063/5.0004608

List of optional additional citations

  1. Neese,F.
     Approximate second-order SCF convergence for spin unrestricted wavefunctions
     Chem. Phys. Lett., 2000 325(1-3)93-98
     doi.org/10.1016/s0009-2614(00)00662-x

Timings for individual modules:

Sum of individual times          ...       15.564 sec (=   0.259 min)
Startup calculation              ...        0.979 sec (=   0.016 min)   6.3 %
SCF iterations                   ...        6.078 sec (=   0.101 min)  39.1 %
Property integrals               ...        0.681 sec (=   0.011 min)   4.4 %
Property calculations            ...        0.706 sec (=   0.012 min)   4.5 %
CIS module                       ...        7.119 sec (=   0.119 min)  45.7 %
                             ****ORCA TERMINATED NORMALLY****
TOTAL RUN TIME: 0 days 0 hours 0 minutes 16 seconds 292 msec
