
                                 *****************
                                 * O   R   C   A *
                                 *****************

                                            #,                                       
                                            ###                                      
                                            ####                                     
                                            #####                                    
                                            ######                                   
                                           ########,                                 
                                     ,,################,,,,,                         
                               ,,#################################,,                 
                          ,,##########################################,,             
                       ,#########################################, ''#####,          
                    ,#############################################,,   '####,        
                  ,##################################################,,,,####,       
                ,###########''''           ''''###############################       
              ,#####''   ,,,,##########,,,,          '''####'''          '####       
            ,##' ,,,,###########################,,,                        '##       
           ' ,,###''''                  '''############,,,                           
         ,,##''                                '''############,,,,        ,,,,,,###''
      ,#''                                            '''#######################'''  
     '                                                          ''''####''''         
             ,#######,   #######,   ,#######,      ##                                
            ,#'     '#,  ##    ##  ,#'     '#,    #''#        ,####,   ,####,        
            ##       ##  ##   ,#'  ##            #'  '#       #'       #'  '#        
            ##       ##  #######   ##           ,######,      #####,   #    #        
            '#,     ,#'  ##    ##  '#,     ,#' ,#      #,     #,   #   #,  ,#        
             '#######'   ##     ##  '#######'  #'      '#     '####' # '####'        



                #########################################################
                #                        -***-                          #
                #          Department of theory and spectroscopy        #
                #                                                       #
                #                      Frank Neese                      #
                #                                                       #
                #     Directorship, Architecture, Infrastructure        #
                #                    SHARK, DRIVERS                     #
                #        Core code/Algorithms in most modules           #
                #                                                       #
                #        Max Planck Institute fuer Kohlenforschung      #
                #                Kaiser Wilhelm Platz 1                 #
                #                 D-45470 Muelheim/Ruhr                 #
                #                      Germany                          #
                #                                                       #
                #                  All rights reserved                  #
                #                        -***-                          #
                #########################################################


                         Program Version 6.0.0  -   RELEASE  -


 With contributions from (in alphabetic order):
   Daniel Aravena         : Magnetic Suceptibility
   Michael Atanasov       : Ab Initio Ligand Field Theory (pilot matlab implementation)
   Alexander A. Auer      : GIAO ZORA, VPT2 properties, NMR spectrum
   Ute Becker             : All parallelization in ORCA, NUMFREQ, NUMCALC
   Giovanni Bistoni       : ED, misc. LED, open-shell LED, HFLD
   Martin Brehm           : Molecular dynamics
   Dmytro Bykov           : pre 5.0 version of the SCF Hessian
   Marcos Casanova-Páez   : Triplet and SCS-CIS(D). UHF-(DLPNO)-IP/EA/STEOM-CCSD. UHF-CVS-IP/STEOM-CCSD
   Vijay G. Chilkuri      : MRCI spin determinant printing, contributions to CSF-ICE
   Pauline Colinet        : FMM embedding
   Dipayan Datta          : RHF DLPNO-CCSD density
   Achintya Kumar Dutta   : EOM-CC, STEOM-CC
   Nicolas Foglia         : Exact transition moments, OPA infrastructure, MCD improvements
   Dmitry Ganyushin       : Spin-Orbit,Spin-Spin,Magnetic field MRCI
   Miquel Garcia          : C-PCM and meta-GGA Hessian, CCSD/C-PCM, Gaussian charge scheme
   Tiago L. C. Gouveia    : GS-ROHF, GS-ROCIS
   Yang Guo               : DLPNO-NEVPT2, F12-NEVPT2, CIM, IAO-localization
   Andreas Hansen         : Spin unrestricted coupled pair/coupled cluster methods
   Ingolf Harden          : AUTO-CI MPn and infrastructure 
   Benjamin Helmich-Paris : MC-RPA, TRAH-(SCF,CASSCF), AVAS, COSX integrals, SCF dyn. polar.
   Lee Huntington         : MR-EOM, pCC
   Robert Izsak           : Overlap fitted RIJCOSX, COSX-SCS-MP3, EOM
   Riya Kayal             : Wick's Theorem for AUTO-CI, AUTO-CI UHF-CCSDT
   Emily Kempfer          : AUTO-CI, RHF CISDT and CCSDT
   Christian Kollmar      : KDIIS, OOCD, Brueckner-CCSD(T), CCSD density, CASPT2, CASPT2-K, improved NEVPT2
   Axel Koslowski         : Symmetry handling
   Simone Kossmann        : Meta GGA functionals, TD-DFT gradient, OOMP2, (MP2 Hessian; deprecated post 5.0)
   Lucas Lang             : DCDCAS
   Marvin Lechner         : AUTO-CI (C++ implementation), FIC-MRCC
   Spencer Leger          : CASSCF response
   Dagmar Lenk            : GEPOL surface, SMD, ORCA-2-JSON
   Dimitrios Liakos       : Extrapolation schemes; Compound Job, initial MDCI parallelization
   Dimitrios Manganas     : Further ROCIS development; embedding schemes. LFT, Crystal Embedding
   Dimitrios Pantazis     : SARC Basis sets
   Anastasios Papadopoulos: AUTO-CI, single reference methods and gradients
   Taras Petrenko         : pre 6.0 DFT Hessian and TD-DFT gradient, (ASA, deprecated), ECA, 1-Electron XAS/XES, NRVS
   Peter Pinski           : DLPNO-MP2, DLPNO-MP2 Gradient
   Christoph Reimann      : Effective Core Potentials
   Marius Retegan         : Local ZFS, SOC
   Christoph Riplinger    : Optimizer, TS searches, QM/MM, DLPNO-CCSD(T), (RO)-DLPNO pert. Triples
   Michael Roemelt        : Original ROCIS implementation
   Masaaki Saitow         : Open-shell DLPNO-CCSD energy and density
   Barbara Sandhoefer     : DKH picture change effects
   Kantharuban Sivalingam : CASSCF convergence/infrastructure, NEVPT2 and variants, FIC-MRCI
   Bernardo de Souza      : ESD, SOC TD-DFT
   Georgi Stoychev        : AutoAux, RI-MP2 NMR, DLPNO-MP2 response, X2C
   Van Anh Tran           : RI-MP2 g-tensors
   Willem Van den Heuvel  : Paramagnetic NMR
   Zikuan Wang            : NOTCH, Electric field optimization 
   Frank Wennmohs         : Technical directorship and infrastructure
   Hang Xu                : AUTO-CI-Response properties 


 We gratefully acknowledge several colleagues who have allowed us to
 interface, adapt or use parts of their codes:
   Stefan Grimme, W. Hujo, H. Kruse, P. Pracht,  : VdW corrections, initial TS optimization,
                  C. Bannwarth, S. Ehlert,         DFT functionals, gCP, sTDA/sTD-DF
                  L. Wittmann, M. Mueller
   Ed Valeev, F. Pavosevic, A. Kumar             : LibInt (2-el integral package), F12 methods
   Garnet Chan, S. Sharma, J. Yang, R. Olivares  : DMRG
   Ulf Ekstrom                                   : XCFun DFT Library
   Mihaly Kallay                                 : mrcc  (arbitrary order and MRCC methods)
   Frank Weinhold                                : gennbo (NPA and NBO analysis)
   Simon Mueller                                 : openCOSMO-RS
   Christopher J. Cramer and Donald G. Truhlar   : smd solvation model
   Lars Goerigk                                  : TD-DFT with DH, B97 family of functionals
   V. Asgeirsson, H. Jonsson                     : NEB implementation
   FAccTs GmbH                                   : IRC, NEB, NEB-TS, DLPNO-Multilevel, CI-OPT
                                                   MM, QMMM, 2- and 3-layer-ONIOM, Crystal-QMMM,
                                                   LR-CPCM, SF, NACMEs, symmetry and pop. for TD-DFT,
                                                   nearIR, NL-DFT gradient (VV10), updates on ESD,
                                                   ML-optimized integration grids, MBIS, APM,
                                                   GOAT, DOCKER, SOLVATOR, interface openCOSMO-RS
   S Lehtola, MJT Oliveira, MAL Marques          : LibXC Library
   Liviu Ungur et al                             : ANISO software


 Your calculation uses the libint2 library for the computation of 2-el integrals
 For citations please refer to: http://libint.valeyev.net

 Your ORCA version has been built with support for libXC version: 6.2.2
 For citations please refer to: https://libxc.gitlab.io

 This ORCA versions uses:
   CBLAS   interface :  Fast vector & matrix operations
   LAPACKE interface :  Fast linear algebra routines
   SCALAPACK package :  Parallel linear algebra routines
   Shared memory     :  Shared parallel matrices
   BLAS/LAPACK       :  OpenBLAS 0.3.27  USE64BITINT DYNAMIC_ARCH NO_AFFINITY Zen SINGLE_THREADED
        Core in use  :  Zen
   Copyright (c) 2011-2014, The OpenBLAS Project


Your calculation utilizes the atom-pairwise dispersion correction
with the Becke-Johnson damping scheme (D3BJ)


Warning: RI is on but no J-basis has been assigned. Assigning Def2/J (nothing to worry about!)
================================================================================

----- Orbital basis set information -----
Your calculation utilizes the basis: def2-TZVPPD
   F. Weigend and R. Ahlrichs, Phys. Chem. Chem. Phys. 7, 3297 (2005).
   D. Rappoport and F. Furche, J. Chem. Phys. 133, 134105 (2010)
   D. Rappoport, J. Chem. Phys. 155, 124102 (2021).

----- AuxJ basis set information -----
Your calculation utilizes the auxiliary basis: def2/J
   F. Weigend, Phys. Chem. Chem. Phys. 8, 1057 (2006).

================================================================================
                                        WARNINGS
                       Please study these warnings very carefully!
================================================================================

Using LibXC functional ID 531 : wB97M-V exchange-correlation functional
[ 1]  N. Mardirossian and M. Head-Gordon.,  J. Chem. Phys. 144, 214110 (2016)
Using LibXC functional ID 531 : wB97M-V exchange-correlation functional
[ 1]  N. Mardirossian and M. Head-Gordon.,  J. Chem. Phys. 144, 214110 (2016)

WARNING: B97M-V or wB97M-V functional requested.
  ===> : libXC variant has now been activated.
         Any manually given DFX/HFX/RangeSep scaling parameters are IGNORED!

Your calculation utilizes LibXC
 by S Lehtola, C Steigemann, MJT Oliveira & MAL Marques
Please cite in your paper:
 S Lehtola, C Steigemann, MJT Oliveira & MAL Marques, SoftwareX, 7, (2018), 1.
   


WARNING: your system is open-shell and RHF/RKS was chosen
  ===> : WILL SWITCH to UHF/UKS

INFO   : Checking CIS options ...

WARNING: CIS/ROCIS methods need fully converged wavefunctions
  ===> : Setting SCFConvForced true
         You can overwrite this default with %scf ConvForced false 


================================================================================
                                       INPUT FILE
================================================================================
NAME = orca.inp
|  1> ! EnGrad wB97M-D3BJ def2-TZVPPD 
|  2> %pal nprocs 8 end%pal nprocs 16 end 
|  3> %tddft 
|  4>  sf true 
|  5>  nroots 2 Iroot 2 end 
|  6> *xyz 0 3 
|  7> O   0.75297511915636 1.3559578620374 0.05751783504082
|  8> C   0.54612919932516 0.19359890082226 0.2686456554329
|  9> C   -0.4558889647206 -0.78882761722296 -0.25298237119537
| 10> H   1.21618195401642 -0.30998328274565 1.00289339263411
| 11> H   0.09312850372336 -1.61834322772954 -0.69845971711797
| 12> H   -1.1453991958285 -0.36277001468655 -0.97735855072583
| 13> H   -1.00492661567219 -1.18803262047496 0.59974375593134
| 14> *
| 15> 
| 16>                          ****END OF INPUT****
================================================================================

                     *******************************
                     * Energy+Gradient Calculation *
                     *******************************

---------------------------------
CARTESIAN COORDINATES (ANGSTROEM)
---------------------------------
  O      0.752975    1.355958    0.057518
  C      0.546129    0.193599    0.268646
  C     -0.455889   -0.788828   -0.252982
  H      1.216182   -0.309983    1.002893
  H      0.093129   -1.618343   -0.698460
  H     -1.145399   -0.362770   -0.977359
  H     -1.004927   -1.188033    0.599744

----------------------------
CARTESIAN COORDINATES (A.U.)
----------------------------
  NO LB      ZA    FRAG     MASS         X           Y           Z
   0 O     8.0000    0    15.999    1.422917    2.562389    0.108693
   1 C     6.0000    0    12.011    1.032035    0.365849    0.507667
   2 C     6.0000    0    12.011   -0.861505   -1.490668   -0.478067
   3 H     1.0000    0     1.008    2.298251   -0.585784    1.895194
   4 H     1.0000    0     1.008    0.175987   -3.058225   -1.319898
   5 H     1.0000    0     1.008   -2.164491   -0.685536   -1.846940
   6 H     1.0000    0     1.008   -1.899036   -2.245056    1.133351

--------------------------------
INTERNAL COORDINATES (ANGSTROEM)
--------------------------------
 O      0   0   0     0.000000000000     0.00000000     0.00000000
 C      1   0   0     1.199349217622     0.00000000     0.00000000
 C      2   1   0     1.497096544182   133.63635907     0.00000000
 H      2   1   3     1.114309404637   116.76120594   179.99373682
 H      3   2   1     1.089938711332   107.73989079   122.31645220
 H      3   2   1     1.087046590056   113.54825495   359.96899468
 H      3   2   1     1.089930651312   107.75268333   237.61671413

---------------------------
INTERNAL COORDINATES (A.U.)
---------------------------
 O      0   0   0     0.000000000000     0.00000000     0.00000000
 C      1   0   0     2.266441560239     0.00000000     0.00000000
 C      2   1   0     2.829102464543   133.63635907     0.00000000
 H      2   1   3     2.105739603216   116.76120594   179.99373682
 H      3   2   1     2.059685667177   107.73989079   122.31645220
 H      3   2   1     2.054220350019   113.54825495   359.96899468
 H      3   2   1     2.059670435945   107.75268333   237.61671413

---------------------
BASIS SET INFORMATION
---------------------
There are 3 groups of distinct atoms

 Group   1 Type O   : 12s7p3d1f contracted to 6s4p3d1f pattern {621111/4111/111/1}
 Group   2 Type C   : 12s6p3d1f contracted to 6s3p3d1f pattern {621111/411/111/1}
 Group   3 Type H   : 5s3p1d contracted to 3s3p1d pattern {311/111/1}

Atom   0O    basis set group =>   1
Atom   1C    basis set group =>   2
Atom   2C    basis set group =>   2
Atom   3H    basis set group =>   3
Atom   4H    basis set group =>   3
Atom   5H    basis set group =>   3
Atom   6H    basis set group =>   3
---------------------------------
AUXILIARY/J BASIS SET INFORMATION
---------------------------------
There are 3 groups of distinct atoms

 Group   1 Type O   : 12s5p4d2f1g contracted to 6s4p3d1f1g pattern {711111/2111/211/2/1}
 Group   2 Type C   : 12s5p4d2f1g contracted to 6s4p3d1f1g pattern {711111/2111/211/2/1}
 Group   3 Type H   : 5s2p1d contracted to 3s1p1d pattern {311/2/1}

Atom   0O    basis set group =>   1
Atom   1C    basis set group =>   2
Atom   2C    basis set group =>   2
Atom   3H    basis set group =>   3
Atom   4H    basis set group =>   3
Atom   5H    basis set group =>   3
Atom   6H    basis set group =>   3
[1741000501.259605] [ohm:3247690:0]        ib_iface.c:1059 UCX  ERROR ibv_create_cq(cqe=256) failed: Connection timed out
[1741000501.259796] [ohm:3247688:0]        ib_iface.c:1059 UCX  ERROR ibv_create_cq(cqe=256) failed: Connection timed out
[1741000501.259796] [ohm:3247694:0]        ib_iface.c:1059 UCX  ERROR ibv_create_cq(cqe=256) failed: Connection timed out
[1741000501.260323] [ohm:3247692:0]        ib_iface.c:1059 UCX  ERROR ibv_create_cq(cqe=256) failed: Connection timed out
[1741000501.271860] [ohm:3247687:0]        ib_iface.c:1059 UCX  ERROR ibv_create_cq(cqe=256) failed: Connection timed out
[1741000501.271888] [ohm:3247691:0]        ib_iface.c:1059 UCX  ERROR ibv_create_cq(cqe=256) failed: Connection timed out
[1741000501.271888] [ohm:3247695:0]        ib_iface.c:1059 UCX  ERROR ibv_create_cq(cqe=256) failed: Connection timed out
[1741000501.271890] [ohm:3247689:0]        ib_iface.c:1059 UCX  ERROR ibv_create_cq(cqe=256) failed: Connection timed out
[1741000501.272099] [ohm:3247693:0]        ib_iface.c:1059 UCX  ERROR ibv_create_cq(cqe=256) failed: Connection timed out
[1741000501.275703] [ohm:3247697:0]        ib_iface.c:1059 UCX  ERROR ibv_create_cq(cqe=256) failed: Connection timed out
[1741000501.275704] [ohm:3247701:0]        ib_iface.c:1059 UCX  ERROR ibv_create_cq(cqe=256) failed: Connection timed out
[1741000501.277145] [ohm:3247717:0]        ib_iface.c:1059 UCX  ERROR ibv_create_cq(cqe=256) failed: Connection timed out
[1741000501.277439] [ohm:3247710:0]        ib_iface.c:1059 UCX  ERROR ibv_create_cq(cqe=256) failed: Connection timed out
[1741000501.278546] [ohm:3247699:0]        ib_iface.c:1059 UCX  ERROR ibv_create_cq(cqe=256) failed: Connection timed out
[1741000501.279182] [ohm:3247704:0]        ib_iface.c:1059 UCX  ERROR ibv_create_cq(cqe=256) failed: Connection timed out
[1741000501.279520] [ohm:3247714:0]        ib_iface.c:1059 UCX  ERROR ibv_create_cq(cqe=256) failed: Connection timed out


           ************************************************************
           *        Program running with 16 parallel MPI-processes    *
           *              working on a common directory               *
           ************************************************************
------------------------------------------------------------------------------
                             ORCA STARTUP CALCULATIONS
                           -- RI-GTO INTEGRALS CHOSEN --
------------------------------------------------------------------------------
------------------------------------------------------------------------------
                   ___                                                        
                  /   \      - P O W E R E D   B Y -                         
                 /     \                                                     
                 |  |  |   _    _      __       _____    __    __             
                 |  |  |  | |  | |    /  \     |  _  \  |  |  /  |          
                  \  \/   | |  | |   /    \    | | | |  |  | /  /          
                 / \  \   | |__| |  /  /\  \   | |_| |  |  |/  /          
                |  |  |   |  __  | /  /__\  \  |    /   |      \           
                |  |  |   | |  | | |   __   |  |    \   |  |\   \          
                \     /   | |  | | |  |  |  |  | |\  \  |  | \   \       
                 \___/    |_|  |_| |__|  |__|  |_| \__\ |__|  \__/        
                                                                              
                      - O R C A' S   B I G   F R I E N D -                    
                                      &                                       
                       - I N T E G R A L  F E E D E R -                       
                                                                              
 v1 FN, 2020, v2 2021, v3 2022-2024                                           
------------------------------------------------------------------------------


----------------------
SHARK INTEGRAL PACKAGE
----------------------

Number of atoms                             ...      7
Number of basis functions                   ...    182
Number of shells                            ...     68
Maximum angular momentum                    ...      3
Integral batch strategy                     ... SHARK/LIBINT Hybrid
RI-J (if used) integral strategy            ... SPLIT-RIJ (Revised 2003 algorithm where possible)
Printlevel                                  ...      1
Contraction scheme used                     ... SEGMENTED contraction
Prescreening option                         ... SCHWARTZ
   Thresh                                   ... 2.500e-11
   Tcut                                     ... 2.500e-12
   Tpresel                                  ... 2.500e-12 
Coulomb Range Separation                    ... NOT USED
Exchange Range Separation                   ... Long Range
   Mu parameter                             ... 3.000e-01
   Scaling (regular/separated)              ... 1.500e-01 8.500e-01
Multipole approximations                    ... NOT USED
Finite Nucleus Model                        ... NOT USED
CABS basis                                  ... NOT available
Auxiliary Coulomb fitting basis             ... AVAILABLE
   # of basis functions in Aux-J            ...    191
   # of shells in Aux-J                     ...     65
   Maximum angular momentum in Aux-J        ...      4
Auxiliary J/K fitting basis                 ... NOT available
Auxiliary Correlation fitting basis         ... NOT available
Auxiliary 'external' fitting basis          ... NOT available

Checking pre-screening integrals            ... done (  0.0 sec) Dimension = 68
Check shell pair data                       ... done (  0.0 sec)
Shell pair information
Shell pair cut-off parameter TPreSel        ...   2.5e-12
Total number of shell pairs                 ...      2346
Shell pairs after pre-screening             ...      2322
Total number of primitive shell pairs       ...      5434
Primitive shell pairs kept                  ...      4805
          la=0 lb=0:    453 shell pairs
          la=1 lb=0:    653 shell pairs
          la=1 lb=1:    253 shell pairs
          la=2 lb=0:    385 shell pairs
          la=2 lb=1:    286 shell pairs
          la=2 lb=2:     91 shell pairs
          la=3 lb=0:     90 shell pairs
          la=3 lb=1:     66 shell pairs
          la=3 lb=2:     39 shell pairs
          la=3 lb=3:      6 shell pairs

Calculating one electron integrals          ... done (  0.0 sec)
Calculating RI/J V-Matrix + Cholesky decomp.... done (  0.0 sec)
Calculating Nuclear repulsion               ... done (  0.0 sec) ENN=     69.576798174495 Eh

Diagonalization of the overlap matrix:
Smallest eigenvalue                        ... 1.377e-05
Time for diagonalization                   ...    0.003 sec
Threshold for overlap eigenvalues          ... 1.000e-07
Number of eigenvalues below threshold      ... 0
Time for construction of square roots      ...    0.002 sec
Total time needed                          ...    0.006 sec

-------------------
DFT GRID GENERATION
-------------------

General Integration Accuracy     IntAcc      ... 4.388
Radial Grid Type                 RadialGrid  ... OptM3 with GC (2021)
Angular Grid (max. ang.)         AngularGrid ... 4 (Lebedev-302)
Angular grid pruning method      GridPruning ... 4 (adaptive)
Weight generation scheme         WeightScheme... mBecke (2022)
Basis function cutoff            BFCut       ... 1.0000e-11
Integration weight cutoff        WCut        ... 1.0000e-14
Partially contracted basis set               ... off
Rotationally invariant grid construction     ... off
Angular grids for H and He will be reduced by one unit
Diffuse basis detected: some atoms will have their outermost
                        angular grid increased by 1.

Total number of grid points                  ...    33140
Total number of batches                      ...      521
Average number of points per batch           ...       63
Average number of grid points per atom       ...     4734

--------------------
COSX GRID GENERATION
--------------------

GRIDX 1
-------
General Integration Accuracy     IntAcc      ... 3.816
Radial Grid Type                 RadialGrid  ... OptM3 with GC (2021)
Angular Grid (max. ang.)         AngularGrid ... 1 (Lebedev-50)
Angular grid pruning method      GridPruning ... 4 (adaptive)
Weight generation scheme         WeightScheme... mBecke (2022)
Basis function cutoff            BFCut       ... 1.0000e-11
Integration weight cutoff        WCut        ... 1.0000e-14
Partially contracted basis set               ... on
Rotationally invariant grid construction     ... off
Angular grids for H and He will be reduced by one unit
Diffuse basis detected: some atoms will have their outermost
                        angular grid increased by 1.

Total number of grid points                  ...     4176
Total number of batches                      ...       37
Average number of points per batch           ...      112
Average number of grid points per atom       ...      597
UseSFitting                                  ... on

GRIDX 2
-------
General Integration Accuracy     IntAcc      ... 4.020
Radial Grid Type                 RadialGrid  ... OptM3 with GC (2021)
Angular Grid (max. ang.)         AngularGrid ... 2 (Lebedev-110)
Angular grid pruning method      GridPruning ... 4 (adaptive)
Weight generation scheme         WeightScheme... mBecke (2022)
Basis function cutoff            BFCut       ... 1.0000e-11
Integration weight cutoff        WCut        ... 1.0000e-14
Partially contracted basis set               ... on
Rotationally invariant grid construction     ... off
Angular grids for H and He will be reduced by one unit
Diffuse basis detected: some atoms will have their outermost
                        angular grid increased by 1.

Total number of grid points                  ...    10288
Total number of batches                      ...       84
Average number of points per batch           ...      122
Average number of grid points per atom       ...     1470
UseSFitting                                  ... on

GRIDX 3
-------
General Integration Accuracy     IntAcc      ... 4.338
Radial Grid Type                 RadialGrid  ... OptM3 with GC (2021)
Angular Grid (max. ang.)         AngularGrid ... 3 (Lebedev-194)
Angular grid pruning method      GridPruning ... 4 (adaptive)
Weight generation scheme         WeightScheme... mBecke (2022)
Basis function cutoff            BFCut       ... 1.0000e-11
Integration weight cutoff        WCut        ... 1.0000e-14
Partially contracted basis set               ... on
Rotationally invariant grid construction     ... off
Angular grids for H and He will be reduced by one unit
Diffuse basis detected: some atoms will have their outermost
                        angular grid increased by 1.

Total number of grid points                  ...    23139
Total number of batches                      ...      185
Average number of points per batch           ...      125
Average number of grid points per atom       ...     3306
UseSFitting                                  ... on
Initializing property integral containers    ... done (  0.0 sec)

SHARK setup successfully completed in   0.3 seconds

Maximum memory used throughout the entire STARTUP-calculation: 13.8 MB
[1741000502.246176] [ohm:3247774:0]        ib_iface.c:1059 UCX  ERROR ibv_create_cq(cqe=256) failed: Connection timed out
[1741000502.246848] [ohm:3247772:0]        ib_iface.c:1059 UCX  ERROR ibv_create_cq(cqe=256) failed: Connection timed out
[1741000502.247470] [ohm:3247776:0]        ib_iface.c:1059 UCX  ERROR ibv_create_cq(cqe=256) failed: Connection timed out
[1741000502.257304] [ohm:3247790:0]        ib_iface.c:1059 UCX  ERROR ibv_create_cq(cqe=256) failed: Connection timed out
[1741000502.257425] [ohm:3247781:0]        ib_iface.c:1059 UCX  ERROR ibv_create_cq(cqe=256) failed: Connection timed out
[1741000502.257433] [ohm:3247771:0]        ib_iface.c:1059 UCX  ERROR ibv_create_cq(cqe=256) failed: Connection timed out
[1741000502.257432] [ohm:3247775:0]        ib_iface.c:1059 UCX  ERROR ibv_create_cq(cqe=256) failed: Connection timed out
[1741000502.257932] [ohm:3247773:0]        ib_iface.c:1059 UCX  ERROR ibv_create_cq(cqe=256) failed: Connection timed out
[1741000502.258648] [ohm:3247778:0]        ib_iface.c:1059 UCX  ERROR ibv_create_cq(cqe=256) failed: Connection timed out
[1741000502.258726] [ohm:3247784:0]        ib_iface.c:1059 UCX  ERROR ibv_create_cq(cqe=256) failed: Connection timed out
[1741000502.264286] [ohm:3247777:0]        ib_iface.c:1059 UCX  ERROR ibv_create_cq(cqe=256) failed: Connection timed out
[1741000502.264284] [ohm:3247779:0]        ib_iface.c:1059 UCX  ERROR ibv_create_cq(cqe=256) failed: Connection timed out
[1741000502.264401] [ohm:3247783:0]        ib_iface.c:1059 UCX  ERROR ibv_create_cq(cqe=256) failed: Connection timed out
[1741000502.268761] [ohm:3247795:0]        ib_iface.c:1059 UCX  ERROR ibv_create_cq(cqe=256) failed: Connection timed out
[1741000502.269832] [ohm:3247799:0]        ib_iface.c:1059 UCX  ERROR ibv_create_cq(cqe=256) failed: Connection timed out
[1741000502.270873] [ohm:3247786:0]        ib_iface.c:1059 UCX  ERROR ibv_create_cq(cqe=256) failed: Connection timed out


           ************************************************************
           *        Program running with 16 parallel MPI-processes    *
           *              working on a common directory               *
           ************************************************************
-------------------------------------------------------------------------------
                                 ORCA GUESS
                   Start orbitals & Density for SCF / CASSCF
-------------------------------------------------------------------------------

------------
SCF SETTINGS
------------
Hamiltonian:
 Density Functional     Method          .... DFT(GTOs)
  Functional kind                       .... Exchange-Correlation
  Functional name                       .... wB97M-V exchange-correlation functional
  Functional family                     .... Hybrid MGGA
  Functional refs                              
    [ 0] N. Mardirossian and M. Head-Gordon.,  J. Chem. Phys. 144, 214110 (2016), doi: 10.1063/1.4952647
  Fraction of HF Exchange (short range) .... 0.1500
  Fraction of HF Exchange (long range)  .... 1.0000
  Range separation parameter mu         .... 0.3000
  Functional external parameters        .... 17
    Parameter  0 _cx00      =  8.500000e-01 : u^00 coefficient for exchange
    Parameter  1 _cx01      =  1.007000e+00 : u^01 coefficient for exchange
    Parameter  2 _cx10      =  2.590000e-01 : u^10 coefficient for exchange
    Parameter  3 _css00     =  4.430000e-01 : u^00 coefficient for same-spin correlation
    Parameter  4 _css04     = -1.437000e+00 : u^04 coefficient for same-spin correlation
    Parameter  5 _css10     = -4.535000e+00 : u^10 coefficient for same-spin correlation
    Parameter  6 _css20     = -3.390000e+00 : u^20 coefficient for same-spin correlation
    Parameter  7 _css43     =  4.278000e+00 : u^43 coefficient for same-spin correlation
    Parameter  8 _cos00     =  1.000000e+00 : u^00 coefficient for opposite-spin correlation
    Parameter  9 _cos10     =  1.358000e+00 : u^10 coefficient for opposite-spin correlation
    Parameter 10 _cos20     =  2.924000e+00 : u^20 coefficient for opposite-spin correlation
    Parameter 11 _cos21     = -8.812000e+00 : u^21 coefficient for opposite-spin correlation
    Parameter 12 _cos60     = -1.390000e+00 : u^60 coefficient for opposite-spin correlation
    Parameter 13 _cos61     =  9.142000e+00 : u^61 coefficient for opposite-spin correlation
    Parameter 14 _alpha     =  1.000000e+00 : fraction of HF exchange
    Parameter 15 _beta      = -8.500000e-01 : fraction of short-range exchange
    Parameter 16 _omega     =  3.000000e-01 : range-separation constant
 Long-range corrected/Screened/Range-Separated Hybrid DFT is turned on
   Amount of maximum screened exact exchange              ....  0.850000
   Range separation parameter mu (erf(mu*r12)/r12)        ....  0.300000
 RI-approximation to the Coulomb term is turned on
   Number of AuxJ basis functions       .... 191
   RIJ-COSX (HFX calculated with COS-X)).... on


General Settings:
 Integral files         IntName         .... orca
 Hartree-Fock type      HFTyp           .... UHF
 Total Charge           Charge          ....    0
 Multiplicity           Mult            ....    3
 Number of Electrons    NEL             ....   24
 Basis Dimension        Dim             ....  182
 Nuclear Repulsion      ENuc            ....     69.5767981745 Eh

Convergence Acceleration:
 AO-DIIS                CNVDIIS         .... on
   Start iteration      DIISMaxIt       ....    12
   Startup error        DIISStart       ....  0.200000
   # of expansion vecs  DIISMaxEq       ....     5
   Bias factor          DIISBfac        ....   1.050
   Max. coefficient     DIISMaxC        ....  10.000
 MO-DIIS                CNVKDIIS        .... off
 Trust-Rad. Augm. Hess. CNVTRAH         .... auto
   Auto Start mean grad. ratio tolernc. ....  1.125000
   Auto Start start iteration           ....    50
   Auto Start num. interpolation iter.  ....    10
   Max. Number of Micro iterations      ....    24
   Max. Number of Macro iterations      .... Maxiter - #DIIS iter
   Number of Davidson start vectors     ....     2
   Converg. threshold    (grad. norm)   ....   1.000e-05
   Grad. Scal. Fac. for Micro threshold ....   0.100
   Minimum threshold for Micro iter.    ....   1.000e-02
   NR start threshold (gradient norm)   ....   1.000e-04
   Initial trust radius                 ....   0.400
   Minimum AH scaling param. (alpha)    ....   1.000
   Maximum AH scaling param. (alpha)    .... 1000.000
   Quad. conv. algorithm                .... NR
   White noise on init. David. guess    .... on
   Maximum white noise                  ....   0.010
   Pseudo random numbers                .... off
   Inactive MOs                         .... canonical
   Orbital update algorithm             .... Taylor
   Preconditioner                       .... Diag
   Full preconditioner red. dimension   ....   250
 SOSCF                  CNVSOSCF        .... on
   Start iteration      SOSCFMaxIt      ....   150
   Startup grad/error   SOSCFStart      ....  0.003300
   Hessian update       SOSCFHessUp     .... L-BFGS
 Level Shifting         CNVShift        .... on
   Level shift para.    LevelShift      ....    0.2500
   Turn off err/grad.   ShiftErr        ....    0.0010
 Zerner damping         CNVZerner       .... off
 Static damping         CNVDamp         .... on
   Fraction old density DampFac         ....    0.7000
   Max. Damping (<1)    DampMax         ....    0.9800
   Min. Damping (>=0)   DampMin         ....    0.0000
   Turn off err/grad.   DampErr         ....    0.1000

SCF Procedure:
 Maximum # iterations   MaxIter         ....   125
 SCF integral mode      SCFMode         .... Direct
   Integral package                     .... SHARK and LIBINT hybrid scheme
 Reset frequency        DirectResetFreq ....    20
 Integral Threshold     Thresh          ....  2.500e-11 Eh
 Primitive CutOff       TCut            ....  2.500e-12 Eh

Convergence Tolerance:
 Convergence Check Mode ConvCheckMode   .... Total+1el-Energy
 Convergence forced     ConvForced      .... 1
 Energy Change          TolE            ....  1.000e-08 Eh
 1-El. energy change                    ....  1.000e-05 Eh
 Orbital Gradient       TolG            ....  1.000e-05
 Orbital Rotation angle TolX            ....  1.000e-05
 DIIS Error             TolErr          ....  5.000e-07

------------------------------
INITIAL GUESS: MODEL POTENTIAL
------------------------------
Loading Hartree-Fock densities                     ... done
Calculating cut-offs                               ... done
Initializing the effective Hamiltonian             ... done
Setting up the integral package (SHARK)            ... done
Starting the Coulomb interaction                   ... done (   0.0 sec)
Making the grid                                    ... done (   0.0 sec)
Mapping shells                                     ... done
Starting the XC term evaluation                    ... done (   0.0 sec)
  promolecular density results
     # of electrons  =     23.996831192
     EX              =    -19.522347885
     EC              =     -0.771902910
     EX+EC           =    -20.294250795
Transforming the Hamiltonian                       ... done (   0.0 sec)
Diagonalizing the Hamiltonian                      ... done (   0.0 sec)
Back transforming the eigenvectors                 ... done (   0.0 sec)
Now organizing SCF variables                       ... done
                      ------------------
                      INITIAL GUESS DONE (   0.1 sec)
                      ------------------
             **** ENERGY FILE WAS UPDATED (orca.en.tmp) ****
Finished Guess after   0.5 sec
Maximum memory used throughout the entire GUESS-calculation: 9.7 MB
[1741000502.991119] [ohm:3247869:0]        ib_iface.c:1059 UCX  ERROR ibv_create_cq(cqe=256) failed: Connection timed out
[1741000502.992396] [ohm:3247871:0]        ib_iface.c:1059 UCX  ERROR ibv_create_cq(cqe=256) failed: Connection timed out
[1741000502.999278] [ohm:3247866:0]        ib_iface.c:1059 UCX  ERROR ibv_create_cq(cqe=256) failed: Connection timed out
[1741000502.999278] [ohm:3247870:0]        ib_iface.c:1059 UCX  ERROR ibv_create_cq(cqe=256) failed: Connection timed out
[1741000503.000558] [ohm:3247868:0]        ib_iface.c:1059 UCX  ERROR ibv_create_cq(cqe=256) failed: Connection timed out
[1741000503.003004] [ohm:3247867:0]        ib_iface.c:1059 UCX  ERROR ibv_create_cq(cqe=256) failed: Connection timed out
[1741000503.006415] [ohm:3247880:0]        ib_iface.c:1059 UCX  ERROR ibv_create_cq(cqe=256) failed: Connection timed out
[1741000503.006517] [ohm:3247876:0]        ib_iface.c:1059 UCX  ERROR ibv_create_cq(cqe=256) failed: Connection timed out
[1741000503.009011] [ohm:3247878:0]        ib_iface.c:1059 UCX  ERROR ibv_create_cq(cqe=256) failed: Connection timed out
[1741000503.009365] [ohm:3247873:0]        ib_iface.c:1059 UCX  ERROR ibv_create_cq(cqe=256) failed: Connection timed out
[1741000503.011340] [ohm:3247872:0]        ib_iface.c:1059 UCX  ERROR ibv_create_cq(cqe=256) failed: Connection timed out
[1741000503.011593] [ohm:3247874:0]        ib_iface.c:1059 UCX  ERROR ibv_create_cq(cqe=256) failed: Connection timed out
[1741000503.025241] [ohm:3247884:0]        ib_iface.c:1059 UCX  ERROR ibv_create_cq(cqe=256) failed: Connection timed out
[1741000503.028701] [ohm:3247889:0]        ib_iface.c:1059 UCX  ERROR ibv_create_cq(cqe=256) failed: Connection timed out
[1741000503.033034] [ohm:3247892:0]        ib_iface.c:1059 UCX  ERROR ibv_create_cq(cqe=256) failed: Connection timed out
[1741000503.039119] [ohm:3247897:0]        ib_iface.c:1059 UCX  ERROR ibv_create_cq(cqe=256) failed: Connection timed out


           ************************************************************
           *        Program running with 16 parallel MPI-processes    *
           *              working on a common directory               *
           ************************************************************

-------------------------------------------------------------------------------------------
                                      ORCA LEAN-SCF
                              memory conserving SCF solver
-------------------------------------------------------------------------------------------

----------------------------------------D-I-I-S--------------------------------------------
Iteration    Energy (Eh)           Delta-E    RMSDP     MaxDP     DIISErr   Damp  Time(sec)
-------------------------------------------------------------------------------------------
               ***  Starting incremental Fock matrix formation  ***
    1    -153.6945343353342821     0.00e+00  9.66e-04  2.62e-02  7.98e-02  0.700   0.4
    2    -153.7270682016546175    -3.25e-02  8.82e-04  2.46e-02  4.84e-02  0.700   0.3
                               ***Turning on AO-DIIS***
    3    -153.7444830506165090    -1.74e-02  6.84e-04  2.17e-02  2.53e-02  0.700   0.3
    4    -153.7550422210913155    -1.06e-02  1.63e-03  5.06e-02  1.85e-02  0.000   0.3
    5    -153.7788136118417981    -2.38e-02  1.24e-04  4.47e-03  4.91e-03  0.000   0.3
                              *** Initializing SOSCF ***
---------------------------------------S-O-S-C-F--------------------------------------
Iteration    Energy (Eh)           Delta-E    RMSDP     MaxDP     MaxGrad    Time(sec)
--------------------------------------------------------------------------------------
    6    -153.7792201520640560    -4.07e-04  8.12e-05  2.17e-03  3.09e-03     0.3
               *** Restarting incremental Fock matrix formation ***
    7    -153.7794437430842720    -2.24e-04  6.74e-05  1.68e-03  4.17e-03     0.4
    8    -153.7795477919573273    -1.04e-04  9.44e-05  2.21e-03  1.74e-03     0.3
    9    -153.7796300287344025    -8.22e-05  2.34e-05  7.94e-04  2.83e-04     0.3
   10    -153.7796318411861307    -1.81e-06  1.74e-05  6.29e-04  1.11e-04     0.3
   11    -153.7796322858314966    -4.45e-07  4.08e-06  1.45e-04  4.45e-05     0.3
   12    -153.7796323474283042    -6.16e-08  1.73e-06  1.17e-04  1.43e-05     0.3
   13    -153.7796323577306907    -1.03e-08  6.03e-07  1.59e-05  5.80e-06     0.3
   14    -153.7796323593368584    -1.61e-09  5.82e-07  5.11e-05  3.37e-06     0.3
                 **** Energy Check signals convergence ****

               *****************************************************
               *                     SUCCESS                       *
               *           SCF CONVERGED AFTER  14 CYCLES          *
               *****************************************************

Recomputing exchange energy using gridx3       ... done (    0.415 sec)
Old exchange energy                            :     -6.202518443 Eh
New exchange energy                            :     -6.202521477 Eh
Exchange energy change after final integration :     -0.000003034 Eh
Total energy after final integration           :   -153.779635393 Eh
             **** ENERGY FILE WAS UPDATED (orca.en.tmp) ****

----------------
TOTAL SCF ENERGY
----------------

Total Energy       :       -153.77963539334777 Eh           -4184.55662 eV

Components:
Nuclear Repulsion  :         69.57679817449522 Eh            1893.28093 eV
Electronic Energy  :       -223.35643053383208 Eh           -6077.83747 eV
One Electron Energy:       -345.45925824312036 Eh           -9400.42433 eV
Two Electron Energy:        122.10282770928828 Eh            3322.58686 eV

Virial components:
Potential Energy   :       -307.37454776718266 Eh           -8364.08667 eV
Kinetic Energy     :        153.59491237383492 Eh            4179.53005 eV
Virial Ratio       :          2.00120266366026

DFT components:
N(Alpha)           :       13.000006415674 electrons
N(Beta)            :       11.000002191428 electrons
N(Total)           :       24.000008607102 electrons
E(XC)              :      -14.755423372592 Eh       

---------------
SCF CONVERGENCE
---------------

  Last Energy change         ...    1.6062e-09  Tolerance :   1.0000e-08
  Last MAX-Density change    ...    5.1088e-05  Tolerance :   1.0000e-07
  Last RMS-Density change    ...    5.8223e-07  Tolerance :   5.0000e-09
  Last DIIS Error            ...    3.0885e-03  Tolerance :   5.0000e-07
  Last Orbital Gradient      ...    3.3684e-06  Tolerance :   1.0000e-05
  Last Orbital Rotation      ...    1.1058e-05  Tolerance :   1.0000e-05


----------------------
UHF SPIN CONTAMINATION
----------------------

Warning: in a DFT calculation there is little theoretical justification to 
         calculate <S**2> as in Hartree-Fock theory. We will do it anyways
         but you should keep in mind that the values have only limited relevance

Expectation value of <S**2>     :     2.006007
Ideal value S*(S+1) for S=1.0   :     2.000000
Deviation                       :     0.006007

----------------
ORBITAL ENERGIES
----------------
                 SPIN UP ORBITALS
  NO   OCC          E(Eh)            E(eV) 
   0   1.0000     -19.407206      -528.0969 
   1   1.0000     -10.380018      -282.4546 
   2   1.0000     -10.369190      -282.1600 
   3   1.0000      -1.243991       -33.8507 
   4   1.0000      -0.886702       -24.1284 
   5   1.0000      -0.716287       -19.4912 
   6   1.0000      -0.631230       -17.1767 
   7   1.0000      -0.589017       -16.0280 
   8   1.0000      -0.581039       -15.8109 
   9   1.0000      -0.516575       -14.0567 
  10   1.0000      -0.515823       -14.0363 
  11   1.0000      -0.427807       -11.6412 
  12   1.0000      -0.218110        -5.9351 
  13   0.0000       0.038978         1.0606 
  14   0.0000       0.059936         1.6310 
  15   0.0000       0.077841         2.1181 
  16   0.0000       0.087579         2.3832 
  17   0.0000       0.106816         2.9066 
  18   0.0000       0.128209         3.4887 
  19   0.0000       0.129013         3.5106 
  20   0.0000       0.133134         3.6228 
  21   0.0000       0.169590         4.6148 
  22   0.0000       0.183642         4.9972 
  23   0.0000       0.201443         5.4815 

                 SPIN DOWN ORBITALS
  NO   OCC          E(Eh)            E(eV) 
   0   1.0000     -19.379956      -527.3554 
   1   1.0000     -10.369772      -282.1759 
   2   1.0000     -10.367175      -282.1052 
   3   1.0000      -1.187425       -32.3115 
   4   1.0000      -0.867671       -23.6105 
   5   1.0000      -0.670706       -18.2508 
   6   1.0000      -0.585494       -15.9321 
   7   1.0000      -0.541533       -14.7359 
   8   1.0000      -0.535801       -14.5799 
   9   1.0000      -0.498127       -13.5547 
  10   1.0000      -0.471582       -12.8324 
  11   0.0000      -0.082767        -2.2522 
  12   0.0000       0.039841         1.0841 
  13   0.0000       0.059601         1.6218 
  14   0.0000       0.077496         2.1088 
  15   0.0000       0.084756         2.3063 
  16   0.0000       0.094235         2.5643 
  17   0.0000       0.107405         2.9226 
  18   0.0000       0.128137         3.4868 
  19   0.0000       0.128802         3.5049 
  20   0.0000       0.133735         3.6391 
  21   0.0000       0.169688         4.6174 
*Only the first 10 virtual orbitals were printed.

                    ********************************
                    * MULLIKEN POPULATION ANALYSIS *
                    ********************************

--------------------------------------------
MULLIKEN ATOMIC CHARGES AND SPIN POPULATIONS
--------------------------------------------
   0 O :   -0.321249    0.946343
   1 C :    0.005873    0.771509
   2 C :   -0.586040    0.112751
   3 H :    0.220954    0.101716
   4 H :    0.212958    0.030435
   5 H :    0.254788    0.006921
   6 H :    0.212716    0.030324
Sum of atomic charges         :    0.0000000
Sum of atomic spin populations:    2.0000000

-----------------------------------------------------
MULLIKEN REDUCED ORBITAL CHARGES AND SPIN POPULATIONS
-----------------------------------------------------
CHARGE
  0 O s       :     4.019097  s :     4.019097
      pz      :     1.465688  p :     4.246380
      px      :     1.389941
      py      :     1.390751
      dz2     :     0.004245  d :     0.053813
      dxz     :     0.002083
      dyz     :     0.019286
      dx2y2   :     0.011550
      dxy     :     0.016650
      f0      :     0.000231  f :     0.001959
      f+1     :     0.000046
      f-1     :     0.000298
      f+2     :     0.000362
      f-2     :     0.000103
      f+3     :     0.000521
      f-3     :     0.000399

  1 C s       :     3.275592  s :     3.275592
      pz      :     1.018412  p :     2.610962
      px      :     0.944865
      py      :     0.647685
      dz2     :     0.008744  d :     0.091715
      dxz     :     0.000061
      dyz     :     0.044937
      dx2y2   :    -0.001629
      dxy     :     0.039603
      f0      :     0.001804  f :     0.015859
      f+1     :     0.000745
      f-1     :     0.002220
      f+2     :     0.002532
      f-2     :     0.001400
      f+3     :     0.004092
      f-3     :     0.003066

  2 C s       :     3.336772  s :     3.336772
      pz      :     1.139133  p :     3.167280
      px      :     1.003322
      py      :     1.024825
      dz2     :    -0.007958  d :     0.079331
      dxz     :     0.020191
      dyz     :     0.037583
      dx2y2   :     0.008349
      dxy     :     0.021166
      f0      :     0.000115  f :     0.002657
      f+1     :     0.000426
      f-1     :     0.000268
      f+2     :     0.000152
      f-2     :     0.000840
      f+3     :     0.000392
      f-3     :     0.000464

  3 H s       :     0.727690  s :     0.727690
      pz      :     0.019626  p :     0.048356
      px      :     0.015353
      py      :     0.013377
      dz2     :     0.000806  d :     0.003000
      dxz     :     0.000496
      dyz     :     0.000616
      dx2y2   :     0.000623
      dxy     :     0.000458

  4 H s       :     0.732967  s :     0.732967
      pz      :     0.015219  p :     0.051885
      px      :     0.007901
      py      :     0.028766
      dz2     :     0.000311  d :     0.002189
      dxz     :     0.000323
      dyz     :     0.000430
      dx2y2   :     0.000586
      dxy     :     0.000539

  5 H s       :     0.706570  s :     0.706570
      pz      :     0.018007  p :     0.036481
      px      :     0.016607
      py      :     0.001866
      dz2     :     0.000532  d :     0.002160
      dxz     :     0.000450
      dyz     :     0.000406
      dx2y2   :     0.000382
      dxy     :     0.000391

  6 H s       :     0.733209  s :     0.733209
      pz      :     0.012621  p :     0.051887
      px      :     0.016368
      py      :     0.022898
      dz2     :     0.000659  d :     0.002189
      dxz     :     0.000481
      dyz     :     0.000485
      dx2y2   :     0.000241
      dxy     :     0.000322


SPIN
  0 O s       :    -0.001082  s :    -0.001082
      pz      :     0.422637  p :     0.937372
      px      :     0.491782
      py      :     0.022953
      dz2     :     0.000821  d :     0.010212
      dxz     :     0.000767
      dyz     :     0.004417
      dx2y2   :     0.002802
      dxy     :     0.001404
      f0      :     0.000017  f :    -0.000159
      f+1     :    -0.000001
      f-1     :    -0.000034
      f+2     :    -0.000021
      f-2     :     0.000004
      f+3     :    -0.000052
      f-3     :    -0.000072

  1 C s       :    -0.008762  s :    -0.008762
      pz      :     0.390563  p :     0.702429
      px      :     0.284172
      py      :     0.027694
      dz2     :     0.010341  d :     0.077166
      dxz     :     0.000260
      dyz     :     0.028434
      dx2y2   :     0.001746
      dxy     :     0.036385
      f0      :     0.000019  f :     0.000676
      f+1     :     0.000037
      f-1     :    -0.000080
      f+2     :     0.000432
      f-2     :    -0.000251
      f+3     :     0.000592
      f-3     :    -0.000072

  2 C s       :     0.066434  s :     0.066434
      pz      :    -0.008345  p :     0.031087
      px      :     0.017730
      py      :     0.021702
      dz2     :    -0.015754  d :     0.014229
      dxz     :    -0.000856
      dyz     :     0.018780
      dx2y2   :     0.002918
      dxy     :     0.009141
      f0      :     0.000031  f :     0.001001
      f+1     :     0.000305
      f-1     :     0.000174
      f+2     :     0.000067
      f-2     :     0.000111
      f+3     :     0.000105
      f-3     :     0.000209

  3 H s       :     0.070361  s :     0.070361
      pz      :     0.016715  p :     0.030435
      px      :     0.011687
      py      :     0.002034
      dz2     :     0.000606  d :     0.000920
      dxz     :    -0.000008
      dyz     :     0.000024
      dx2y2   :     0.000135
      dxy     :     0.000163

  4 H s       :     0.022752  s :     0.022752
      pz      :     0.001646  p :     0.007508
      px      :     0.002729
      py      :     0.003133
      dz2     :     0.000006  d :     0.000174
      dxz     :     0.000006
      dyz     :     0.000031
      dx2y2   :     0.000076
      dxy     :     0.000055

  5 H s       :     0.007257  s :     0.007257
      pz      :    -0.000813  p :    -0.000458
      px      :    -0.000620
      py      :     0.000974
      dz2     :     0.000015  d :     0.000122
      dxz     :     0.000027
      dyz     :     0.000025
      dx2y2   :     0.000040
      dxy     :     0.000016

  6 H s       :     0.022701  s :     0.022701
      pz      :    -0.000068  p :     0.007450
      px      :     0.005690
      py      :     0.001828
      dz2     :     0.000087  d :     0.000174
      dxz     :     0.000016
      dyz     :     0.000023
      dx2y2   :     0.000011
      dxy     :     0.000036



                     *******************************
                     * LOEWDIN POPULATION ANALYSIS *
                     *******************************

-------------------------------------------
LOEWDIN ATOMIC CHARGES AND SPIN POPULATIONS
-------------------------------------------
   0 O :    0.161504    0.948950
   1 C :   -0.289127    0.659254
   2 C :    0.143133    0.175616
   3 H :    0.033882    0.151794
   4 H :   -0.020067    0.030276
   5 H :   -0.009255    0.003873
   6 H :   -0.020070    0.030238

----------------------------------------------------
LOEWDIN REDUCED ORBITAL CHARGES AND SPIN POPULATIONS
----------------------------------------------------
CHARGE
  0 O s       :     3.378166  s :     3.378166
      pz      :     1.339306  p :     4.157502
      px      :     1.271336
      py      :     1.546860
      dz2     :     0.028138  d :     0.294594
      dxz     :     0.008079
      dyz     :     0.097157
      dx2y2   :     0.070280
      dxy     :     0.090940
      f0      :     0.000916  f :     0.008235
      f+1     :     0.000154
      f-1     :     0.001277
      f+2     :     0.001514
      f-2     :     0.000482
      f+3     :     0.002152
      f-3     :     0.001741

  1 C s       :     2.677691  s :     2.677691
      pz      :     0.871986  p :     2.643527
      px      :     0.878059
      py      :     0.893482
      dz2     :     0.098543  d :     0.862213
      dxz     :     0.087359
      dyz     :     0.210179
      dx2y2   :     0.237144
      dxy     :     0.228988
      f0      :     0.010955  f :     0.105695
      f+1     :     0.004351
      f-1     :     0.015361
      f+2     :     0.018000
      f-2     :     0.009190
      f+3     :     0.026990
      f-3     :     0.020848

  2 C s       :     2.643062  s :     2.643062
      pz      :     0.920898  p :     2.692156
      px      :     0.890937
      py      :     0.880321
      dz2     :     0.047626  d :     0.488391
      dxz     :     0.127889
      dyz     :     0.108360
      dx2y2   :     0.089869
      dxy     :     0.114647
      f0      :     0.003825  f :     0.033258
      f+1     :     0.005270
      f-1     :     0.004517
      f+2     :     0.002762
      f-2     :     0.005853
      f+3     :     0.005858
      f-3     :     0.005173

  3 H s       :     0.655711  s :     0.655711
      pz      :     0.110000  p :     0.280369
      px      :     0.100427
      py      :     0.069942
      dz2     :     0.008237  d :     0.030038
      dxz     :     0.006329
      dyz     :     0.005460
      dx2y2   :     0.004888
      dxy     :     0.005124

  4 H s       :     0.701688  s :     0.701688
      pz      :     0.088536  p :     0.288069
      px      :     0.088412
      py      :     0.111121
      dz2     :     0.004631  d :     0.030310
      dxz     :     0.004228
      dyz     :     0.006709
      dx2y2   :     0.007353
      dxy     :     0.007389

  5 H s       :     0.702112  s :     0.702112
      pz      :     0.100857  p :     0.277106
      px      :     0.094792
      py      :     0.081457
      dz2     :     0.007555  d :     0.030037
      dxz     :     0.007368
      dyz     :     0.005126
      dx2y2   :     0.004714
      dxy     :     0.005273

  6 H s       :     0.701696  s :     0.701696
      pz      :     0.109635  p :     0.288065
      px      :     0.093241
      py      :     0.085190
      dz2     :     0.008064  d :     0.030310
      dxz     :     0.007838
      dyz     :     0.007031
      dx2y2   :     0.003467
      dxy     :     0.003909


SPIN
  0 O s       :     0.009385  s :     0.009385
      pz      :     0.376371  p :     0.821521
      px      :     0.428460
      py      :     0.016690
      dz2     :     0.006835  d :     0.114880
      dxz     :     0.005373
      dyz     :     0.050400
      dx2y2   :     0.011898
      dxy     :     0.040375
      f0      :     0.000464  f :     0.003164
      f+1     :     0.000043
      f-1     :     0.000398
      f+2     :     0.000660
      f-2     :     0.000355
      f+3     :     0.000802
      f-3     :     0.000442

  1 C s       :     0.006248  s :     0.006248
      pz      :     0.237588  p :     0.433139
      px      :     0.174966
      py      :     0.020584
      dz2     :     0.019693  d :     0.190937
      dxz     :     0.003232
      dyz     :     0.069587
      dx2y2   :     0.001474
      dxy     :     0.096951
      f0      :     0.002417  f :     0.028930
      f+1     :     0.001749
      f-1     :     0.002249
      f+2     :     0.008295
      f-2     :     0.001969
      f+3     :     0.008581
      f-3     :     0.003669

  2 C s       :     0.008658  s :     0.008658
      pz      :     0.006449  p :     0.058350
      px      :     0.024198
      py      :     0.027704
      dz2     :     0.010026  d :     0.101467
      dxz     :     0.009532
      dyz     :     0.040024
      dx2y2   :     0.029335
      dxy     :     0.012551
      f0      :     0.000145  f :     0.007141
      f+1     :     0.002225
      f-1     :     0.001386
      f+2     :     0.000454
      f-2     :     0.000800
      f+3     :     0.000870
      f-3     :     0.001261

  3 H s       :     0.078907  s :     0.078907
      pz      :     0.036066  p :     0.065420
      px      :     0.025503
      py      :     0.003851
      dz2     :     0.005362  d :     0.007467
      dxz     :     0.000049
      dyz     :     0.000039
      dx2y2   :     0.000737
      dxy     :     0.001280

  4 H s       :     0.018985  s :     0.018985
      pz      :     0.001761  p :     0.010326
      px      :     0.001919
      py      :     0.006646
      dz2     :     0.000001  d :     0.000964
      dxz     :     0.000017
      dyz     :     0.000166
      dx2y2   :     0.000584
      dxy     :     0.000197

  5 H s       :     0.001190  s :     0.001190
      pz      :     0.000235  p :     0.001705
      px      :     0.000961
      py      :     0.000510
      dz2     :     0.000042  d :     0.000978
      dxz     :     0.000199
      dyz     :     0.000249
      dx2y2   :     0.000352
      dxy     :     0.000136

  6 H s       :     0.018958  s :     0.018958
      pz      :     0.000103  p :     0.010315
      px      :     0.005495
      py      :     0.004717
      dz2     :     0.000508  d :     0.000964
      dxz     :     0.000032
      dyz     :     0.000147
      dx2y2   :     0.000005
      dxy     :     0.000272



                      *****************************
                      * MAYER POPULATION ANALYSIS *
                      *****************************

  NA   - Mulliken gross atomic population
  ZA   - Total nuclear charge
  QA   - Mulliken gross atomic charge
  VA   - Mayer's total valence
  BVA  - Mayer's bonded valence
  FA   - Mayer's free valence

  ATOM       NA         ZA         QA         VA         BVA        FA
  0 O      8.3212     8.0000    -0.3212     2.0418     1.4431     0.5987
  1 C      5.9941     6.0000     0.0059     3.3346     2.7892     0.5454
  2 C      6.5860     6.0000    -0.5860     3.6101     3.5959     0.0143
  3 H      0.7790     1.0000     0.2210     0.9622     0.9534     0.0088
  4 H      0.7870     1.0000     0.2130     1.0283     1.0274     0.0009
  5 H      0.7452     1.0000     0.2548     0.9863     0.9862     0.0001
  6 H      0.7873     1.0000     0.2127     1.0286     1.0276     0.0009

  Mayer bond orders larger than 0.100000
B(  0-O ,  1-C ) :   1.3015 B(  1-C ,  2-C ) :   0.6221 B(  1-C ,  3-H ) :   0.9308 
B(  2-C ,  4-H ) :   1.0132 B(  2-C ,  5-H ) :   0.9253 B(  2-C ,  6-H ) :   1.0134 


-------
TIMINGS
-------

Total SCF time: 0 days 0 hours 0 min 5 sec 

Total time                  ....       5.254 sec
Sum of individual times     ....       5.236 sec  ( 99.7%)

SCF preparation             ....       0.407 sec  (  7.8%)
Fock matrix formation       ....       4.312 sec  ( 82.1%)
  Startup                   ....       0.031 sec  (  0.7% of F)
  Split-RI-J                ....       0.193 sec  (  4.5% of F)
  Chain of spheres X        ....       2.781 sec  ( 64.5% of F)
  XC integration            ....       1.213 sec  ( 28.1% of F)
    XC Preparation          ....       0.000 sec  (  0.0% of XC)
    Basis function eval.    ....       0.091 sec  (  7.5% of XC)
    Density eval.           ....       0.381 sec  ( 31.5% of XC)
    XC-Functional eval.     ....       0.035 sec  (  2.9% of XC)
    XC-Potential eval.      ....       0.636 sec  ( 52.4% of XC)
Diagonalization             ....       0.000 sec  (  0.0%)
Density matrix formation    ....       0.067 sec  (  1.3%)
Total Energy calculation    ....       0.043 sec  (  0.8%)
Population analysis         ....       0.020 sec  (  0.4%)
Orbital Transformation      ....       0.041 sec  (  0.8%)
Orbital Orthonormalization  ....       0.000 sec  (  0.0%)
DIIS solution               ....       0.215 sec  (  4.1%)
SOSCF solution              ....       0.129 sec  (  2.5%)
Finished LeanSCF after   5.3 sec

Maximum memory used throughout the entire LEANSCF-calculation: 14.7 MB
[1741000508.540493] [ohm:3247969:0]        ib_iface.c:1059 UCX  ERROR ibv_create_cq(cqe=256) failed: Connection timed out
[1741000508.540564] [ohm:3247967:0]        ib_iface.c:1059 UCX  ERROR ibv_create_cq(cqe=256) failed: Connection timed out
[1741000508.540648] [ohm:3247965:0]        ib_iface.c:1059 UCX  ERROR ibv_create_cq(cqe=256) failed: Connection timed out
[1741000508.551990] [ohm:3247972:0]        ib_iface.c:1059 UCX  ERROR ibv_create_cq(cqe=256) failed: Connection timed out
[1741000508.551993] [ohm:3247964:0]        ib_iface.c:1059 UCX  ERROR ibv_create_cq(cqe=256) failed: Connection timed out
[1741000508.553476] [ohm:3247971:0]        ib_iface.c:1059 UCX  ERROR ibv_create_cq(cqe=256) failed: Connection timed out
[1741000508.558442] [ohm:3247974:0]        ib_iface.c:1059 UCX  ERROR ibv_create_cq(cqe=256) failed: Connection timed out
[1741000508.558496] [ohm:3247966:0]        ib_iface.c:1059 UCX  ERROR ibv_create_cq(cqe=256) failed: Connection timed out
[1741000508.558659] [ohm:3247976:0]        ib_iface.c:1059 UCX  ERROR ibv_create_cq(cqe=256) failed: Connection timed out
[1741000508.558805] [ohm:3247970:0]        ib_iface.c:1059 UCX  ERROR ibv_create_cq(cqe=256) failed: Connection timed out
[1741000508.558882] [ohm:3247968:0]        ib_iface.c:1059 UCX  ERROR ibv_create_cq(cqe=256) failed: Connection timed out
[1741000508.559415] [ohm:3247978:0]        ib_iface.c:1059 UCX  ERROR ibv_create_cq(cqe=256) failed: Connection timed out
[1741000508.567045] [ohm:3247986:0]        ib_iface.c:1059 UCX  ERROR ibv_create_cq(cqe=256) failed: Connection timed out
[1741000508.568148] [ohm:3247992:0]        ib_iface.c:1059 UCX  ERROR ibv_create_cq(cqe=256) failed: Connection timed out
[1741000508.569894] [ohm:3247982:0]        ib_iface.c:1059 UCX  ERROR ibv_create_cq(cqe=256) failed: Connection timed out
[1741000508.569890] [ohm:3247989:0]        ib_iface.c:1059 UCX  ERROR ibv_create_cq(cqe=256) failed: Connection timed out


           ************************************************************
           *        Program running with 16 parallel MPI-processes    *
           *              working on a common directory               *
           ************************************************************

------------------------------------------------------------------------------
                         ORCA PROPERTY INTEGRAL CALCULATIONS
------------------------------------------------------------------------------

GBWName                                   ... orca.gbw
Number of atoms                           ...      7
Number of basis functions                 ...    182
Max core memory                           ...   1024 MB

Dipole integrals                          ... YES
Quadrupole integrals                      ...  NO
Linear momentum integrals                 ... YES
Angular momentum integrals                ... YES
Higher moments length integrals           ...  NO
Higher moments velocity integrals         ...  NO
Kinetic energy integrals                  ...  NO
GIAO right hand sides                     ...  NO
GIAO dipole derivative integrals          ...  NO
SOC integrals                             ...  NO
EPR diamagnetic integrals (GIAO)          ...  NO
EPR gauge integrals                       ...  NO
Field gradient integrals                  ...  NO (   0 nuclei)
Spin-dipole/Fermi contact integrals       ...  NO (   0 nuclei)
Contact density integrals                 ...  NO (   0 nuclei)
Nucleus-orbit integrals                   ...  NO (   0 nuclei)
Geometric perturbations                   ...  NO (   7 nuclei)

Choice of electric origin   ... Center of mass
Position of electric origin ... (  0.5269,  0.4735,  0.0444) 
Choice of magnetic origin   ... GIAO
Position of magnetic origin ... (  0.0000,  0.0000,  0.0000) 

Calculating integrals                     ... Electric Dipole (Length)     done (  0.0 sec)
Calculating integrals                     ... Linear Momentum              done (  0.0 sec)
Calculating integrals                     ... Angular Momentum  (ElOri)    done (  0.0 sec)

Property integrals calculated in   0.0 sec

Maximum memory used throughout the entire PROPINT-calculation: 10.3 MB
[1741000509.220999] [ohm:3248051:0]        ib_iface.c:1059 UCX  ERROR ibv_create_cq(cqe=256) failed: Connection timed out
[1741000509.243710] [ohm:3248050:0]        ib_iface.c:1059 UCX  ERROR ibv_create_cq(cqe=256) failed: Connection timed out
[1741000509.243776] [ohm:3248054:0]        ib_iface.c:1059 UCX  ERROR ibv_create_cq(cqe=256) failed: Connection timed out
[1741000509.245056] [ohm:3248052:0]        ib_iface.c:1059 UCX  ERROR ibv_create_cq(cqe=256) failed: Connection timed out
[1741000509.245974] [ohm:3248057:0]        ib_iface.c:1059 UCX  ERROR ibv_create_cq(cqe=256) failed: Connection timed out
[1741000509.245975] [ohm:3248053:0]        ib_iface.c:1059 UCX  ERROR ibv_create_cq(cqe=256) failed: Connection timed out
[1741000509.246134] [ohm:3248055:0]        ib_iface.c:1059 UCX  ERROR ibv_create_cq(cqe=256) failed: Connection timed out
[1741000509.250085] [ohm:3248056:0]        ib_iface.c:1059 UCX  ERROR ibv_create_cq(cqe=256) failed: Connection timed out
[1741000509.256491] [ohm:3248060:0]        ib_iface.c:1059 UCX  ERROR ibv_create_cq(cqe=256) failed: Connection timed out
[1741000509.262669] [ohm:3248063:0]        ib_iface.c:1059 UCX  ERROR ibv_create_cq(cqe=256) failed: Connection timed out
[1741000509.263405] [ohm:3248078:0]        ib_iface.c:1059 UCX  ERROR ibv_create_cq(cqe=256) failed: Connection timed out
[1741000509.263964] [ohm:3248071:0]        ib_iface.c:1059 UCX  ERROR ibv_create_cq(cqe=256) failed: Connection timed out
[1741000509.264408] [ohm:3248062:0]        ib_iface.c:1059 UCX  ERROR ibv_create_cq(cqe=256) failed: Connection timed out
[1741000509.264488] [ohm:3248058:0]        ib_iface.c:1059 UCX  ERROR ibv_create_cq(cqe=256) failed: Connection timed out
[1741000509.265960] [ohm:3248074:0]        ib_iface.c:1059 UCX  ERROR ibv_create_cq(cqe=256) failed: Connection timed out
[1741000509.266081] [ohm:3248067:0]        ib_iface.c:1059 UCX  ERROR ibv_create_cq(cqe=256) failed: Connection timed out


           ************************************************************
           *        Program running with 16 parallel MPI-processes    *
           *              working on a common directory               *
           ************************************************************
------------------------------------------------------------------------------
                        ORCA TD-DFT/TDA CALCULATION
------------------------------------------------------------------------------

Input orbitals are from        ... orca.gbw
CI-vector output               ... orca.cis
Solver                         ... FN-2001
Tamm-Dancoff approximation     ... operative
CIS-Integral strategy          ... AO-integrals
Integral handling              ... AO integral Direct
Max. core memory used          ... 512 MB
Reference state                ... UHF
Follow IRoot                   ... off
Number of operators            ... 2
Orbital ranges used for CIS calculation:
 Operator 0:  Orbitals   3... 12  to  11...181

-------------------
XC-INTEGRATION GRID
-------------------

General Integration Accuracy     IntAcc      ... 3.467
Radial Grid Type                 RadialGrid  ... OptM3 with GC (2021)
Angular Grid (max. ang.)         AngularGrid ... 1 (Lebedev-50)
Angular grid pruning method      GridPruning ... 4 (adaptive)
Weight generation scheme         WeightScheme... mBecke (2022)
Basis function cutoff            BFCut       ... 1.0000e-11
Integration weight cutoff        WCut        ... 1.0000e-14
Partially contracted basis set               ... off
Rotationally invariant grid construction     ... off
Angular grids for H and He will be reduced by one unit
Diffuse basis detected: some atoms will have their outermost
                        angular grid increased by 1.

Total number of grid points                  ...     4745
Total number of batches                      ...       78
Average number of points per batch           ...       60
Average number of grid points per atom       ...      678

---------------------
COSX-INTEGRATION GRID
---------------------

General Integration Accuracy     IntAcc      ... 3.067
Radial Grid Type                 RadialGrid  ... OptM3 with GC (2021)
Angular Grid (max. ang.)         AngularGrid ... 1 (Lebedev-50)
Angular grid pruning method      GridPruning ... 4 (adaptive)
Weight generation scheme         WeightScheme... mBecke (2022)
Basis function cutoff            BFCut       ... 1.0000e-11
Integration weight cutoff        WCut        ... 1.0000e-14
Partially contracted basis set               ... on
Rotationally invariant grid construction     ... off
Angular grids for H and He will be reduced by one unit
Diffuse basis detected: some atoms will have their outermost
                        angular grid increased by 1.

Total number of grid points                  ...     2159
Total number of batches                      ...       22
Average number of points per batch           ...       98
Average number of grid points per atom       ...      308

---------------
TD-DFT XC SETUP
---------------

DFT calculation                         ... on
Name of the grid file                   ... orca.grid_cis.tmp
RI-approximation                        ... on
Aux-basis dimension                     ... 0
Functional (TD-DFT)
  Functional kind                       .... Exchange-Correlation
  Functional name                       .... wB97M-V exchange-correlation functional
  Functional family                     .... Hybrid MGGA
  Functional refs                              
    [ 0] N. Mardirossian and M. Head-Gordon.,  J. Chem. Phys. 144, 214110 (2016), doi: 10.1063/1.4952647
  Fraction of HF Exchange (short range) .... 0.1500
  Fraction of HF Exchange (long range)  .... 1.0000
  Range separation parameter mu         .... 0.3000
  Functional external parameters        .... 17
    Parameter  0 _cx00      =  8.500000e-01 : u^00 coefficient for exchange
    Parameter  1 _cx01      =  1.007000e+00 : u^01 coefficient for exchange
    Parameter  2 _cx10      =  2.590000e-01 : u^10 coefficient for exchange
    Parameter  3 _css00     =  4.430000e-01 : u^00 coefficient for same-spin correlation
    Parameter  4 _css04     = -1.437000e+00 : u^04 coefficient for same-spin correlation
    Parameter  5 _css10     = -4.535000e+00 : u^10 coefficient for same-spin correlation
    Parameter  6 _css20     = -3.390000e+00 : u^20 coefficient for same-spin correlation
    Parameter  7 _css43     =  4.278000e+00 : u^43 coefficient for same-spin correlation
    Parameter  8 _cos00     =  1.000000e+00 : u^00 coefficient for opposite-spin correlation
    Parameter  9 _cos10     =  1.358000e+00 : u^10 coefficient for opposite-spin correlation
    Parameter 10 _cos20     =  2.924000e+00 : u^20 coefficient for opposite-spin correlation
    Parameter 11 _cos21     = -8.812000e+00 : u^21 coefficient for opposite-spin correlation
    Parameter 12 _cos60     = -1.390000e+00 : u^60 coefficient for opposite-spin correlation
    Parameter 13 _cos61     =  9.142000e+00 : u^61 coefficient for opposite-spin correlation
    Parameter 14 _alpha     =  1.000000e+00 : fraction of HF exchange
    Parameter 15 _beta      = -8.500000e-01 : fraction of short-range exchange
    Parameter 16 _omega     =  3.000000e-01 : range-separation constant
Hybrid DFT                              ... on
   Exchange mixing (TD-DFT)             ...  0.150
   GGA exch. scaling (TD-DFT)           ...  0.000
   GGA corr. scaling (TD-DFT)           ...  1.000
Range-Separated Exchange                ... on
   Range Range separation parameter mu  .... 0.300
   Max. amount of RS exchange (TD-DFT)  ...  0.850

Building densities             ... done
Calculating rho(r) on the grid ... done
Building xc-kernel on the grid ... done
                    *** TD-DFT CALCULATION INITIALIZED ***

------------------------
DAVIDSON-DIAGONALIZATION
------------------------

Dimension of the eigenvalue problem            ...   1710
Number of roots to be determined               ...      2
Maximum size of the expansion space            ...     20
Maximum number of iterations                   ...    100
Convergence tolerance for the residual         ...    2.500e-07
Convergence tolerance for the energies         ...    2.500e-07
Orthogonality tolerance                        ...    1.000e-14
Level Shift                                    ...    0.000e+00
Constructing the preconditioner                ... o.k.
Building the initial guess                     ... o.k.
Number of trial vectors determined             ...     20


                       ****Iteration    0****
   Time for iteration     :  TOTAL=0.2 TRAFO=0.0 COSX=0.2
   Size of expansion space: 6
   Lowest Energy          :    -0.133489637641
   Maximum Energy change  :     0.133489637641 (vector 0)
   Maximum residual norm  :     0.004445407252

                       ****Iteration    1****
   Time for iteration     :  TOTAL=0.1 TRAFO=0.0 RIJ=0.0 COSX=0.1
   Size of expansion space: 8
   Lowest Energy          :    -0.136759124834
   Maximum Energy change  :     0.012630185730 (vector 1)
   Maximum residual norm  :     0.000475486327

                       ****Iteration    2****
   Time for iteration     :  TOTAL=0.1 TRAFO=0.0 COSX=0.1
   Size of expansion space: 10
   Lowest Energy          :    -0.136792288573
   Maximum Energy change  :     0.001171661721 (vector 1)
   Maximum residual norm  :     0.000040546199

                       ****Iteration    3****
   Time for iteration     :  TOTAL=0.1 TRAFO=0.0 RIJ=0.0 COSX=0.1
   Size of expansion space: 12
   Lowest Energy          :    -0.136792831874
   Maximum Energy change  :     0.000123600936 (vector 1)
   Maximum residual norm  :     0.000053542365

                       ****Iteration    4****
   Time for iteration     :  TOTAL=0.1 TRAFO=0.0 COSX=0.1
   Size of expansion space: 14
   Lowest Energy          :    -0.136792843580
   Maximum Energy change  :     0.016081944945 (vector 1)
   Maximum residual norm  :     0.007112653825

                       ****Iteration    5****
   Time for iteration     :  TOTAL=0.1 TRAFO=0.0 COSX=0.1
   Size of expansion space: 16
   Lowest Energy          :    -0.136792843794
   Maximum Energy change  :     0.006321585840 (vector 1)
   Maximum residual norm  :     0.000454566640

                       ****Iteration    6****
   Time for iteration     :  TOTAL=0.1 TRAFO=0.0 COSX=0.1
   Size of expansion space: 18
   Lowest Energy          :    -0.136792843797
   Maximum Energy change  :     0.000410532804 (vector 1)
   Maximum residual norm  :     0.000043069294

                       ****Iteration    7****
   Time for iteration     :  TOTAL=0.1 TRAFO=0.0 COSX=0.1
   Size of expansion space: 20
   Lowest Energy          :    -0.136792843797
   Maximum Energy change  :     0.000038054614 (vector 1)
   Maximum residual norm  :     0.000002392028
   Rebuilding the expansion space

                       ****Iteration    8****
   Time for iteration     :  TOTAL=0.2 TRAFO=0.0 COSX=0.1
   Size of expansion space: 4
   Lowest Energy          :    -0.136792690845
   Maximum Energy change  :     0.000000152953 (vector 0)

         *** CONVERGENCE OF ENERGIES REACHED ***

Storing the converged CI vectors               ... orca.cis3

                 *** DAVIDSON DONE ***

Total time for solving the CIS problem:     1.298sec

---------------------
SF-TDA EXCITED STATES
---------------------

the weight of the individual excitations are printed if larger than 1.0e-02

UHF/UKS reference: multiplicity estimated based on rounded <S**2> value, RELEVANCE IS LIMITED!

(SPIN-FLIP GROUND STATE)
STATE  1:  E=  -0.136793 au     -3.722 eV   -30022.5 cm**-1 <S**2> =   0.019937 Mult 1
    12a ->  11b  :     0.977945 (c=  0.98891076)

STATE  2:  E=   0.033171 au      0.903 eV     7280.1 cm**-1 <S**2> =   1.142821 Mult 3
    12a ->  15b  :     0.258167 (c= -0.50810112)
    12a ->  16b  :     0.678504 (c=  0.82371331)
    12a ->  18b  :     0.014242 (c= -0.11934019)
    12a ->  21b  :     0.011999 (c= -0.10954139)
    12a ->  26b  :     0.021081 (c=  0.14519388)


-----------------------------
TD-DFT/TDA-EXCITATION SPECTRA
-----------------------------

Center of mass = (  0.5269,  0.4735,  0.0444)
Generating CIS-Spin-flip transition densities           ... done

UHF/UKS reference: multiplicity estimated based on rounded <S**2> value, use it judiciously!

----------------------------------------------------------------------------------------------------
          SPIN FLIP ABSORPTION SPECTRUM VIA TRANSITION ELECTRIC DIPOLE MOMENTS    
----------------------------------------------------------------------------------------------------
     Transition      Energy     Energy  Wavelength fosc(D2)      D2        DX        DY        DZ   
                      (eV)      (cm-1)    (nm)                 (au**2)    (au)      (au)      (au)  
----------------------------------------------------------------------------------------------------
  1-3A  ->  2-3A    4.624936   37302.6   268.1   0.000244206   0.00216  -0.02907   0.01139   0.03436

----------------------------------------------------------------------------------------------------
          SPIN FLIP ABSORPTION SPECTRUM VIA TRANSITION VELOCITY DIPOLE MOMENTS    
----------------------------------------------------------------------------------------------------
     Transition      Energy     Energy  Wavelength fosc(P2)      P2        PX        PY        PZ   
[...]
      f+1     :     0.001164
      f-1     :     0.000186
      f+2     :     0.003286
      f-2     :    -0.000933
      f+3     :     0.005063
      f-3     :    -0.000796
  2 C s       :     0.011950  s :     0.011950
      pz      :     0.010493  p :     0.087408
      px      :     0.035268
      py      :     0.041647
      dz2     :    -0.012064  d :    -0.111043
      dxz     :    -0.007210
      dyz     :    -0.042751
      dx2y2   :    -0.034096
      dxy     :    -0.014922
      f0      :    -0.000025  f :    -0.007308
      f+1     :    -0.002240
      f-1     :    -0.001519
      f+2     :    -0.000399
      f-2     :    -0.000873
      f+3     :    -0.001001
      f-3     :    -0.001251
  3 H s       :     0.097417  s :     0.097417
      pz      :    -0.039587  p :    -0.074328
      px      :    -0.029206
      py      :    -0.005535
      dz2     :    -0.005176  d :    -0.008182
      dxz     :    -0.000304
      dyz     :    -0.000470
      dx2y2   :    -0.000862
      dxy     :    -0.001370
  4 H s       :    -0.020155  s :    -0.020155
      pz      :    -0.000949  p :    -0.003953
      px      :     0.000510
      py      :    -0.003514
      dz2     :     0.000066  d :     0.001301
      dxz     :     0.000069
      dyz     :     0.000253
      dx2y2   :     0.000877
      dxy     :     0.000037
  5 H s       :     0.001732  s :     0.001732
      pz      :     0.000553  p :     0.004658
      px      :     0.001992
      py      :     0.002113
      dz2     :     0.000065  d :     0.001290
      dxz     :     0.000291
      dyz     :     0.000281
      dx2y2   :     0.000561
      dxy     :     0.000092
  6 H s       :    -0.020147  s :    -0.020147
      pz      :     0.000680  p :    -0.003938
      px      :    -0.002916
      py      :    -0.001702
      dz2     :     0.000693  d :     0.001300
      dxz     :     0.000120
      dyz     :     0.000086
      dx2y2   :     0.000044
      dxy     :     0.000356


                      *****************************
                      * MAYER POPULATION ANALYSIS *
                      *****************************

  NA   - Mulliken gross atomic population
  ZA   - Total nuclear charge
  QA   - Mulliken gross atomic charge
  VA   - Mayer's total valence
  BVA  - Mayer's bonded valence
  FA   - Mayer's free valence

  ATOM       NA         ZA         QA         VA         BVA        FA
  0 O      8.2715     8.0000    -0.2715     2.0270     1.4384     0.5886
  1 C      5.7683     6.0000     0.2317     3.4077     2.8516     0.5561
  2 C      6.7092     6.0000    -0.7092     3.6713     3.6326     0.0387
  3 H      0.9130     1.0000     0.0870     1.0891     1.0614     0.0277
  4 H      0.7927     1.0000     0.2073     1.0508     1.0422     0.0086
  5 H      0.7512     1.0000     0.2488     0.9960     0.9950     0.0010
  6 H      0.7941     1.0000     0.2059     1.0521     1.0435     0.0086

  Mayer bond orders larger than 0.100000
B(  0-O ,  1-C ) :   1.2948 B(  1-C ,  2-C ) :   0.6124 B(  1-C ,  3-H ) :   0.9968 
B(  2-C ,  4-H ) :   1.0138 B(  2-C ,  5-H ) :   0.9280 B(  2-C ,  6-H ) :   1.0149 



-------
TIMINGS
-------

Total TD-DFT gradient time  ....        4.957 sec

Fock matrix formation       ....       1.060 sec  ( 21.4%)
  Coulomb formation         ....       0.817 sec  ( 77.1% of F)
  XC integration            ....       0.243 sec  ( 22.9% of F)
Z-vector equation           ....       1.287 sec  ( 26.0%)
Densities                   ....       0.000 sec  (  0.0%)
One electron gradient       ....       0.009 sec  (  0.2%)
RI-J Coulomb gradient       ....       0.095 sec  (  1.9%)
COSX gradient               ....       0.411 sec  (  8.3%)
XC gradient                 ....       1.862 sec  ( 37.6%)

Maximum memory used throughout the entire CIS-calculation: 35.8 MB
=> NOW LEAVING ORCA_CIS


-------------------------------------------------------------------------------
                          DFT DISPERSION CORRECTION                            
                                                                               
                              DFTD3 V3.1  Rev 1                                
                          USING Becke-Johnson damping                          
-------------------------------------------------------------------------------
The WB97M functional is recognized
Active option DFTDOPT                   ...         4   

molecular C6(AA) [au] = 395.078029 


            DFT-D V3
 parameters
 s6 scaling factor         :     1.0000 
 a1 scaling factor         :     0.5660 
 s8 scaling factor         :     0.3908 
 a2 scaling factor         :     3.1280 
 ad hoc parameters k1-k3   :    16.0000     1.3333    -4.0000 

 Edisp/kcal,au: -3.460624788481  -0.005514856050 
 E6   /kcal   :  -2.791254756 
 E8   /kcal   :  -0.669370032 
 % E8         :  19.342461929 

-------------------------   ----------------
Dispersion correction           -0.005514856
-------------------------   ----------------


-------------------------   --------------------
FINAL SINGLE POINT ENERGY      -153.751979651002
-------------------------   --------------------

[1741000516.283398] [ohm:3248157:0]        ib_iface.c:1059 UCX  ERROR ibv_create_cq(cqe=256) failed: Connection timed out
[1741000516.283638] [ohm:3248155:0]        ib_iface.c:1059 UCX  ERROR ibv_create_cq(cqe=256) failed: Connection timed out
[1741000516.287412] [ohm:3248159:0]        ib_iface.c:1059 UCX  ERROR ibv_create_cq(cqe=256) failed: Connection timed out
[1741000516.292369] [ohm:3248160:0]        ib_iface.c:1059 UCX  ERROR ibv_create_cq(cqe=256) failed: Connection timed out
[1741000516.301662] [ohm:3248161:0]        ib_iface.c:1059 UCX  ERROR ibv_create_cq(cqe=256) failed: Connection timed out
[1741000516.302714] [ohm:3248154:0]        ib_iface.c:1059 UCX  ERROR ibv_create_cq(cqe=256) failed: Connection timed out
[1741000516.303826] [ohm:3248164:0]        ib_iface.c:1059 UCX  ERROR ibv_create_cq(cqe=256) failed: Connection timed out
[1741000516.304068] [ohm:3248158:0]        ib_iface.c:1059 UCX  ERROR ibv_create_cq(cqe=256) failed: Connection timed out
[1741000516.304810] [ohm:3248156:0]        ib_iface.c:1059 UCX  ERROR ibv_create_cq(cqe=256) failed: Connection timed out
[1741000516.309071] [ohm:3248173:0]        ib_iface.c:1059 UCX  ERROR ibv_create_cq(cqe=256) failed: Connection timed out
[1741000516.309083] [ohm:3248182:0]        ib_iface.c:1059 UCX  ERROR ibv_create_cq(cqe=256) failed: Connection timed out
[1741000516.309154] [ohm:3248167:0]        ib_iface.c:1059 UCX  ERROR ibv_create_cq(cqe=256) failed: Connection timed out
[1741000516.311061] [ohm:3248162:0]        ib_iface.c:1059 UCX  ERROR ibv_create_cq(cqe=256) failed: Connection timed out
[1741000516.311375] [ohm:3248166:0]        ib_iface.c:1059 UCX  ERROR ibv_create_cq(cqe=256) failed: Connection timed out
[1741000516.313206] [ohm:3248169:0]        ib_iface.c:1059 UCX  ERROR ibv_create_cq(cqe=256) failed: Connection timed out
[1741000516.313203] [ohm:3248178:0]        ib_iface.c:1059 UCX  ERROR ibv_create_cq(cqe=256) failed: Connection timed out


           ************************************************************
           *        Program running with 16 parallel MPI-processes    *
           *              working on a common directory               *
           ************************************************************

------------------------------------------------------------------------------
                              ORCA PROPERTY CALCULATIONS
------------------------------------------------------------------------------

GBWName                                 ... orca.gbw
Number of atoms                         ...      7
Number of basis functions               ...    182
Max core memory                         ...   1024 MB

Electric properties:
Dipole moment                           ... YES
Quadrupole moment                       ...  NO
Static polarizability (Dipole/Dipole)   ...  NO
Static polarizability (Dipole/Quad.)    ...  NO
Static polarizability (Quad./Quad.)     ...  NO
Static polarizability (Velocity)        ...  NO

Atomic electric properties:
Dipole moment                           ...  NO
Quadrupole moment                       ...  NO
Static polarizability                   ...  NO

Choice of electric origin               ... Center of mass
Position of electric origin             ...     0.526899     0.473481     0.044381

General magnetic properties:
Magnetizability                         ...  NO

EPR properties:
g-Tensor (aka g-matrix)                 ...  NO
Zero-Field splitting spin-orbit         ...  NO
Zero-field splitting spin-spin          ...  NO
Hyperfine couplings                     ...  NO (   0 nuclei)
Quadrupole couplings                    ...  NO (   0 nuclei)
Contact density                         ...  NO (   0 nuclei)

NMR properties:
Chemical shifts                         ...  NO (   0 nuclei)
Spin-rotation constants                 ...  NO (   0 nuclei)
Spin-spin couplings                     ...  NO (   0 nuclei,    0 pairs)

Choice of magnetic origin               ... GIAO
Position of magnetic origin             ...     0.000000     0.000000     0.000000

Properties with geometric perturbations:
SCF Hessian                             ...  NO
IR spectrum                             ...  NO
VCD spectrum                            ...  NO
X-ray spectroscopy properties:
SCF XES/XAS/RIXS spectra                ...  NO


-------------
DIPOLE MOMENT
-------------

Method             : SCF
Type of density    : Electron Density
Multiplicity       :   3
Irrep              :   0
Energy             :  -153.7796353933477747 Eh
Relativity type    : 
Basis              : AO
                                X                 Y                 Z
Electronic contribution:      1.625676659       3.524507184       0.204976634
Nuclear contribution   :     -1.828348301      -4.187949329      -0.156286479
                        -----------------------------------------
Total Dipole Moment    :     -0.202671642      -0.663442144       0.048690156
                        -----------------------------------------
Magnitude (a.u.)       :      0.695414988
Magnitude (Debye)      :      1.767604424



--------------------
Rotational spectrum 
--------------------
 
Rotational constants in cm-1:             2.184772             0.319507             0.293807 
Rotational constants in MHz :         65497.827821          9578.590109          8808.126241 

Dipole components along the rotational axes: 
x,y,z [a.u.] :     0.662065     0.212770     0.000141 
x,y,z [Debye]:     1.682837     0.540820     0.000358 

 

-------------
DIPOLE MOMENT
-------------

Method             : TDA/CIS
Type of density    : Electron Density
Level              : Relaxed density
State              :   2
Multiplicity       :   3
Irrep              :   0
Energy             :     0.0000000000000000 Eh
Relativity type    : 
Basis              : AO
                                X                 Y                 Z
Electronic contribution:      1.587211969       3.569764135       0.157329076
Nuclear contribution   :     -1.828348301      -4.187949329      -0.156286479
                        -----------------------------------------
Total Dipole Moment    :     -0.241136331      -0.618185194       0.001042597
                        -----------------------------------------
Magnitude (a.u.)       :      0.663551619
Magnitude (Debye)      :      1.686614178



--------------------
Rotational spectrum 
--------------------
 
Rotational constants in cm-1:             2.184772             0.319507             0.293807 
Rotational constants in MHz :         65497.827821          9578.590109          8808.126241 

Dipole components along the rotational axes: 
x,y,z [a.u.] :     0.649099     0.137738     0.000188 
x,y,z [Debye]:     1.649877     0.350102     0.000478 

 

Dipole moment calculation done in   0.0 sec 

Maximum memory used throughout the entire PROP-calculation: 7.5 MB
[1741000516.947426] [ohm:3248239:0]        ib_iface.c:1059 UCX  ERROR ibv_create_cq(cqe=256) failed: Connection timed out
[1741000516.947442] [ohm:3248241:0]        ib_iface.c:1059 UCX  ERROR ibv_create_cq(cqe=256) failed: Connection timed out
[1741000516.954200] [ohm:3248243:0]        ib_iface.c:1059 UCX  ERROR ibv_create_cq(cqe=256) failed: Connection timed out
[1741000516.959094] [ohm:3248242:0]        ib_iface.c:1059 UCX  ERROR ibv_create_cq(cqe=256) failed: Connection timed out
[1741000516.959139] [ohm:3248240:0]        ib_iface.c:1059 UCX  ERROR ibv_create_cq(cqe=256) failed: Connection timed out
[1741000516.959143] [ohm:3248244:0]        ib_iface.c:1059 UCX  ERROR ibv_create_cq(cqe=256) failed: Connection timed out
[1741000516.959228] [ohm:3248238:0]        ib_iface.c:1059 UCX  ERROR ibv_create_cq(cqe=256) failed: Connection timed out
[1741000516.962166] [ohm:3248255:0]        ib_iface.c:1059 UCX  ERROR ibv_create_cq(cqe=256) failed: Connection timed out
[1741000516.964336] [ohm:3248246:0]        ib_iface.c:1059 UCX  ERROR ibv_create_cq(cqe=256) failed: Connection timed out
[1741000516.966198] [ohm:3248245:0]        ib_iface.c:1059 UCX  ERROR ibv_create_cq(cqe=256) failed: Connection timed out
[1741000516.966229] [ohm:3248248:0]        ib_iface.c:1059 UCX  ERROR ibv_create_cq(cqe=256) failed: Connection timed out
[1741000516.966809] [ohm:3248251:0]        ib_iface.c:1059 UCX  ERROR ibv_create_cq(cqe=256) failed: Connection timed out
[1741000516.966865] [ohm:3248260:0]        ib_iface.c:1059 UCX  ERROR ibv_create_cq(cqe=256) failed: Connection timed out
[1741000517.000699] [ohm:3248265:0]        ib_iface.c:1059 UCX  ERROR ibv_create_cq(cqe=256) failed: Connection timed out
[1741000517.000743] [ohm:3248271:0]        ib_iface.c:1059 UCX  ERROR ibv_create_cq(cqe=256) failed: Connection timed out
[1741000517.001633] [ohm:3248267:0]        ib_iface.c:1059 UCX  ERROR ibv_create_cq(cqe=256) failed: Connection timed out

--------------------------------
SUGGESTED CITATIONS FOR THIS RUN
--------------------------------

Below you find a list of papers that are relevant to this ORCA run
We neither can nor want to force you to cite these papers, but we appreciate if you do
You receive ORCA, which is the product of decades of hard work by many enthusiastic individuals, for free
The only thing we kindly ask in return is that you cite our papers,
We deeply appreciate it, if you show your appreciation for ORCA by not just citing the generic ORCA reference.

Please note that relegating all ORCA citations to the supporting information does *not* help us.
SI sections are not indexed - citations you put there will not count into any citation statistics
But we need these citations in order to attract the funding resources that allow us to do what we are doing

Therefore, if you are a happy ORCA user, please consider citing a few of the papers listed below in the main body of your paper

In addition to the list printed below, the program has created the file orca.bibtex that contains the list in bibtex format
You can import this file easily into all common literature databanks and citation aid programs


List of essential papers. We consider these as the minimum necessary citations

  1. Neese,F.
     Software update: the ORCA program system, version 5.0
     WIRES Comput. Molec. Sci., 2022 12(1)e1606
     doi.org/10.1002/wcms.1606

List of papers to cite with high priority. The work reported in these papers was absolutely
necessary for this run to complete.
Our perspective: the developers of density functionals and basis sets usually get cited in chemistry papers
Good! But without the algorithms to do something with them, the functionals or basis sets would not do anything.
Hence, in our opinion, the algorithm design and method developments papers are equally worthy of getting cited

  1. Neese,F.; Olbrich,G.
     Efficient use of the resolution of the identity approximation in time-dependent density functional calculations with hybrid density functionals
     Chem. Phys. Lett., 2002 362 170-178
     doi.org/10.1016/s0009-2614(02)01053-9
  2. Neese,F.
     An improvement of the resolution of the identity approximation for the formation of the Coulomb matrix
     J. Comp. Chem., 2003 24(14)1740-1747
     doi.org/10.1002/jcc.10318
  3. Neese,F.; Wennmohs,F.; Hansen,A.; Becker,U.
     Efficient, approximate and parallel Hartree-Fock and hybrid DFT calculations. A 'chain-of-spheres' algorithm for the Hartree-Fock exchange
     Chem. Phys., 2009 356(1-3)98-109
     doi.org/10.1016/j.chemphys.2008.10.036
  4. Petrenko,T.; Kossmann,S.; Neese,F.
     Efficient time-dependent density functional theory approximations for hybrid density functionals: Analytical gradients and parallelization
     J. Chem. Phys., 2011 134 054116
     doi.org/10.1063/1.3533441
  5. Helmich-Paris,B.; de Souza,B.; Neese,F.; Izsák,R.
     An improved chain of spheres for exchange algorithm
     J. Chem. Phys., 2021 155 104109
     doi.org/doi: 10.1063/5.0058766.
  6. Neese,F.
     The SHARK Integral Generation and Digestion System
     J. Comp. Chem., 2022  1-16
     doi.org/10.1002/jcc.26942
  7. Lehtola,S.; Steigemann,C.; Oliveira,M.; Marques,M.
     Recent developments in Libxc - A comprehensive library of functionals for density functional theory
     Software X, 2018 7 
     doi.org/10.1016/j.softx.2017.11.002
  8. Grimme,S.; Antony,J.; Ehrlich,S.; Krieg,H.
     A consistent and accurate ab initio parametrization of density functional dispersion correction (DFT-D) for the 94 elements H-Pu
     J. Chem. Phys., 2010 132 154104-XXXX
     doi.org/10.1063/1.3382344
  9. Grimme,S.; Ehrlich,S.; Goerigk,L.
     Effect of the damping function in dispersion corrected density functional theory
     J. Comput. Chem., 2011 32(7)1456-1465
     doi.org/10.1002/jcc.21759

List of suggested additional citations. These are papers that are important in the 'surrounding' of 
of this run, or papers that preceded the highly important papers. If you like your results we are grateful for a citation.

  1. Izsak,R.; Neese,F.
     An overlap fitted chain of spheres exchange method
     J. Chem. Phys., 2011 135 144105
     doi.org/10.1063/1.3646921
  2. Izsak,R.; Hansen,A.; Neese,F.
     The resolution of identity and chain of spheres approximations for the LPNO-CCSD singles Fock term
     Molec. Phys., 2012 110 2413-2417
     doi.org/10.1080/00268976.2012.687466
  3. Neese,F.
     The ORCA program system
     WIRES Comput. Molec. Sci., 2012 2(1)73-78
     doi.org/10.1002/wcms.81
  4. Izsak,R.; Neese,F.; Klopper,W.
     Robust fitting techniques in the chain of spheres approximation to the Fock exchange: The role of the complementary space
     J. Chem. Phys., 2013 139 
     doi.org/10.1063/1.4819264
  5. Neese,F.
     Software update: the ORCA program system, version 4.0
     WIRES Comput. Molec. Sci., 2018 8(1)1-6
     doi.org/10.1002/wcms.1327
  6. Neese,F.; Wennmohs,F.; Becker,U.; Riplinger,C.
     The ORCA quantum chemistry program package
     J. Chem. Phys., 2020 152 Art. No. L224108
     doi.org/10.1063/5.0004608

List of optional additional citations

  1. Neese,F.
     Approximate second-order SCF convergence for spin unrestricted wavefunctions
     Chem. Phys. Lett., 2000 325(1-3)93-98
     doi.org/10.1016/s0009-2614(00)00662-x

Timings for individual modules:

Sum of individual times          ...       15.652 sec (=   0.261 min)
Startup calculation              ...        0.974 sec (=   0.016 min)   6.2 %
SCF iterations                   ...        6.315 sec (=   0.105 min)  40.3 %
Property integrals               ...        0.677 sec (=   0.011 min)   4.3 %
Property calculations            ...        0.667 sec (=   0.011 min)   4.3 %
CIS module                       ...        7.019 sec (=   0.117 min)  44.8 %
                             ****ORCA TERMINATED NORMALLY****
TOTAL RUN TIME: 0 days 0 hours 0 minutes 16 seconds 379 msec
