30
Properties=species:S:1:pos:R:3:momenta:R:3:forces:R:3 Coordinates=T from=T ORCA-job=T orca=T E=T -908.755158719449=T energy=-24729.126779121918 free_energy=-24729.126779121918 stress="1.0764202280704567e-06 -1.3589077971590746e-07 3.543289776805049e-07 -1.3589077971590746e-07 6.788858534595215e-08 -5.33903495745181e-07 3.543289776805049e-07 -5.33903495745181e-07 -4.190584074928607e-07" pbc="F F F"
O        4.16140687      -0.24439096       1.11629704      -0.04410603       0.09907203      -0.23623124      -0.41795629      -0.08836755      -0.02792071
O       -2.17559418       1.91087171      -2.09620522      -0.11742722       0.14565942      -0.25432968       0.11938113      -0.11052585       0.33135889
O        1.33531456      -2.87190838      -1.19692375       0.11862078      -0.05180362      -0.29075177      -0.09039384       0.31301215       0.20408892
O       -3.60731851      -1.57838268       0.39389843       0.31034146      -0.08136740       0.33101722      -0.15804613      -0.07887247      -0.01569139
N        0.45210873      -0.99207904      -0.22713689       0.03328308      -0.06514244       0.18595932       0.71414027      -0.13529947       0.06588610
N       -1.93668761      -0.30906207       1.24353882       0.24105007       0.19315947      -0.04231932       0.02206134       0.01307542       0.30656952
N        2.59978748      -1.70754287       0.29445581      -0.40317191      -0.45752168       0.10243916       0.18703313       0.03052651       0.13175291
N       -2.66398681       0.02142424      -0.92654586       0.07622463       0.04587633      -0.00874105       0.04220366       0.08302751      -0.07573855
C        1.88214829       0.43364992       1.05598331      -0.40852343      -0.25572607      -0.25669068      -0.62715377      -0.36479830       0.05888658
C       -1.11982041       1.60183653      -0.00883856      -0.12313559      -0.17218596       0.00276671       0.41421352      -0.04901276       0.56004081
C        0.51513046      -0.21387716       0.99466489       0.21502736      -0.25336225      -0.11437155      -0.44915803       0.40622124      -0.09345427
C       -0.84031346       0.63049268       1.11057072       0.34580205      -0.07522978       0.18961899       0.86698601       0.07196657      -0.09584830
C        2.13610113       1.84169145       1.32431238      -0.01297119       0.14975716       0.05003494       0.84182568       0.07644678       0.63260023
C       -0.56427100       2.97299779       0.03027678      -0.02589728       0.38198369       0.06317161      -0.45027897       0.02997099      -0.18880187
C        2.98639550      -0.48758776       0.85840174      -0.40226897       0.15956497       0.08460935      -0.04334074       0.30376839      -0.32953532
C       -1.99214711       1.23724446      -1.09258621       0.02753163       0.02439727      -0.15547057      -0.33893324      -0.18342842      -0.30243050
C        1.42959350      -1.92590253      -0.43860453       0.07802742       0.02630810       0.05715795       0.31482150      -0.46499010      -0.29564161
C       -2.80627183      -0.68831360       0.26118703      -0.24080955       0.26745913       0.04816794       0.24006282       0.12717853      -0.05480028
H        0.47561276      -0.90159780       1.85989763      -0.05191008       0.07806464       0.11426393      -0.11293349       0.15080574      -0.02202720
H       -0.74620195       1.21321812       2.03605413       0.04996523      -0.02143013      -0.02304714      -0.09831905      -0.15519127      -0.13539964
H        3.18054800       2.00477218       1.64256799       0.00452026      -0.05794816       0.05292275      -0.41635633      -0.17895392      -0.04348832
H        1.99557900       2.43838873       0.44707189       0.22939239      -0.07558954       0.04219712       0.05253900       0.18952566      -0.49538398
H        1.45132423       2.24202111       2.05307391       0.06780679      -0.03360284      -0.01169616      -0.16690233       0.15254415       0.31192239
H       -0.53239923       3.35769089       1.03538154       0.01660391      -0.02821648       0.02001425      -0.12955605       0.09273071       0.38064074
H        0.44546603       3.01849408      -0.30945894      -0.03930454       0.01627006      -0.04404073       0.44533033      -0.05393630      -0.41816426
H       -1.13597036       3.63967319      -0.60634342      -0.06960276       0.02751828       0.08329914      -0.09385117      -0.03774616      -0.02269069
H       -0.42570939      -1.26317005      -0.59939214       0.03032028      -0.02619654      -0.06765837      -0.50120321      -0.12360146      -0.12789794
H       -2.01119448      -0.86124229       2.08513144       0.01358370      -0.02851093       0.04964181       0.03056185       0.08993675      -0.10906129
H        3.36931130      -2.32756241       0.08941519       0.08881658       0.01199943       0.03348813      -0.13831888      -0.05697451      -0.04723638
H       -3.33295357      -0.20718149      -1.64021340      -0.00778908       0.05674384      -0.00542206      -0.05845872      -0.04903857      -0.08253458
