
                                 *****************
                                 * O   R   C   A *
                                 *****************

                                            #,                                       
                                            ###                                      
                                            ####                                     
                                            #####                                    
                                            ######                                   
                                           ########,                                 
                                     ,,################,,,,,                         
                               ,,#################################,,                 
                          ,,##########################################,,             
                       ,#########################################, ''#####,          
                    ,#############################################,,   '####,        
                  ,##################################################,,,,####,       
                ,###########''''           ''''###############################       
              ,#####''   ,,,,##########,,,,          '''####'''          '####       
            ,##' ,,,,###########################,,,                        '##       
           ' ,,###''''                  '''############,,,                           
         ,,##''                                '''############,,,,        ,,,,,,###''
      ,#''                                            '''#######################'''  
     '                                                          ''''####''''         
             ,#######,   #######,   ,#######,      ##                                
            ,#'     '#,  ##    ##  ,#'     '#,    #''#        ,####,   ,####,        
            ##       ##  ##   ,#'  ##            #'  '#       #'       #'  '#        
            ##       ##  #######   ##           ,######,      #####,   #    #        
            '#,     ,#'  ##    ##  '#,     ,#' ,#      #,     #,   #   #,  ,#        
             '#######'   ##     ##  '#######'  #'      '#     '####' # '####'        



                #########################################################
                #                        -***-                          #
                #          Department of theory and spectroscopy        #
                #                                                       #
                #                      Frank Neese                      #
                #                                                       #
                #     Directorship, Architecture, Infrastructure        #
                #                    SHARK, DRIVERS                     #
                #        Core code/Algorithms in most modules           #
                #                                                       #
                #        Max Planck Institute fuer Kohlenforschung      #
                #                Kaiser Wilhelm Platz 1                 #
                #                 D-45470 Muelheim/Ruhr                 #
                #                      Germany                          #
                #                                                       #
                #                  All rights reserved                  #
                #                        -***-                          #
                #########################################################


                         Program Version 6.0.0  -   RELEASE  -


 With contributions from (in alphabetic order):
   Daniel Aravena         : Magnetic Suceptibility
   Michael Atanasov       : Ab Initio Ligand Field Theory (pilot matlab implementation)
   Alexander A. Auer      : GIAO ZORA, VPT2 properties, NMR spectrum
   Ute Becker             : All parallelization in ORCA, NUMFREQ, NUMCALC
   Giovanni Bistoni       : ED, misc. LED, open-shell LED, HFLD
   Martin Brehm           : Molecular dynamics
   Dmytro Bykov           : pre 5.0 version of the SCF Hessian
   Marcos Casanova-Páez   : Triplet and SCS-CIS(D). UHF-(DLPNO)-IP/EA/STEOM-CCSD. UHF-CVS-IP/STEOM-CCSD
   Vijay G. Chilkuri      : MRCI spin determinant printing, contributions to CSF-ICE
   Pauline Colinet        : FMM embedding
   Dipayan Datta          : RHF DLPNO-CCSD density
   Achintya Kumar Dutta   : EOM-CC, STEOM-CC
   Nicolas Foglia         : Exact transition moments, OPA infrastructure, MCD improvements
   Dmitry Ganyushin       : Spin-Orbit,Spin-Spin,Magnetic field MRCI
   Miquel Garcia          : C-PCM and meta-GGA Hessian, CCSD/C-PCM, Gaussian charge scheme
   Tiago L. C. Gouveia    : GS-ROHF, GS-ROCIS
   Yang Guo               : DLPNO-NEVPT2, F12-NEVPT2, CIM, IAO-localization
   Andreas Hansen         : Spin unrestricted coupled pair/coupled cluster methods
   Ingolf Harden          : AUTO-CI MPn and infrastructure 
   Benjamin Helmich-Paris : MC-RPA, TRAH-(SCF,CASSCF), AVAS, COSX integrals, SCF dyn. polar.
   Lee Huntington         : MR-EOM, pCC
   Robert Izsak           : Overlap fitted RIJCOSX, COSX-SCS-MP3, EOM
   Riya Kayal             : Wick's Theorem for AUTO-CI, AUTO-CI UHF-CCSDT
   Emily Kempfer          : AUTO-CI, RHF CISDT and CCSDT
   Christian Kollmar      : KDIIS, OOCD, Brueckner-CCSD(T), CCSD density, CASPT2, CASPT2-K, improved NEVPT2
   Axel Koslowski         : Symmetry handling
   Simone Kossmann        : Meta GGA functionals, TD-DFT gradient, OOMP2, (MP2 Hessian; deprecated post 5.0)
   Lucas Lang             : DCDCAS
   Marvin Lechner         : AUTO-CI (C++ implementation), FIC-MRCC
   Spencer Leger          : CASSCF response
   Dagmar Lenk            : GEPOL surface, SMD, ORCA-2-JSON
   Dimitrios Liakos       : Extrapolation schemes; Compound Job, initial MDCI parallelization
   Dimitrios Manganas     : Further ROCIS development; embedding schemes. LFT, Crystal Embedding
   Dimitrios Pantazis     : SARC Basis sets
   Anastasios Papadopoulos: AUTO-CI, single reference methods and gradients
   Taras Petrenko         : pre 6.0 DFT Hessian and TD-DFT gradient, (ASA, deprecated), ECA, 1-Electron XAS/XES, NRVS
   Peter Pinski           : DLPNO-MP2, DLPNO-MP2 Gradient
   Christoph Reimann      : Effective Core Potentials
   Marius Retegan         : Local ZFS, SOC
   Christoph Riplinger    : Optimizer, TS searches, QM/MM, DLPNO-CCSD(T), (RO)-DLPNO pert. Triples
   Michael Roemelt        : Original ROCIS implementation
   Masaaki Saitow         : Open-shell DLPNO-CCSD energy and density
   Barbara Sandhoefer     : DKH picture change effects
   Kantharuban Sivalingam : CASSCF convergence/infrastructure, NEVPT2 and variants, FIC-MRCI
   Bernardo de Souza      : ESD, SOC TD-DFT
   Georgi Stoychev        : AutoAux, RI-MP2 NMR, DLPNO-MP2 response, X2C
   Van Anh Tran           : RI-MP2 g-tensors
   Willem Van den Heuvel  : Paramagnetic NMR
   Zikuan Wang            : NOTCH, Electric field optimization 
   Frank Wennmohs         : Technical directorship and infrastructure
   Hang Xu                : AUTO-CI-Response properties 


 We gratefully acknowledge several colleagues who have allowed us to
 interface, adapt or use parts of their codes:
   Stefan Grimme, W. Hujo, H. Kruse, P. Pracht,  : VdW corrections, initial TS optimization,
                  C. Bannwarth, S. Ehlert,         DFT functionals, gCP, sTDA/sTD-DF
                  L. Wittmann, M. Mueller
   Ed Valeev, F. Pavosevic, A. Kumar             : LibInt (2-el integral package), F12 methods
   Garnet Chan, S. Sharma, J. Yang, R. Olivares  : DMRG
   Ulf Ekstrom                                   : XCFun DFT Library
   Mihaly Kallay                                 : mrcc  (arbitrary order and MRCC methods)
   Frank Weinhold                                : gennbo (NPA and NBO analysis)
   Simon Mueller                                 : openCOSMO-RS
   Christopher J. Cramer and Donald G. Truhlar   : smd solvation model
   Lars Goerigk                                  : TD-DFT with DH, B97 family of functionals
   V. Asgeirsson, H. Jonsson                     : NEB implementation
   FAccTs GmbH                                   : IRC, NEB, NEB-TS, DLPNO-Multilevel, CI-OPT
                                                   MM, QMMM, 2- and 3-layer-ONIOM, Crystal-QMMM,
                                                   LR-CPCM, SF, NACMEs, symmetry and pop. for TD-DFT,
                                                   nearIR, NL-DFT gradient (VV10), updates on ESD,
                                                   ML-optimized integration grids, MBIS, APM,
                                                   GOAT, DOCKER, SOLVATOR, interface openCOSMO-RS
   S Lehtola, MJT Oliveira, MAL Marques          : LibXC Library
   Liviu Ungur et al                             : ANISO software


 Your calculation uses the libint2 library for the computation of 2-el integrals
 For citations please refer to: http://libint.valeyev.net

 Your ORCA version has been built with support for libXC version: 6.2.2
 For citations please refer to: https://libxc.gitlab.io

 This ORCA versions uses:
   CBLAS   interface :  Fast vector & matrix operations
   LAPACKE interface :  Fast linear algebra routines
   SCALAPACK package :  Parallel linear algebra routines
   Shared memory     :  Shared parallel matrices
   BLAS/LAPACK       :  OpenBLAS 0.3.27  USE64BITINT DYNAMIC_ARCH NO_AFFINITY Zen SINGLE_THREADED
        Core in use  :  Zen
   Copyright (c) 2011-2014, The OpenBLAS Project


Your calculation utilizes the atom-pairwise dispersion correction
with the Becke-Johnson damping scheme (D3BJ)


Warning: RI is on but no J-basis has been assigned. Assigning Def2/J (nothing to worry about!)
================================================================================

----- Orbital basis set information -----
Your calculation utilizes the basis: def2-TZVPPD
   F. Weigend and R. Ahlrichs, Phys. Chem. Chem. Phys. 7, 3297 (2005).
   D. Rappoport and F. Furche, J. Chem. Phys. 133, 134105 (2010)
   D. Rappoport, J. Chem. Phys. 155, 124102 (2021).

----- AuxJ basis set information -----
Your calculation utilizes the auxiliary basis: def2/J
   F. Weigend, Phys. Chem. Chem. Phys. 8, 1057 (2006).

================================================================================
                                        WARNINGS
                       Please study these warnings very carefully!
================================================================================

Using LibXC functional ID 531 : wB97M-V exchange-correlation functional
[ 1]  N. Mardirossian and M. Head-Gordon.,  J. Chem. Phys. 144, 214110 (2016)
Using LibXC functional ID 531 : wB97M-V exchange-correlation functional
[ 1]  N. Mardirossian and M. Head-Gordon.,  J. Chem. Phys. 144, 214110 (2016)

WARNING: B97M-V or wB97M-V functional requested.
  ===> : libXC variant has now been activated.
         Any manually given DFX/HFX/RangeSep scaling parameters are IGNORED!

Your calculation utilizes LibXC
 by S Lehtola, C Steigemann, MJT Oliveira & MAL Marques
Please cite in your paper:
 S Lehtola, C Steigemann, MJT Oliveira & MAL Marques, SoftwareX, 7, (2018), 1.
   


WARNING: your system is open-shell and RHF/RKS was chosen
  ===> : WILL SWITCH to UHF/UKS

INFO   : Checking CIS options ...

WARNING: CIS/ROCIS methods need fully converged wavefunctions
  ===> : Setting SCFConvForced true
         You can overwrite this default with %scf ConvForced false 


================================================================================
                                       INPUT FILE
================================================================================
NAME = orca.inp
|  1> ! Engrad def2-TZVPPD wB97M-D3BJ 
|  2> %pal nprocs 8 end%pal nprocs 64 end 
|  3>  %tddft nroots 2 Iroot 2 
|  4> sf true 
|  5> end 
|  6> *xyz 0 3 
|  7> O   2.40406225538586 -0.39898563022857 -1.11378638339951
|  8> O   -0.14314532101267 2.90664508746496 -2.18619040541275
|  9> O   0.18591879725652 -3.81651713769538 0.82474045170923
| 10> O   -2.04933457273832 -1.04079106670491 -1.51845444867158
| 11> N   0.40140935959884 -1.90483440743442 2.03125936444354
| 12> N   -1.36378419530722 -0.24509054061795 0.47806620609239
| 13> N   1.08934806325466 -1.98985068189719 -0.18681264817129
| 14> N   -0.74585610830641 0.79904873062446 -1.58849085042395
| 15> C   1.4797867367719 0.07595166428063 1.00912368290918
| 16> C   -0.42889524324 2.80768303276107 -0.06072553552474
| 17> C   0.5867581760097 -0.48809069186583 2.0693367668134
| 18> C   -0.43450249756403 0.35696995205533 1.31760102138624
| 19> C   2.32275374349576 1.28097064857516 1.2484490158566
| 20> C   -1.7033353117075 3.46193809914315 0.28535740567509
| 21> C   1.71005802374073 -0.74576152089204 -0.18440270044218
| 22> C   -0.45504190833058 2.111446973261 -1.30319923541868
| 23> C   0.52658335111431 -2.65883823634459 0.89480248968612
| 24> C   -1.4347382935657 -0.20436098113428 -0.90286998617828
| 25> H   0.8012312799113 -0.14848427444418 3.07477040802551
| 26> H   -0.52831027313474 1.38771875321233 1.61725172168748
| 27> H   2.48247225541805 1.82687380960735 0.32472784252296
| 28> H   1.84976807198275 1.94883330643959 1.96406887783667
| 29> H   3.29416076909349 0.98082213362701 1.645775281814
| 30> H   -2.59033488843431 2.83526078208542 0.14893354042564
| 31> H   -1.69775888168284 3.93368147136958 1.26322145113654
| 32> H   -1.78067876438879 4.25828368865564 -0.4678020070952
| 33> H   -0.04809691111719 -2.37386325215019 2.79673782537281
| 34> H   -1.78956341521013 -1.09829997131688 0.81053610920225
| 35> H   1.236964778878 -2.55904342707457 -1.00520665770124
| 36> H   -0.72529907617148 0.6156836866383 -2.58221860415635
| 37> *
| 38> 
| 39>                          ****END OF INPUT****
================================================================================

                     *******************************
                     * Energy+Gradient Calculation *
                     *******************************

---------------------------------
CARTESIAN COORDINATES (ANGSTROEM)
---------------------------------
  O      2.404062   -0.398986   -1.113786
  O     -0.143145    2.906645   -2.186190
  O      0.185919   -3.816517    0.824740
  O     -2.049335   -1.040791   -1.518454
  N      0.401409   -1.904834    2.031259
  N     -1.363784   -0.245091    0.478066
  N      1.089348   -1.989851   -0.186813
  N     -0.745856    0.799049   -1.588491
  C      1.479787    0.075952    1.009124
  C     -0.428895    2.807683   -0.060726
  C      0.586758   -0.488091    2.069337
  C     -0.434502    0.356970    1.317601
  C      2.322754    1.280971    1.248449
  C     -1.703335    3.461938    0.285357
  C      1.710058   -0.745762   -0.184403
  C     -0.455042    2.111447   -1.303199
  C      0.526583   -2.658838    0.894802
  C     -1.434738   -0.204361   -0.902870
  H      0.801231   -0.148484    3.074770
  H     -0.528310    1.387719    1.617252
  H      2.482472    1.826874    0.324728
  H      1.849768    1.948833    1.964069
  H      3.294161    0.980822    1.645775
  H     -2.590335    2.835261    0.148934
  H     -1.697759    3.933681    1.263221
  H     -1.780679    4.258284   -0.467802
  H     -0.048097   -2.373863    2.796738
  H     -1.789563   -1.098300    0.810536
  H      1.236965   -2.559043   -1.005207
  H     -0.725299    0.615684   -2.582219

----------------------------
CARTESIAN COORDINATES (A.U.)
----------------------------
  NO LB      ZA    FRAG     MASS         X           Y           Z
   0 O     8.0000    0    15.999    4.543019   -0.753974   -2.104751
   1 O     8.0000    0    15.999   -0.270505    5.492763   -4.131301
   2 O     8.0000    0    15.999    0.351336   -7.212172    1.558534
   3 O     8.0000    0    15.999   -3.872681   -1.966810   -2.869463
   4 N     7.0000    0    14.007    0.758554   -3.599615    3.838524
   5 N     7.0000    0    14.007   -2.577179   -0.463154    0.903414
   6 N     7.0000    0    14.007    2.058570   -3.760273   -0.353025
   7 N     7.0000    0    14.007   -1.409464    1.509983   -3.001813
   8 C     6.0000    0    12.011    2.796392    0.143528    1.906967
   9 C     6.0000    0    12.011   -0.810495    5.305752   -0.114755
  10 C     6.0000    0    12.011    1.108812   -0.922358    3.910480
  11 C     6.0000    0    12.011   -0.821091    0.674575    2.489905
  12 C     6.0000    0    12.011    4.389368    2.420684    2.359227
  13 C     6.0000    0    12.011   -3.218837    6.542115    0.539247
  14 C     6.0000    0    12.011    3.231541   -1.409285   -0.348471
  15 C     6.0000    0    12.011   -0.859905    3.990057   -2.462690
  16 C     6.0000    0    12.011    0.995098   -5.024476    1.690932
  17 C     6.0000    0    12.011   -2.711262   -0.386186   -1.706177
  18 H     1.0000    0     1.008    1.514108   -0.280595    5.810474
  19 H     1.0000    0     1.008   -0.998362    2.622408    3.056163
  20 H     1.0000    0     1.008    4.691193    3.452291    0.613647
  21 H     1.0000    0     1.008    3.495555    3.682761    3.711552
  22 H     1.0000    0     1.008    6.225062    1.853485    3.110065
  23 H     1.0000    0     1.008   -4.895024    5.357866    0.281444
  24 H     1.0000    0     1.008   -3.208299    7.433581    2.387143
  25 H     1.0000    0     1.008   -3.364995    8.046990   -0.884018
  26 H     1.0000    0     1.008   -0.090890   -4.485951    5.285069
  27 H     1.0000    0     1.008   -3.381785   -2.075486    1.531691
  28 H     1.0000    0     1.008    2.337525   -4.835891   -1.899565
  29 H     1.0000    0     1.008   -1.370617    1.163474   -4.879686

--------------------------------
INTERNAL COORDINATES (ANGSTROEM)
--------------------------------
 O      0   0   0     0.000000000000     0.00000000     0.00000000
 O      1   0   0     4.308771433419     0.00000000     0.00000000
 O      1   2   0     4.511936202542   113.41604501     0.00000000
 O      3   1   2     4.265158284334    61.87922487    20.40896500
 N      3   1   2     2.270826926567    62.86907876   289.77393025
 N      4   3   1     2.255928494459    65.42252548   286.84016887
 N      1   2   3     2.262433496352   107.33171037     0.56463579
 N      4   3   1     2.255874926640   104.18237430   339.26209813
 C      1   2   3     2.363598489097    80.68936729   302.77646729
 C      2   1   3     2.146869213402    78.28249440    60.31300168
 C      5   3   1     1.429323905880   149.41718687    24.96563273
 C      6   4   3     1.389553891250   152.96818079    85.84515626
 C      9   1   2     1.489946556735    94.90708018   283.65986786
 C     10   2   1     1.473777656973   109.09409480   201.69040578
 C      1   2   3     1.210640087736    94.12486303   330.93765664
 C      2   1   3     1.228532835663    58.30607699    23.67206958
 C      3   1   2     1.208793392625    32.95905360   296.18138573
 C      4   3   1     1.206767626713    84.48670713   313.24857154
 H     11   5   3     1.082694803688   111.18213373   191.31625986
 H     12   6   4     1.077512659803   121.61897712   103.45835161
 H     13   9   1     1.084795404830   110.70281843    36.26065219
 H     13   9   1     1.087137416377   110.88129435   156.59723376
 H     13   9   1     1.091599240576   109.85010443   276.45559919
 H     14  10   2     1.094579453415   114.66551385    81.58608097
 H     14  10   2     1.085721417868   113.57469917   211.29007781
 H     14  10   2     1.098816367121   102.80540722   327.26559472
 H      5   3   1     1.003992638785    88.24220821   183.84800543
 H      6   4   3     1.009846777095    82.25508438   308.89556289
 H      7   1   2     1.007739961859    88.81389660   109.84291641
 H      8   4   3     1.010712708669    83.93328135   116.97516187

---------------------------
INTERNAL COORDINATES (A.U.)
---------------------------
 O      0   0   0     0.000000000000     0.00000000     0.00000000
 O      1   0   0     8.142397982826     0.00000000     0.00000000
 O      1   2   0     8.526323756529   113.41604501     0.00000000
 O      3   1   2     8.059981075216    61.87922487    20.40896500
 N      3   1   2     4.291240988746    62.86907876   289.77393025
 N      4   3   1     4.263087032236    65.42252548   286.84016887
 N      1   2   3     4.275379704315   107.33171037     0.56463579
 N      4   3   1     4.262985803730   104.18237430   339.26209813
 C      1   2   3     4.466553834943    80.68936729   302.77646729
 C      2   1   3     4.056994858676    78.28249440    60.31300168
 C      5   3   1     2.701030738779   149.41718687    24.96563273
 C      6   4   3     2.625876302788   152.96818079    85.84515626
 C      9   1   2     2.815590946408    94.90708018   283.65986786
 C     10   2   1     2.785036153970   109.09409480   201.69040578
 C      1   2   3     2.287778212568    94.12486303   330.93765664
 C      2   1   3     2.321590605932    58.30607699    23.67206958
 C      3   1   2     2.284288464554    32.95905360   296.18138573
 C      4   3   1     2.280460321771    84.48670713   313.24857154
 H     11   5   3     2.045996665589   111.18213373   191.31625986
 H     12   6   4     2.036203832860   121.61897712   103.45835161
 H     13   9   1     2.049966226465   110.70281843    36.26065219
 H     13   9   1     2.054391986891   110.88129435   156.59723376
 H     13   9   1     2.062823612685   109.85010443   276.45559919
 H     14  10   2     2.068455398771   114.66551385    81.58608097
 H     14  10   2     2.051716137503   113.57469917   211.29007781
 H     14  10   2     2.076462005329   102.80540722   327.26559472
 H      5   3   1     1.897271127777    88.24220821   183.84800543
 H      6   4   3     1.908333845932    82.25508438   308.89556289
 H      7   1   2     1.904352542123    88.81389660   109.84291641
 H      8   4   3     1.909970219457    83.93328135   116.97516187

---------------------
BASIS SET INFORMATION
---------------------
There are 4 groups of distinct atoms

 Group   1 Type O   : 12s7p3d1f contracted to 6s4p3d1f pattern {621111/4111/111/1}
 Group   2 Type N   : 12s6p3d1f contracted to 6s3p3d1f pattern {621111/411/111/1}
 Group   3 Type C   : 12s6p3d1f contracted to 6s3p3d1f pattern {621111/411/111/1}
 Group   4 Type H   : 5s3p1d contracted to 3s3p1d pattern {311/111/1}

Atom   0O    basis set group =>   1
Atom   1O    basis set group =>   1
Atom   2O    basis set group =>   1
Atom   3O    basis set group =>   1
Atom   4N    basis set group =>   2
Atom   5N    basis set group =>   2
Atom   6N    basis set group =>   2
Atom   7N    basis set group =>   2
Atom   8C    basis set group =>   3
Atom   9C    basis set group =>   3
Atom  10C    basis set group =>   3
Atom  11C    basis set group =>   3
Atom  12C    basis set group =>   3
Atom  13C    basis set group =>   3
Atom  14C    basis set group =>   3
Atom  15C    basis set group =>   3
Atom  16C    basis set group =>   3
Atom  17C    basis set group =>   3
Atom  18H    basis set group =>   4
Atom  19H    basis set group =>   4
Atom  20H    basis set group =>   4
Atom  21H    basis set group =>   4
Atom  22H    basis set group =>   4
Atom  23H    basis set group =>   4
Atom  24H    basis set group =>   4
Atom  25H    basis set group =>   4
Atom  26H    basis set group =>   4
Atom  27H    basis set group =>   4
Atom  28H    basis set group =>   4
Atom  29H    basis set group =>   4
---------------------------------
AUXILIARY/J BASIS SET INFORMATION
---------------------------------
There are 4 groups of distinct atoms

 Group   1 Type O   : 12s5p4d2f1g contracted to 6s4p3d1f1g pattern {711111/2111/211/2/1}
 Group   2 Type N   : 12s5p4d2f1g contracted to 6s4p3d1f1g pattern {711111/2111/211/2/1}
 Group   3 Type C   : 12s5p4d2f1g contracted to 6s4p3d1f1g pattern {711111/2111/211/2/1}
 Group   4 Type H   : 5s2p1d contracted to 3s1p1d pattern {311/2/1}

Atom   0O    basis set group =>   1
Atom   1O    basis set group =>   1
Atom   2O    basis set group =>   1
Atom   3O    basis set group =>   1
Atom   4N    basis set group =>   2
Atom   5N    basis set group =>   2
Atom   6N    basis set group =>   2
Atom   7N    basis set group =>   2
Atom   8C    basis set group =>   3
Atom   9C    basis set group =>   3
Atom  10C    basis set group =>   3
Atom  11C    basis set group =>   3
Atom  12C    basis set group =>   3
Atom  13C    basis set group =>   3
Atom  14C    basis set group =>   3
Atom  15C    basis set group =>   3
Atom  16C    basis set group =>   3
Atom  17C    basis set group =>   3
Atom  18H    basis set group =>   4
Atom  19H    basis set group =>   4
Atom  20H    basis set group =>   4
Atom  21H    basis set group =>   4
Atom  22H    basis set group =>   4
Atom  23H    basis set group =>   4
Atom  24H    basis set group =>   4
Atom  25H    basis set group =>   4
Atom  26H    basis set group =>   4
Atom  27H    basis set group =>   4
Atom  28H    basis set group =>   4
Atom  29H    basis set group =>   4
[1738799632.198957] [ohm:3009279:0]        ib_iface.c:1059 UCX  ERROR ibv_create_cq(cqe=256) failed: Connection timed out
[1738799632.206651] [ohm:3009278:0]        ib_iface.c:1059 UCX  ERROR ibv_create_cq(cqe=256) failed: Connection timed out
[1738799632.207982] [ohm:3009277:0]        ib_iface.c:1059 UCX  ERROR ibv_create_cq(cqe=256) failed: Connection timed out
[1738799632.213490] [ohm:3009300:0]        ib_iface.c:1059 UCX  ERROR ibv_create_cq(cqe=256) failed: Connection timed out
[1738799632.215623] [ohm:3009280:0]        ib_iface.c:1059 UCX  ERROR ibv_create_cq(cqe=256) failed: Connection timed out
[1738799632.291099] [ohm:3009283:0]        ib_iface.c:1059 UCX  ERROR ibv_create_cq(cqe=256) failed: Connection timed out
[1738799632.292778] [ohm:3009297:0]        ib_iface.c:1059 UCX  ERROR ibv_create_cq(cqe=256) failed: Connection timed out
[1738799632.300446] [ohm:3009284:0]        ib_iface.c:1059 UCX  ERROR ibv_create_cq(cqe=256) failed: Connection timed out
[1738799632.301613] [ohm:3009281:0]        ib_iface.c:1059 UCX  ERROR ibv_create_cq(cqe=256) failed: Connection timed out
[1738799632.306782] [ohm:3009293:0]        ib_iface.c:1059 UCX  ERROR ibv_create_cq(cqe=256) failed: Connection timed out
[1738799632.307960] [ohm:3009292:0]        ib_iface.c:1059 UCX  ERROR ibv_create_cq(cqe=256) failed: Connection timed out
[1738799632.314805] [ohm:3009285:0]        ib_iface.c:1059 UCX  ERROR ibv_create_cq(cqe=256) failed: Connection timed out
[1738799632.316906] [ohm:3009295:0]        ib_iface.c:1059 UCX  ERROR ibv_create_cq(cqe=256) failed: Connection timed out
[1738799632.317035] [ohm:3009290:0]        ib_iface.c:1059 UCX  ERROR ibv_create_cq(cqe=256) failed: Connection timed out
[1738799632.321730] [ohm:3009289:0]        ib_iface.c:1059 UCX  ERROR ibv_create_cq(cqe=256) failed: Connection timed out
[1738799632.322567] [ohm:3009294:0]        ib_iface.c:1059 UCX  ERROR ibv_create_cq(cqe=256) failed: Connection timed out
[1738799632.323474] [ohm:3009282:0]        ib_iface.c:1059 UCX  ERROR ibv_create_cq(cqe=256) failed: Connection timed out
[1738799632.370055] [ohm:3009330:0]        ib_iface.c:1059 UCX  ERROR ibv_create_cq(cqe=256) failed: Connection timed out
[1738799632.370029] [ohm:3009374:0]        ib_iface.c:1059 UCX  ERROR ibv_create_cq(cqe=256) failed: Connection timed out
[1738799632.373662] [ohm:3009286:0]        ib_iface.c:1059 UCX  ERROR ibv_create_cq(cqe=256) failed: Connection timed out
[1738799632.385099] [ohm:3009287:0]        ib_iface.c:1059 UCX  ERROR ibv_create_cq(cqe=256) failed: Connection timed out
[1738799632.405095] [ohm:3009421:0]        ib_iface.c:1059 UCX  ERROR ibv_create_cq(cqe=256) failed: Connection timed out
[1738799632.408885] [ohm:3009423:0]        ib_iface.c:1059 UCX  ERROR ibv_create_cq(cqe=256) failed: Connection timed out
[1738799632.415050] [ohm:3009396:0]        ib_iface.c:1059 UCX  ERROR ibv_create_cq(cqe=256) failed: Connection timed out
[1738799632.415041] [ohm:3009407:0]        ib_iface.c:1059 UCX  ERROR ibv_create_cq(cqe=256) failed: Connection timed out
[1738799632.430781] [ohm:3009303:0]        ib_iface.c:1059 UCX  ERROR ibv_create_cq(cqe=256) failed: Connection timed out
[1738799632.437319] [ohm:3009288:0]        ib_iface.c:1059 UCX  ERROR ibv_create_cq(cqe=256) failed: Connection timed out
[1738799632.438216] [ohm:3009325:0]        ib_iface.c:1059 UCX  ERROR ibv_create_cq(cqe=256) failed: Connection timed out
[1738799632.442897] [ohm:3009370:0]        ib_iface.c:1059 UCX  ERROR ibv_create_cq(cqe=256) failed: Connection timed out
[1738799632.446944] [ohm:3009333:0]        ib_iface.c:1059 UCX  ERROR ibv_create_cq(cqe=256) failed: Connection timed out
[1738799632.462154] [ohm:3009354:0]        ib_iface.c:1059 UCX  ERROR ibv_create_cq(cqe=256) failed: Connection timed out
[1738799632.471161] [ohm:3009317:0]        ib_iface.c:1059 UCX  ERROR ibv_create_cq(cqe=256) failed: Connection timed out
[1738799632.475972] [ohm:3009299:0]        ib_iface.c:1059 UCX  ERROR ibv_create_cq(cqe=256) failed: Connection timed out
[1738799632.479488] [ohm:3009344:0]        ib_iface.c:1059 UCX  ERROR ibv_create_cq(cqe=256) failed: Connection timed out
[1738799632.483418] [ohm:3009320:0]        ib_iface.c:1059 UCX  ERROR ibv_create_cq(cqe=256) failed: Connection timed out
[1738799632.487305] [ohm:3009308:0]        ib_iface.c:1059 UCX  ERROR ibv_create_cq(cqe=256) failed: Connection timed out
[1738799632.492567] [ohm:3009340:0]        ib_iface.c:1059 UCX  ERROR ibv_create_cq(cqe=256) failed: Connection timed out
[1738799632.494263] [ohm:3009417:0]        ib_iface.c:1059 UCX  ERROR ibv_create_cq(cqe=256) failed: Connection timed out
[1738799632.500356] [ohm:3009392:0]        ib_iface.c:1059 UCX  ERROR ibv_create_cq(cqe=256) failed: Connection timed out
[1738799632.502298] [ohm:3009336:0]        ib_iface.c:1059 UCX  ERROR ibv_create_cq(cqe=256) failed: Connection timed out
[1738799632.502509] [ohm:3009376:0]        ib_iface.c:1059 UCX  ERROR ibv_create_cq(cqe=256) failed: Connection timed out
[1738799632.502741] [ohm:3009402:0]        ib_iface.c:1059 UCX  ERROR ibv_create_cq(cqe=256) failed: Connection timed out
[1738799632.514186] [ohm:3009313:0]        ib_iface.c:1059 UCX  ERROR ibv_create_cq(cqe=256) failed: Connection timed out
[1738799632.520589] [ohm:3009302:0]        ib_iface.c:1059 UCX  ERROR ibv_create_cq(cqe=256) failed: Connection timed out
[1738799632.522444] [ohm:3009363:0]        ib_iface.c:1059 UCX  ERROR ibv_create_cq(cqe=256) failed: Connection timed out
[1738799632.529165] [ohm:3009298:0]        ib_iface.c:1059 UCX  ERROR ibv_create_cq(cqe=256) failed: Connection timed out
[1738799632.529220] [ohm:3009379:0]        ib_iface.c:1059 UCX  ERROR ibv_create_cq(cqe=256) failed: Connection timed out
[1738799632.530304] [ohm:3009390:0]        ib_iface.c:1059 UCX  ERROR ibv_create_cq(cqe=256) failed: Connection timed out
[1738799632.532111] [ohm:3009412:0]        ib_iface.c:1059 UCX  ERROR ibv_create_cq(cqe=256) failed: Connection timed out
[1738799632.536633] [ohm:3009381:0]        ib_iface.c:1059 UCX  ERROR ibv_create_cq(cqe=256) failed: Connection timed out
[1738799632.540849] [ohm:3009360:0]        ib_iface.c:1059 UCX  ERROR ibv_create_cq(cqe=256) failed: Connection timed out
[1738799632.546251] [ohm:3009410:0]        ib_iface.c:1059 UCX  ERROR ibv_create_cq(cqe=256) failed: Connection timed out
[1738799632.550777] [ohm:3009296:0]        ib_iface.c:1059 UCX  ERROR ibv_create_cq(cqe=256) failed: Connection timed out
[1738799632.552192] [ohm:3009385:0]        ib_iface.c:1059 UCX  ERROR ibv_create_cq(cqe=256) failed: Connection timed out
[1738799632.552190] [ohm:3009355:0]        ib_iface.c:1059 UCX  ERROR ibv_create_cq(cqe=256) failed: Connection timed out
[1738799632.552344] [ohm:3009347:0]        ib_iface.c:1059 UCX  ERROR ibv_create_cq(cqe=256) failed: Connection timed out
[1738799632.553150] [ohm:3009326:0]        ib_iface.c:1059 UCX  ERROR ibv_create_cq(cqe=256) failed: Connection timed out
[1738799632.553748] [ohm:3009372:0]        ib_iface.c:1059 UCX  ERROR ibv_create_cq(cqe=256) failed: Connection timed out
[1738799632.553746] [ohm:3009365:0]        ib_iface.c:1059 UCX  ERROR ibv_create_cq(cqe=256) failed: Connection timed out
[1738799632.554098] [ohm:3009400:0]        ib_iface.c:1059 UCX  ERROR ibv_create_cq(cqe=256) failed: Connection timed out
[1738799632.556783] [ohm:3009305:0]        ib_iface.c:1059 UCX  ERROR ibv_create_cq(cqe=256) failed: Connection timed out
[1738799632.557769] [ohm:3009427:0]        ib_iface.c:1059 UCX  ERROR ibv_create_cq(cqe=256) failed: Connection timed out
[1738799632.557890] [ohm:3009291:0]        ib_iface.c:1059 UCX  ERROR ibv_create_cq(cqe=256) failed: Connection timed out
[1738799632.559221] [ohm:3009301:0]        ib_iface.c:1059 UCX  ERROR ibv_create_cq(cqe=256) failed: Connection timed out


           ************************************************************
           *        Program running with 64 parallel MPI-processes    *
           *              working on a common directory               *
           ************************************************************
------------------------------------------------------------------------------
                             ORCA STARTUP CALCULATIONS
                           -- RI-GTO INTEGRALS CHOSEN --
------------------------------------------------------------------------------
------------------------------------------------------------------------------
                   ___                                                        
                  /   \      - P O W E R E D   B Y -                         
                 /     \                                                     
                 |  |  |   _    _      __       _____    __    __             
                 |  |  |  | |  | |    /  \     |  _  \  |  |  /  |          
                  \  \/   | |  | |   /    \    | | | |  |  | /  /          
                 / \  \   | |__| |  /  /\  \   | |_| |  |  |/  /          
                |  |  |   |  __  | /  /__\  \  |    /   |      \           
                |  |  |   | |  | | |   __   |  |    \   |  |\   \          
                \     /   | |  | | |  |  |  |  | |\  \  |  | \   \       
                 \___/    |_|  |_| |__|  |__|  |_| \__\ |__|  \__/        
                                                                              
                      - O R C A' S   B I G   F R I E N D -                    
                                      &                                       
                       - I N T E G R A L  F E E D E R -                       
                                                                              
 v1 FN, 2020, v2 2021, v3 2022-2024                                           
------------------------------------------------------------------------------


----------------------
SHARK INTEGRAL PACKAGE
----------------------

Number of atoms                             ...     30
Number of basis functions                   ...    882
Number of shells                            ...    322
Maximum angular momentum                    ...      3
Integral batch strategy                     ... SHARK/LIBINT Hybrid
RI-J (if used) integral strategy            ... SPLIT-RIJ (Revised 2003 algorithm where possible)
Printlevel                                  ...      1
Contraction scheme used                     ... SEGMENTED contraction
Prescreening option                         ... SCHWARTZ
   Thresh                                   ... 2.500e-11
   Tcut                                     ... 2.500e-12
   Tpresel                                  ... 2.500e-12 
Coulomb Range Separation                    ... NOT USED
Exchange Range Separation                   ... Long Range
   Mu parameter                             ... 3.000e-01
   Scaling (regular/separated)              ... 1.500e-01 8.500e-01
Multipole approximations                    ... NOT USED
Finite Nucleus Model                        ... NOT USED
CABS basis                                  ... NOT available
Auxiliary Coulomb fitting basis             ... AVAILABLE
   # of basis functions in Aux-J            ...   1014
   # of shells in Aux-J                     ...    330
   Maximum angular momentum in Aux-J        ...      4
Auxiliary J/K fitting basis                 ... NOT available
Auxiliary Correlation fitting basis         ... NOT available
Auxiliary 'external' fitting basis          ... NOT available

Checking pre-screening integrals            ... done (  0.0 sec) Dimension = 322
Check shell pair data                       ... done (  0.0 sec)
Shell pair information
Shell pair cut-off parameter TPreSel        ...   2.5e-12
Total number of shell pairs                 ...     52003
Shell pairs after pre-screening             ...     44401
Total number of primitive shell pairs       ...    129718
Primitive shell pairs kept                  ...     82661
          la=0 lb=0:   8605 shell pairs
          la=1 lb=0:  11757 shell pairs
          la=1 lb=1:   4068 shell pairs
          la=2 lb=0:   7975 shell pairs
          la=2 lb=1:   5511 shell pairs
          la=2 lb=2:   1904 shell pairs
          la=3 lb=0:   2024 shell pairs
          la=3 lb=1:   1438 shell pairs
          la=3 lb=2:    983 shell pairs
          la=3 lb=3:    136 shell pairs

Calculating one electron integrals          ... done (  0.2 sec)
Calculating RI/J V-Matrix + Cholesky decomp.... done (  0.1 sec)
Calculating Nuclear repulsion               ... done (  0.0 sec) ENN=   1421.105074642094 Eh

Diagonalization of the overlap matrix:
Smallest eigenvalue                        ... 5.280e-07
Time for diagonalization                   ...    0.124 sec
Threshold for overlap eigenvalues          ... 1.000e-07
Number of eigenvalues below threshold      ... 0

IMPORTANT:
Smallest eigenvalue of S below the DiffSThresh (1.000e-06) while
Thresh>1e-12 and/or TCut>1e-13! In order to avoid SCF convergence issues,
Thresh will be set to at least 1e-12 and TCut to at least 1e-13.
This can be turned off by adding %SCF DiffSThresh -1 END to the input.

Time for construction of square roots      ...    0.139 sec
Total time needed                          ...    0.280 sec

-------------------
DFT GRID GENERATION
-------------------

General Integration Accuracy     IntAcc      ... 4.388
Radial Grid Type                 RadialGrid  ... OptM3 with GC (2021)
Angular Grid (max. ang.)         AngularGrid ... 4 (Lebedev-302)
Angular grid pruning method      GridPruning ... 4 (adaptive)
Weight generation scheme         WeightScheme... mBecke (2022)
Basis function cutoff            BFCut       ... 1.0000e-11
Integration weight cutoff        WCut        ... 1.0000e-14
Partially contracted basis set               ... off
Rotationally invariant grid construction     ... off
Angular grids for H and He will be reduced by one unit
Diffuse basis detected: some atoms will have their outermost
                        angular grid increased by 1.

Total number of grid points                  ...   152296
Total number of batches                      ...     2393
Average number of points per batch           ...       63
Average number of grid points per atom       ...     5077

--------------------
COSX GRID GENERATION
--------------------

GRIDX 1
-------
General Integration Accuracy     IntAcc      ... 3.816
Radial Grid Type                 RadialGrid  ... OptM3 with GC (2021)
Angular Grid (max. ang.)         AngularGrid ... 1 (Lebedev-50)
Angular grid pruning method      GridPruning ... 4 (adaptive)
Weight generation scheme         WeightScheme... mBecke (2022)
Basis function cutoff            BFCut       ... 1.0000e-11
Integration weight cutoff        WCut        ... 1.0000e-14
Partially contracted basis set               ... on
Rotationally invariant grid construction     ... off
Angular grids for H and He will be reduced by one unit
Diffuse basis detected: some atoms will have their outermost
                        angular grid increased by 1.

Total number of grid points                  ...    19070
Total number of batches                      ...      165
Average number of points per batch           ...      115
Average number of grid points per atom       ...      636
UseSFitting                                  ... on

GRIDX 2
-------
General Integration Accuracy     IntAcc      ... 4.020
Radial Grid Type                 RadialGrid  ... OptM3 with GC (2021)
Angular Grid (max. ang.)         AngularGrid ... 2 (Lebedev-110)
Angular grid pruning method      GridPruning ... 4 (adaptive)
Weight generation scheme         WeightScheme... mBecke (2022)
Basis function cutoff            BFCut       ... 1.0000e-11
Integration weight cutoff        WCut        ... 1.0000e-14
Partially contracted basis set               ... on
Rotationally invariant grid construction     ... off
Angular grids for H and He will be reduced by one unit
Diffuse basis detected: some atoms will have their outermost
                        angular grid increased by 1.

Total number of grid points                  ...    46060
Total number of batches                      ...      376
Average number of points per batch           ...      122
Average number of grid points per atom       ...     1535
UseSFitting                                  ... on

GRIDX 3
-------
General Integration Accuracy     IntAcc      ... 4.338
Radial Grid Type                 RadialGrid  ... OptM3 with GC (2021)
Angular Grid (max. ang.)         AngularGrid ... 3 (Lebedev-194)
Angular grid pruning method      GridPruning ... 4 (adaptive)
Weight generation scheme         WeightScheme... mBecke (2022)
Basis function cutoff            BFCut       ... 1.0000e-11
Integration weight cutoff        WCut        ... 1.0000e-14
Partially contracted basis set               ... on
Rotationally invariant grid construction     ... off
Angular grids for H and He will be reduced by one unit
Diffuse basis detected: some atoms will have their outermost
                        angular grid increased by 1.

Total number of grid points                  ...   101356
Total number of batches                      ...      809
Average number of points per batch           ...      125
Average number of grid points per atom       ...     3379
UseSFitting                                  ... on
Initializing property integral containers    ... done (  0.0 sec)

SHARK setup successfully completed in   4.1 seconds

Maximum memory used throughout the entire STARTUP-calculation: 79.3 MB
[1738799638.517548] [ohm:3009625:0]        ib_iface.c:1059 UCX  ERROR ibv_create_cq(cqe=256) failed: Connection timed out
[1738799638.547877] [ohm:3009612:0]        ib_iface.c:1059 UCX  ERROR ibv_create_cq(cqe=256) failed: Connection timed out
[1738799638.549944] [ohm:3009609:0]        ib_iface.c:1059 UCX  ERROR ibv_create_cq(cqe=256) failed: Connection timed out
[1738799638.557990] [ohm:3009608:0]        ib_iface.c:1059 UCX  ERROR ibv_create_cq(cqe=256) failed: Connection timed out
[1738799638.559395] [ohm:3009607:0]        ib_iface.c:1059 UCX  ERROR ibv_create_cq(cqe=256) failed: Connection timed out
[1738799638.580186] [ohm:3009613:0]        ib_iface.c:1059 UCX  ERROR ibv_create_cq(cqe=256) failed: Connection timed out
[1738799638.589889] [ohm:3009610:0]        ib_iface.c:1059 UCX  ERROR ibv_create_cq(cqe=256) failed: Connection timed out
[1738799638.590128] [ohm:3009614:0]        ib_iface.c:1059 UCX  ERROR ibv_create_cq(cqe=256) failed: Connection timed out
[1738799638.596994] [ohm:3009616:0]        ib_iface.c:1059 UCX  ERROR ibv_create_cq(cqe=256) failed: Connection timed out
[1738799638.598320] [ohm:3009611:0]        ib_iface.c:1059 UCX  ERROR ibv_create_cq(cqe=256) failed: Connection timed out
[1738799638.600828] [ohm:3009619:0]        ib_iface.c:1059 UCX  ERROR ibv_create_cq(cqe=256) failed: Connection timed out
[1738799638.656592] [ohm:3009731:0]        ib_iface.c:1059 UCX  ERROR ibv_create_cq(cqe=256) failed: Connection timed out
[1738799638.666071] [ohm:3009688:0]        ib_iface.c:1059 UCX  ERROR ibv_create_cq(cqe=256) failed: Connection timed out
[1738799638.676356] [ohm:3009633:0]        ib_iface.c:1059 UCX  ERROR ibv_create_cq(cqe=256) failed: Connection timed out
[1738799638.680382] [ohm:3009624:0]        ib_iface.c:1059 UCX  ERROR ibv_create_cq(cqe=256) failed: Connection timed out
[1738799638.681362] [ohm:3009673:0]        ib_iface.c:1059 UCX  ERROR ibv_create_cq(cqe=256) failed: Connection timed out
[1738799638.682017] [ohm:3009621:0]        ib_iface.c:1059 UCX  ERROR ibv_create_cq(cqe=256) failed: Connection timed out
[1738799638.705576] [ohm:3009631:0]        ib_iface.c:1059 UCX  ERROR ibv_create_cq(cqe=256) failed: Connection timed out
[1738799638.706093] [ohm:3009638:0]        ib_iface.c:1059 UCX  ERROR ibv_create_cq(cqe=256) failed: Connection timed out
[1738799638.707439] [ohm:3009653:0]        ib_iface.c:1059 UCX  ERROR ibv_create_cq(cqe=256) failed: Connection timed out
[1738799638.710753] [ohm:3009723:0]        ib_iface.c:1059 UCX  ERROR ibv_create_cq(cqe=256) failed: Connection timed out
[1738799638.711242] [ohm:3009716:0]        ib_iface.c:1059 UCX  ERROR ibv_create_cq(cqe=256) failed: Connection timed out
[1738799638.712471] [ohm:3009717:0]        ib_iface.c:1059 UCX  ERROR ibv_create_cq(cqe=256) failed: Connection timed out
[1738799638.716439] [ohm:3009626:0]        ib_iface.c:1059 UCX  ERROR ibv_create_cq(cqe=256) failed: Connection timed out
[1738799638.728315] [ohm:3009634:0]        ib_iface.c:1059 UCX  ERROR ibv_create_cq(cqe=256) failed: Connection timed out
[1738799638.737985] [ohm:3009660:0]        ib_iface.c:1059 UCX  ERROR ibv_create_cq(cqe=256) failed: Connection timed out
[1738799638.743516] [ohm:3009615:0]        ib_iface.c:1059 UCX  ERROR ibv_create_cq(cqe=256) failed: Connection timed out
[1738799638.746463] [ohm:3009745:0]        ib_iface.c:1059 UCX  ERROR ibv_create_cq(cqe=256) failed: Connection timed out
[1738799638.746948] [ohm:3009751:0]        ib_iface.c:1059 UCX  ERROR ibv_create_cq(cqe=256) failed: Connection timed out
[1738799638.752417] [ohm:3009703:0]        ib_iface.c:1059 UCX  ERROR ibv_create_cq(cqe=256) failed: Connection timed out
[1738799638.755048] [ohm:3009617:0]        ib_iface.c:1059 UCX  ERROR ibv_create_cq(cqe=256) failed: Connection timed out
[1738799638.762636] [ohm:3009761:0]        ib_iface.c:1059 UCX  ERROR ibv_create_cq(cqe=256) failed: Connection timed out
[1738799638.763993] [ohm:3009748:0]        ib_iface.c:1059 UCX  ERROR ibv_create_cq(cqe=256) failed: Connection timed out
[1738799638.772638] [ohm:3009692:0]        ib_iface.c:1059 UCX  ERROR ibv_create_cq(cqe=256) failed: Connection timed out
[1738799638.776094] [ohm:3009738:0]        ib_iface.c:1059 UCX  ERROR ibv_create_cq(cqe=256) failed: Connection timed out
[1738799638.782304] [ohm:3009727:0]        ib_iface.c:1059 UCX  ERROR ibv_create_cq(cqe=256) failed: Connection timed out
[1738799638.786187] [ohm:3009620:0]        ib_iface.c:1059 UCX  ERROR ibv_create_cq(cqe=256) failed: Connection timed out
[1738799638.791705] [ohm:3009682:0]        ib_iface.c:1059 UCX  ERROR ibv_create_cq(cqe=256) failed: Connection timed out
[1738799638.801076] [ohm:3009741:0]        ib_iface.c:1059 UCX  ERROR ibv_create_cq(cqe=256) failed: Connection timed out
[1738799638.804072] [ohm:3009637:0]        ib_iface.c:1059 UCX  ERROR ibv_create_cq(cqe=256) failed: Connection timed out
[1738799638.806181] [ohm:3009697:0]        ib_iface.c:1059 UCX  ERROR ibv_create_cq(cqe=256) failed: Connection timed out
[1738799638.807902] [ohm:3009744:0]        ib_iface.c:1059 UCX  ERROR ibv_create_cq(cqe=256) failed: Connection timed out
[1738799638.828521] [ohm:3009629:0]        ib_iface.c:1059 UCX  ERROR ibv_create_cq(cqe=256) failed: Connection timed out
[1738799638.830059] [ohm:3009699:0]        ib_iface.c:1059 UCX  ERROR ibv_create_cq(cqe=256) failed: Connection timed out
[1738799638.834264] [ohm:3009677:0]        ib_iface.c:1059 UCX  ERROR ibv_create_cq(cqe=256) failed: Connection timed out
[1738799638.839068] [ohm:3009644:0]        ib_iface.c:1059 UCX  ERROR ibv_create_cq(cqe=256) failed: Connection timed out
[1738799638.846371] [ohm:3009766:0]        ib_iface.c:1059 UCX  ERROR ibv_create_cq(cqe=256) failed: Connection timed out
[1738799638.850394] [ohm:3009666:0]        ib_iface.c:1059 UCX  ERROR ibv_create_cq(cqe=256) failed: Connection timed out
[1738799638.858153] [ohm:3009618:0]        ib_iface.c:1059 UCX  ERROR ibv_create_cq(cqe=256) failed: Connection timed out
[1738799638.859081] [ohm:3009707:0]        ib_iface.c:1059 UCX  ERROR ibv_create_cq(cqe=256) failed: Connection timed out
[1738799638.859337] [ohm:3009702:0]        ib_iface.c:1059 UCX  ERROR ibv_create_cq(cqe=256) failed: Connection timed out
[1738799638.859850] [ohm:3009628:0]        ib_iface.c:1059 UCX  ERROR ibv_create_cq(cqe=256) failed: Connection timed out
[1738799638.860942] [ohm:3009722:0]        ib_iface.c:1059 UCX  ERROR ibv_create_cq(cqe=256) failed: Connection timed out
[1738799638.863674] [ohm:3009695:0]        ib_iface.c:1059 UCX  ERROR ibv_create_cq(cqe=256) failed: Connection timed out
[1738799638.863916] [ohm:3009735:0]        ib_iface.c:1059 UCX  ERROR ibv_create_cq(cqe=256) failed: Connection timed out
[1738799638.864262] [ohm:3009662:0]        ib_iface.c:1059 UCX  ERROR ibv_create_cq(cqe=256) failed: Connection timed out
[1738799638.871446] [ohm:3009646:0]        ib_iface.c:1059 UCX  ERROR ibv_create_cq(cqe=256) failed: Connection timed out
[1738799638.874163] [ohm:3009667:0]        ib_iface.c:1059 UCX  ERROR ibv_create_cq(cqe=256) failed: Connection timed out
[1738799638.876894] [ohm:3009622:0]        ib_iface.c:1059 UCX  ERROR ibv_create_cq(cqe=256) failed: Connection timed out
[1738799638.877746] [ohm:3009710:0]        ib_iface.c:1059 UCX  ERROR ibv_create_cq(cqe=256) failed: Connection timed out
[1738799638.878534] [ohm:3009623:0]        ib_iface.c:1059 UCX  ERROR ibv_create_cq(cqe=256) failed: Connection timed out
[1738799638.879033] [ohm:3009630:0]        ib_iface.c:1059 UCX  ERROR ibv_create_cq(cqe=256) failed: Connection timed out
[1738799638.880774] [ohm:3009669:0]        ib_iface.c:1059 UCX  ERROR ibv_create_cq(cqe=256) failed: Connection timed out
[1738799638.881039] [ohm:3009627:0]        ib_iface.c:1059 UCX  ERROR ibv_create_cq(cqe=256) failed: Connection timed out


           ************************************************************
           *        Program running with 64 parallel MPI-processes    *
           *              working on a common directory               *
           ************************************************************
-------------------------------------------------------------------------------
                                 ORCA GUESS
                   Start orbitals & Density for SCF / CASSCF
-------------------------------------------------------------------------------

------------
SCF SETTINGS
------------
Hamiltonian:
 Density Functional     Method          .... DFT(GTOs)
  Functional kind                       .... Exchange-Correlation
  Functional name                       .... wB97M-V exchange-correlation functional
  Functional family                     .... Hybrid MGGA
  Functional refs                              
    [ 0] N. Mardirossian and M. Head-Gordon.,  J. Chem. Phys. 144, 214110 (2016), doi: 10.1063/1.4952647
  Fraction of HF Exchange (short range) .... 0.1500
  Fraction of HF Exchange (long range)  .... 1.0000
  Range separation parameter mu         .... 0.3000
  Functional external parameters        .... 17
    Parameter  0 _cx00      =  8.500000e-01 : u^00 coefficient for exchange
    Parameter  1 _cx01      =  1.007000e+00 : u^01 coefficient for exchange
    Parameter  2 _cx10      =  2.590000e-01 : u^10 coefficient for exchange
    Parameter  3 _css00     =  4.430000e-01 : u^00 coefficient for same-spin correlation
    Parameter  4 _css04     = -1.437000e+00 : u^04 coefficient for same-spin correlation
    Parameter  5 _css10     = -4.535000e+00 : u^10 coefficient for same-spin correlation
    Parameter  6 _css20     = -3.390000e+00 : u^20 coefficient for same-spin correlation
    Parameter  7 _css43     =  4.278000e+00 : u^43 coefficient for same-spin correlation
    Parameter  8 _cos00     =  1.000000e+00 : u^00 coefficient for opposite-spin correlation
    Parameter  9 _cos10     =  1.358000e+00 : u^10 coefficient for opposite-spin correlation
    Parameter 10 _cos20     =  2.924000e+00 : u^20 coefficient for opposite-spin correlation
    Parameter 11 _cos21     = -8.812000e+00 : u^21 coefficient for opposite-spin correlation
    Parameter 12 _cos60     = -1.390000e+00 : u^60 coefficient for opposite-spin correlation
    Parameter 13 _cos61     =  9.142000e+00 : u^61 coefficient for opposite-spin correlation
    Parameter 14 _alpha     =  1.000000e+00 : fraction of HF exchange
    Parameter 15 _beta      = -8.500000e-01 : fraction of short-range exchange
    Parameter 16 _omega     =  3.000000e-01 : range-separation constant
 Long-range corrected/Screened/Range-Separated Hybrid DFT is turned on
   Amount of maximum screened exact exchange              ....  0.850000
   Range separation parameter mu (erf(mu*r12)/r12)        ....  0.300000
 RI-approximation to the Coulomb term is turned on
   Number of AuxJ basis functions       .... 1014
   RIJ-COSX (HFX calculated with COS-X)).... on


General Settings:
 Integral files         IntName         .... orca
 Hartree-Fock type      HFTyp           .... UHF
 Total Charge           Charge          ....    0
 Multiplicity           Mult            ....    3
 Number of Electrons    NEL             ....  132
 Basis Dimension        Dim             ....  882
 Nuclear Repulsion      ENuc            ....   1421.1050746421 Eh

Convergence Acceleration:
 AO-DIIS                CNVDIIS         .... on
   Start iteration      DIISMaxIt       ....    12
   Startup error        DIISStart       ....  0.200000
   # of expansion vecs  DIISMaxEq       ....     5
   Bias factor          DIISBfac        ....   1.050
   Max. coefficient     DIISMaxC        ....  10.000
 MO-DIIS                CNVKDIIS        .... off
 Trust-Rad. Augm. Hess. CNVTRAH         .... auto
   Auto Start mean grad. ratio tolernc. ....  1.125000
   Auto Start start iteration           ....    50
   Auto Start num. interpolation iter.  ....    10
   Max. Number of Micro iterations      ....    24
   Max. Number of Macro iterations      .... Maxiter - #DIIS iter
   Number of Davidson start vectors     ....     2
   Converg. threshold    (grad. norm)   ....   1.000e-05
   Grad. Scal. Fac. for Micro threshold ....   0.100
   Minimum threshold for Micro iter.    ....   1.000e-02
   NR start threshold (gradient norm)   ....   1.000e-04
   Initial trust radius                 ....   0.400
   Minimum AH scaling param. (alpha)    ....   1.000
   Maximum AH scaling param. (alpha)    .... 1000.000
   Quad. conv. algorithm                .... NR
   White noise on init. David. guess    .... on
   Maximum white noise                  ....   0.010
   Pseudo random numbers                .... off
   Inactive MOs                         .... canonical
   Orbital update algorithm             .... Taylor
   Preconditioner                       .... Diag
   Full preconditioner red. dimension   ....   250
 SOSCF                  CNVSOSCF        .... on
   Start iteration      SOSCFMaxIt      ....   150
   Startup grad/error   SOSCFStart      ....  0.003300
   Hessian update       SOSCFHessUp     .... L-BFGS
 Level Shifting         CNVShift        .... on
   Level shift para.    LevelShift      ....    0.2500
   Turn off err/grad.   ShiftErr        ....    0.0010
 Zerner damping         CNVZerner       .... off
 Static damping         CNVDamp         .... on
   Fraction old density DampFac         ....    0.7000
   Max. Damping (<1)    DampMax         ....    0.9800
   Min. Damping (>=0)   DampMin         ....    0.0000
   Turn off err/grad.   DampErr         ....    0.1000

SCF Procedure:
 Maximum # iterations   MaxIter         ....   125
 SCF integral mode      SCFMode         .... Direct
   Integral package                     .... SHARK and LIBINT hybrid scheme
 Reset frequency        DirectResetFreq ....    20
 Integral Threshold     Thresh          ....  1.000e-12 Eh
 Primitive CutOff       TCut            ....  1.000e-13 Eh

Convergence Tolerance:
 Convergence Check Mode ConvCheckMode   .... Total+1el-Energy
 Convergence forced     ConvForced      .... 1
 Energy Change          TolE            ....  1.000e-08 Eh
 1-El. energy change                    ....  1.000e-05 Eh
 Orbital Gradient       TolG            ....  1.000e-05
 Orbital Rotation angle TolX            ....  1.000e-05
 DIIS Error             TolErr          ....  5.000e-07

------------------------------
INITIAL GUESS: MODEL POTENTIAL
------------------------------
Loading Hartree-Fock densities                     ... done
Calculating cut-offs                               ... done
Initializing the effective Hamiltonian             ... done
Setting up the integral package (SHARK)            ... done
Starting the Coulomb interaction                   ... done (   0.1 sec)
Making the grid                                    ... done (   0.3 sec)
Mapping shells                                     ... done
Starting the XC term evaluation                    ... done (   0.1 sec)
  promolecular density results
     # of electrons  =    131.993784058
     EX              =   -113.511700686
     EC              =     -4.474904621
     EX+EC           =   -117.986605307
Transforming the Hamiltonian                       ... done (   0.1 sec)
Diagonalizing the Hamiltonian                      ... done (   0.1 sec)
Back transforming the eigenvectors                 ... done (   0.1 sec)
Now organizing SCF variables                       ... done
                      ------------------
                      INITIAL GUESS DONE (   1.1 sec)
                      ------------------
             **** ENERGY FILE WAS UPDATED (orca.en.tmp) ****
Finished Guess after   3.5 sec
Maximum memory used throughout the entire GUESS-calculation: 71.6 MB
[1738799642.565759] [ohm:3009944:0]        ib_iface.c:1059 UCX  ERROR ibv_create_cq(cqe=256) failed: Connection timed out
[1738799642.579989] [ohm:3009939:0]        ib_iface.c:1059 UCX  ERROR ibv_create_cq(cqe=256) failed: Connection timed out
[1738799642.583278] [ohm:3009943:0]        ib_iface.c:1059 UCX  ERROR ibv_create_cq(cqe=256) failed: Connection timed out
[1738799642.593118] [ohm:3009942:0]        ib_iface.c:1059 UCX  ERROR ibv_create_cq(cqe=256) failed: Connection timed out
[1738799642.598633] [ohm:3009938:0]        ib_iface.c:1059 UCX  ERROR ibv_create_cq(cqe=256) failed: Connection timed out
[1738799642.639168] [ohm:3009941:0]        ib_iface.c:1059 UCX  ERROR ibv_create_cq(cqe=256) failed: Connection timed out
[1738799642.645835] [ohm:3009945:0]        ib_iface.c:1059 UCX  ERROR ibv_create_cq(cqe=256) failed: Connection timed out
[1738799642.648523] [ohm:3009940:0]        ib_iface.c:1059 UCX  ERROR ibv_create_cq(cqe=256) failed: Connection timed out
[1738799642.653632] [ohm:3009949:0]        ib_iface.c:1059 UCX  ERROR ibv_create_cq(cqe=256) failed: Connection timed out
[1738799642.655451] [ohm:3009948:0]        ib_iface.c:1059 UCX  ERROR ibv_create_cq(cqe=256) failed: Connection timed out
[1738799642.656209] [ohm:3009946:0]        ib_iface.c:1059 UCX  ERROR ibv_create_cq(cqe=256) failed: Connection timed out
[1738799642.656258] [ohm:3009961:0]        ib_iface.c:1059 UCX  ERROR ibv_create_cq(cqe=256) failed: Connection timed out
[1738799642.666115] [ohm:3009965:0]        ib_iface.c:1059 UCX  ERROR ibv_create_cq(cqe=256) failed: Connection timed out
[1738799642.667569] [ohm:3009967:0]        ib_iface.c:1059 UCX  ERROR ibv_create_cq(cqe=256) failed: Connection timed out
[1738799642.673727] [ohm:3009947:0]        ib_iface.c:1059 UCX  ERROR ibv_create_cq(cqe=256) failed: Connection timed out
[1738799642.678851] [ohm:3009976:0]        ib_iface.c:1059 UCX  ERROR ibv_create_cq(cqe=256) failed: Connection timed out
[1738799642.718753] [ohm:3010044:0]        ib_iface.c:1059 UCX  ERROR ibv_create_cq(cqe=256) failed: Connection timed out
[1738799642.734349] [ohm:3010031:0]        ib_iface.c:1059 UCX  ERROR ibv_create_cq(cqe=256) failed: Connection timed out
[1738799642.757564] [ohm:3010019:0]        ib_iface.c:1059 UCX  ERROR ibv_create_cq(cqe=256) failed: Connection timed out
[1738799642.768715] [ohm:3009992:0]        ib_iface.c:1059 UCX  ERROR ibv_create_cq(cqe=256) failed: Connection timed out
[1738799642.769022] [ohm:3010050:0]        ib_iface.c:1059 UCX  ERROR ibv_create_cq(cqe=256) failed: Connection timed out
[1738799642.782373] [ohm:3009988:0]        ib_iface.c:1059 UCX  ERROR ibv_create_cq(cqe=256) failed: Connection timed out
[1738799642.788470] [ohm:3010004:0]        ib_iface.c:1059 UCX  ERROR ibv_create_cq(cqe=256) failed: Connection timed out
[1738799642.792784] [ohm:3009971:0]        ib_iface.c:1059 UCX  ERROR ibv_create_cq(cqe=256) failed: Connection timed out
[1738799642.792906] [ohm:3010027:0]        ib_iface.c:1059 UCX  ERROR ibv_create_cq(cqe=256) failed: Connection timed out
[1738799642.794174] [ohm:3009977:0]        ib_iface.c:1059 UCX  ERROR ibv_create_cq(cqe=256) failed: Connection timed out
[1738799642.798717] [ohm:3010061:0]        ib_iface.c:1059 UCX  ERROR ibv_create_cq(cqe=256) failed: Connection timed out
[1738799642.799878] [ohm:3009962:0]        ib_iface.c:1059 UCX  ERROR ibv_create_cq(cqe=256) failed: Connection timed out
[1738799642.805614] [ohm:3010038:0]        ib_iface.c:1059 UCX  ERROR ibv_create_cq(cqe=256) failed: Connection timed out
[1738799642.812218] [ohm:3010035:0]        ib_iface.c:1059 UCX  ERROR ibv_create_cq(cqe=256) failed: Connection timed out
[1738799642.812305] [ohm:3010046:0]        ib_iface.c:1059 UCX  ERROR ibv_create_cq(cqe=256) failed: Connection timed out
[1738799642.814442] [ohm:3010012:0]        ib_iface.c:1059 UCX  ERROR ibv_create_cq(cqe=256) failed: Connection timed out
[1738799642.817114] [ohm:3010008:0]        ib_iface.c:1059 UCX  ERROR ibv_create_cq(cqe=256) failed: Connection timed out
[1738799642.829163] [ohm:3010074:0]        ib_iface.c:1059 UCX  ERROR ibv_create_cq(cqe=256) failed: Connection timed out
[1738799642.832693] [ohm:3010055:0]        ib_iface.c:1059 UCX  ERROR ibv_create_cq(cqe=256) failed: Connection timed out
[1738799642.834647] [ohm:3009959:0]        ib_iface.c:1059 UCX  ERROR ibv_create_cq(cqe=256) failed: Connection timed out
[1738799642.843926] [ohm:3010041:0]        ib_iface.c:1059 UCX  ERROR ibv_create_cq(cqe=256) failed: Connection timed out
[1738799642.844088] [ohm:3009954:0]        ib_iface.c:1059 UCX  ERROR ibv_create_cq(cqe=256) failed: Connection timed out
[1738799642.849815] [ohm:3009964:0]        ib_iface.c:1059 UCX  ERROR ibv_create_cq(cqe=256) failed: Connection timed out
[1738799642.857334] [ohm:3010024:0]        ib_iface.c:1059 UCX  ERROR ibv_create_cq(cqe=256) failed: Connection timed out
[1738799642.866138] [ohm:3010057:0]        ib_iface.c:1059 UCX  ERROR ibv_create_cq(cqe=256) failed: Connection timed out
[1738799642.866279] [ohm:3010073:0]        ib_iface.c:1059 UCX  ERROR ibv_create_cq(cqe=256) failed: Connection timed out
[1738799642.874653] [ohm:3009950:0]        ib_iface.c:1059 UCX  ERROR ibv_create_cq(cqe=256) failed: Connection timed out
[1738799642.881837] [ohm:3009955:0]        ib_iface.c:1059 UCX  ERROR ibv_create_cq(cqe=256) failed: Connection timed out
[1738799642.884290] [ohm:3010081:0]        ib_iface.c:1059 UCX  ERROR ibv_create_cq(cqe=256) failed: Connection timed out
[1738799642.885098] [ohm:3010079:0]        ib_iface.c:1059 UCX  ERROR ibv_create_cq(cqe=256) failed: Connection timed out
[1738799642.885389] [ohm:3010017:0]        ib_iface.c:1059 UCX  ERROR ibv_create_cq(cqe=256) failed: Connection timed out
[1738799642.891206] [ohm:3009952:0]        ib_iface.c:1059 UCX  ERROR ibv_create_cq(cqe=256) failed: Connection timed out
[1738799642.892389] [ohm:3009984:0]        ib_iface.c:1059 UCX  ERROR ibv_create_cq(cqe=256) failed: Connection timed out
[1738799642.897317] [ohm:3009989:0]        ib_iface.c:1059 UCX  ERROR ibv_create_cq(cqe=256) failed: Connection timed out
[1738799642.899976] [ohm:3009958:0]        ib_iface.c:1059 UCX  ERROR ibv_create_cq(cqe=256) failed: Connection timed out
[1738799642.901537] [ohm:3009968:0]        ib_iface.c:1059 UCX  ERROR ibv_create_cq(cqe=256) failed: Connection timed out
[1738799642.905857] [ohm:3010053:0]        ib_iface.c:1059 UCX  ERROR ibv_create_cq(cqe=256) failed: Connection timed out
[1738799642.905862] [ohm:3009963:0]        ib_iface.c:1059 UCX  ERROR ibv_create_cq(cqe=256) failed: Connection timed out
[1738799642.906803] [ohm:3009956:0]        ib_iface.c:1059 UCX  ERROR ibv_create_cq(cqe=256) failed: Connection timed out
[1738799642.907704] [ohm:3010062:0]        ib_iface.c:1059 UCX  ERROR ibv_create_cq(cqe=256) failed: Connection timed out
[1738799642.907895] [ohm:3009957:0]        ib_iface.c:1059 UCX  ERROR ibv_create_cq(cqe=256) failed: Connection timed out
[1738799642.909766] [ohm:3009995:0]        ib_iface.c:1059 UCX  ERROR ibv_create_cq(cqe=256) failed: Connection timed out
[1738799642.909948] [ohm:3010067:0]        ib_iface.c:1059 UCX  ERROR ibv_create_cq(cqe=256) failed: Connection timed out
[1738799642.912272] [ohm:3009960:0]        ib_iface.c:1059 UCX  ERROR ibv_create_cq(cqe=256) failed: Connection timed out
[1738799642.912603] [ohm:3010069:0]        ib_iface.c:1059 UCX  ERROR ibv_create_cq(cqe=256) failed: Connection timed out
[1738799642.912689] [ohm:3009951:0]        ib_iface.c:1059 UCX  ERROR ibv_create_cq(cqe=256) failed: Connection timed out
[1738799642.913017] [ohm:3009953:0]        ib_iface.c:1059 UCX  ERROR ibv_create_cq(cqe=256) failed: Connection timed out
[1738799642.914180] [ohm:3010000:0]        ib_iface.c:1059 UCX  ERROR ibv_create_cq(cqe=256) failed: Connection timed out


           ************************************************************
           *        Program running with 64 parallel MPI-processes    *
           *              working on a common directory               *
           ************************************************************

-------------------------------------------------------------------------------------------
                                      ORCA LEAN-SCF
                              memory conserving SCF solver
-------------------------------------------------------------------------------------------

----------------------------------------D-I-I-S--------------------------------------------
Iteration    Energy (Eh)           Delta-E    RMSDP     MaxDP     DIISErr   Damp  Time(sec)
-------------------------------------------------------------------------------------------
               ***  Starting incremental Fock matrix formation  ***
    1    -907.9946670954523142     0.00e+00  1.28e-03  2.42e-01  1.46e-01  0.700   7.7
    2    -908.2631840729950454    -2.69e-01  1.02e-03  1.73e-01  6.99e-02  0.700   6.6
                               ***Turning on AO-DIIS***
    3    -908.3815974622475551    -1.18e-01  7.46e-04  1.26e-01  2.83e-02  0.700   5.9
    4    -908.4552663438075797    -7.37e-02  1.74e-03  2.91e-01  1.81e-02  0.000   5.7
    5    -908.6236753457919804    -1.68e-01  2.09e-04  6.11e-02  6.03e-03  0.000   5.9
    6    -908.6262568637725963    -2.58e-03  1.20e-04  1.81e-02  4.69e-03  0.000   5.7
    7    -908.6277503294618327    -1.49e-03  1.21e-04  2.03e-02  3.55e-03  0.000   5.6
                              *** Initializing SOSCF ***
---------------------------------------S-O-S-C-F--------------------------------------
Iteration    Energy (Eh)           Delta-E    RMSDP     MaxDP     MaxGrad    Time(sec)
--------------------------------------------------------------------------------------
    8    -908.6287568764237221    -1.01e-03  6.84e-05  1.03e-02  2.15e-03     6.5
               *** Restarting incremental Fock matrix formation ***
    9    -908.6291365570687049    -3.80e-04  3.09e-04  4.03e-02  4.17e-03     7.3
   10    -908.6292748114728965    -1.38e-04  2.60e-04  3.66e-02  2.27e-03     6.5
   11    -908.6293246534851278    -4.98e-05  2.22e-04  2.62e-02  7.95e-04     6.6
   12    -908.6293470912460180    -2.24e-05  4.63e-05  5.16e-03  3.55e-04     6.4
   13    -908.6293497355854925    -2.64e-06  2.75e-05  4.02e-03  2.00e-04     6.2
   14    -908.6293518464567569    -2.11e-06  1.33e-05  1.90e-03  1.67e-04     6.1
   15    -908.6293530154985092    -1.17e-06  6.05e-06  5.10e-04  1.10e-04     6.0
   16    -908.6293533885582292    -3.73e-07  3.90e-06  1.11e-03  5.27e-05     6.0
   17    -908.6293535410623008    -1.53e-07  1.43e-06  4.49e-04  2.61e-05     5.8
   18    -908.6293535752520256    -3.42e-08  1.44e-06  3.50e-04  1.95e-05     5.7
   19    -908.6293535903337215    -1.51e-08  1.08e-06  2.11e-04  1.09e-05     5.5
   20    -908.6293535892946238     1.04e-09  1.05e-06  3.10e-04  5.09e-06     5.5
                 **** Energy Check signals convergence ****

               *****************************************************
               *                     SUCCESS                       *
               *           SCF CONVERGED AFTER  20 CYCLES          *
               *****************************************************

Recomputing exchange energy using gridx3       ... done (    7.657 sec)
Old exchange energy                            :    -35.019010231 Eh
New exchange energy                            :    -35.018991190 Eh
Exchange energy change after final integration :      0.000019041 Eh
Total energy after final integration           :   -908.629334548 Eh
             **** ENERGY FILE WAS UPDATED (orca.en.tmp) ****

----------------
TOTAL SCF ENERGY
----------------

Total Energy       :       -908.62933454799497 Eh          -24725.06119 eV

Components:
Nuclear Repulsion  :       1421.10507464209422 Eh           38670.23504 eV
Electronic Energy  :      -2329.73442823138885 Eh          -63395.29675 eV
One Electron Energy:      -4059.17223112113788 Eh         -110455.69187 eV
Two Electron Energy:       1729.43780288974926 Eh           47060.39512 eV

Virial components:
Potential Energy   :      -1814.35519141781424 Eh          -49371.11474 eV
Kinetic Energy     :        905.72585686981938 Eh           24646.05355 eV
Virial Ratio       :          2.00320569149721

DFT components:
N(Alpha)           :       66.999995153762 electrons
N(Beta)            :       65.000025764838 electrons
N(Total)           :      132.000020918599 electrons
E(XC)              :      -86.221673505571 Eh       

---------------
SCF CONVERGENCE
---------------

  Last Energy change         ...   -1.0391e-09  Tolerance :   1.0000e-08
  Last MAX-Density change    ...    3.0999e-04  Tolerance :   1.0000e-07
  Last RMS-Density change    ...    1.0515e-06  Tolerance :   5.0000e-09
  Last DIIS Error            ...    2.1492e-03  Tolerance :   5.0000e-07
  Last Orbital Gradient      ...    5.0872e-06  Tolerance :   1.0000e-05
  Last Orbital Rotation      ...    3.7102e-05  Tolerance :   1.0000e-05


----------------------
UHF SPIN CONTAMINATION
----------------------

Warning: in a DFT calculation there is little theoretical justification to 
         calculate <S**2> as in Hartree-Fock theory. We will do it anyways
         but you should keep in mind that the values have only limited relevance

Expectation value of <S**2>     :     2.011372
Ideal value S*(S+1) for S=1.0   :     2.000000
Deviation                       :     0.011372

----------------
ORBITAL ENERGIES
----------------
                 SPIN UP ORBITALS
  NO   OCC          E(Eh)            E(eV) 
   0   1.0000     -19.338952      -526.2396 
   1   1.0000     -19.332250      -526.0573 
   2   1.0000     -19.326492      -525.9006 
   3   1.0000     -19.320430      -525.7356 
   4   1.0000     -14.576344      -396.6425 
   5   1.0000     -14.574314      -396.5872 
   6   1.0000     -14.564710      -396.3259 
   7   1.0000     -14.562672      -396.2704 
   8   1.0000     -10.519148      -286.2406 
   9   1.0000     -10.507006      -285.9102 
  10   1.0000     -10.487117      -285.3690 
  11   1.0000     -10.482578      -285.2454 
  12   1.0000     -10.448394      -284.3153 
  13   1.0000     -10.445243      -284.2295 
  14   1.0000     -10.413327      -283.3610 
  15   1.0000     -10.405356      -283.1441 
  16   1.0000     -10.376762      -282.3661 
  17   1.0000     -10.365914      -282.0708 
  18   1.0000      -1.230149       -33.4741 
  19   1.0000      -1.219940       -33.1962 
  20   1.0000      -1.206401       -32.8279 
  21   1.0000      -1.194955       -32.5164 
  22   1.0000      -1.123272       -30.5658 
  23   1.0000      -1.096562       -29.8390 
  24   1.0000      -1.076006       -29.2796 
  25   1.0000      -1.061961       -28.8974 
  26   1.0000      -0.980625       -26.6842 
  27   1.0000      -0.940683       -25.5973 
  28   1.0000      -0.881927       -23.9984 
  29   1.0000      -0.827695       -22.5227 
  30   1.0000      -0.816262       -22.2116 
  31   1.0000      -0.806801       -21.9542 
  32   1.0000      -0.790526       -21.5113 
  33   1.0000      -0.781523       -21.2663 
  34   1.0000      -0.724091       -19.7035 
  35   1.0000      -0.698162       -18.9980 
  36   1.0000      -0.691169       -18.8077 
  37   1.0000      -0.658265       -17.9123 
  38   1.0000      -0.642702       -17.4888 
  39   1.0000      -0.636597       -17.3227 
  40   1.0000      -0.616175       -16.7670 
  41   1.0000      -0.607955       -16.5433 
  42   1.0000      -0.599242       -16.3062 
  43   1.0000      -0.591480       -16.0950 
  44   1.0000      -0.579141       -15.7592 
  45   1.0000      -0.571117       -15.5409 
  46   1.0000      -0.567240       -15.4354 
  47   1.0000      -0.560924       -15.2635 
  48   1.0000      -0.556648       -15.1472 
  49   1.0000      -0.553184       -15.0529 
  50   1.0000      -0.547034       -14.8856 
  51   1.0000      -0.544986       -14.8298 
  52   1.0000      -0.530392       -14.4327 
  53   1.0000      -0.515176       -14.0186 
  54   1.0000      -0.511438       -13.9169 
  55   1.0000      -0.495668       -13.4878 
  56   1.0000      -0.443148       -12.0587 
  57   1.0000      -0.429642       -11.6911 
  58   1.0000      -0.416275       -11.3274 
  59   1.0000      -0.410984       -11.1834 
  60   1.0000      -0.406919       -11.0728 
  61   1.0000      -0.397331       -10.8119 
  62   1.0000      -0.395856       -10.7718 
  63   1.0000      -0.390702       -10.6315 
  64   1.0000      -0.382877       -10.4186 
  65   1.0000      -0.345228        -9.3941 
  66   1.0000      -0.303074        -8.2471 
  67   0.0000       0.001027         0.0279 
  68   0.0000       0.012599         0.3428 
  69   0.0000       0.030088         0.8187 
  70   0.0000       0.034752         0.9457 
  71   0.0000       0.040588         1.1044 
  72   0.0000       0.051726         1.4075 
  73   0.0000       0.058237         1.5847 
  74   0.0000       0.059850         1.6286 
  75   0.0000       0.063734         1.7343 
  76   0.0000       0.064689         1.7603 
  77   0.0000       0.070414         1.9161 

                 SPIN DOWN ORBITALS
  NO   OCC          E(Eh)            E(eV) 
   0   1.0000     -19.332958      -526.0765 
   1   1.0000     -19.332252      -526.0573 
   2   1.0000     -19.326400      -525.8981 
   3   1.0000     -19.320427      -525.7356 
   4   1.0000     -14.576378      -396.6434 
   5   1.0000     -14.574302      -396.5869 
   6   1.0000     -14.564620      -396.3235 
   7   1.0000     -14.562641      -396.2696 
   8   1.0000     -10.519179      -286.2414 
   9   1.0000     -10.507009      -285.9102 
  10   1.0000     -10.487669      -285.3840 
  11   1.0000     -10.482604      -285.2461 
  12   1.0000     -10.448217      -284.3104 
  13   1.0000     -10.444755      -284.2162 
  14   1.0000     -10.413004      -283.3523 
  15   1.0000     -10.378103      -282.4026 
  16   1.0000     -10.376955      -282.3713 
  17   1.0000     -10.365844      -282.0690 
  18   1.0000      -1.229209       -33.4485 
  19   1.0000      -1.219771       -33.1917 
  20   1.0000      -1.197385       -32.5825 
  21   1.0000      -1.194823       -32.5128 
  22   1.0000      -1.123034       -30.5593 
  23   1.0000      -1.095943       -29.8221 
  24   1.0000      -1.074386       -29.2355 
  25   1.0000      -1.061785       -28.8926 
  26   1.0000      -0.979999       -26.6671 
  27   1.0000      -0.911925       -24.8147 
  28   1.0000      -0.881409       -23.9844 
  29   1.0000      -0.826068       -22.4785 
  30   1.0000      -0.812241       -22.1022 
  31   1.0000      -0.802729       -21.8434 
  32   1.0000      -0.786250       -21.3950 
  33   1.0000      -0.777028       -21.1440 
  34   1.0000      -0.715254       -19.4631 
  35   1.0000      -0.695977       -18.9385 
  36   1.0000      -0.688794       -18.7430 
  37   1.0000      -0.655670       -17.8417 
  38   1.0000      -0.639342       -17.3974 
  39   1.0000      -0.632439       -17.2095 
  40   1.0000      -0.613637       -16.6979 
  41   1.0000      -0.598270       -16.2798 
  42   1.0000      -0.589631       -16.0447 
  43   1.0000      -0.584527       -15.9058 
  44   1.0000      -0.573553       -15.6072 
  45   1.0000      -0.564534       -15.3617 
  46   1.0000      -0.557833       -15.1794 
  47   1.0000      -0.556297       -15.1376 
  48   1.0000      -0.555274       -15.1098 
  49   1.0000      -0.551353       -15.0031 
  50   1.0000      -0.538738       -14.6598 
  51   1.0000      -0.531704       -14.4684 
  52   1.0000      -0.529573       -14.4104 
  53   1.0000      -0.514702       -14.0058 
  54   1.0000      -0.499691       -13.5973 
  55   1.0000      -0.495094       -13.4722 
  56   1.0000      -0.432253       -11.7622 
  57   1.0000      -0.427565       -11.6346 
  58   1.0000      -0.415879       -11.3166 
  59   1.0000      -0.402121       -10.9423 
  60   1.0000      -0.394825       -10.7437 
  61   1.0000      -0.391850       -10.6628 
  62   1.0000      -0.386434       -10.5154 
  63   1.0000      -0.382383       -10.4052 
  64   1.0000      -0.342063        -9.3080 
  65   0.0000      -0.063251        -1.7212 
  66   0.0000      -0.001377        -0.0375 
  67   0.0000       0.012703         0.3457 
  68   0.0000       0.027870         0.7584 
  69   0.0000       0.032629         0.8879 
  70   0.0000       0.035846         0.9754 
  71   0.0000       0.042503         1.1566 
  72   0.0000       0.055567         1.5121 
  73   0.0000       0.057990         1.5780 
  74   0.0000       0.061258         1.6669 
  75   0.0000       0.063289         1.7222 
*Only the first 10 virtual orbitals were printed.

                    ********************************
                    * MULLIKEN POPULATION ANALYSIS *
                    ********************************

--------------------------------------------
MULLIKEN ATOMIC CHARGES AND SPIN POPULATIONS
--------------------------------------------
   0 O :   -0.675387    0.003242
   1 O :   -0.604884    0.196285
   2 O :   -0.646815    0.000059
   3 O :   -0.636252    0.000211
   4 N :   -0.247360    0.002595
   5 N :   -0.154910    0.000112
   6 N :    0.024282    0.001282
   7 N :    0.055970    0.001464
   8 C :    0.892567   -0.002616
   9 C :   -0.164207    1.516255
  10 C :    0.512946    0.008985
  11 C :   -0.692400    0.032637
  12 C :   -1.623192    0.013615
  13 C :   -1.096481    0.050529
  14 C :    0.309464   -0.003095
  15 C :    0.924162    0.073609
  16 C :    0.423479   -0.000582
  17 C :    0.439601   -0.003477
  18 H :    0.327093    0.001182
  19 H :    0.482177    0.015363
  20 H :    0.285233   -0.000362
  21 H :    0.329541   -0.003599
  22 H :    0.405523    0.003065
  23 H :    0.260549    0.031844
  24 H :    0.311428    0.027156
  25 H :    0.366691    0.032956
  26 H :    0.043936    0.000215
[...]
[1738799949.320124] [ohm:3011096:0]        ib_iface.c:1059 UCX  ERROR ibv_create_cq(cqe=256) failed: Connection timed out
[1738799949.320285] [ohm:3011078:0]        ib_iface.c:1059 UCX  ERROR ibv_create_cq(cqe=256) failed: Connection timed out
[1738799949.320570] [ohm:3011085:0]        ib_iface.c:1059 UCX  ERROR ibv_create_cq(cqe=256) failed: Connection timed out
[1738799949.321570] [ohm:3011088:0]        ib_iface.c:1059 UCX  ERROR ibv_create_cq(cqe=256) failed: Connection timed out
[1738799949.321837] [ohm:3011090:0]        ib_iface.c:1059 UCX  ERROR ibv_create_cq(cqe=256) failed: Connection timed out
[1738799949.322282] [ohm:3011083:0]        ib_iface.c:1059 UCX  ERROR ibv_create_cq(cqe=256) failed: Connection timed out
[1738799949.322816] [ohm:3011098:0]        ib_iface.c:1059 UCX  ERROR ibv_create_cq(cqe=256) failed: Connection timed out
[1738799949.322859] [ohm:3011180:0]        ib_iface.c:1059 UCX  ERROR ibv_create_cq(cqe=256) failed: Connection timed out
[1738799949.322926] [ohm:3011092:0]        ib_iface.c:1059 UCX  ERROR ibv_create_cq(cqe=256) failed: Connection timed out
[1738799949.324941] [ohm:3011087:0]        ib_iface.c:1059 UCX  ERROR ibv_create_cq(cqe=256) failed: Connection timed out


           ************************************************************
           *        Program running with 64 parallel MPI-processes    *
           *              working on a common directory               *
           ************************************************************

------------------------------------------------------------------------------
                              ORCA PROPERTY CALCULATIONS
------------------------------------------------------------------------------

GBWName                                 ... orca.gbw
Number of atoms                         ...     30
Number of basis functions               ...    882
Max core memory                         ...   1024 MB

Electric properties:
Dipole moment                           ... YES
Quadrupole moment                       ...  NO
Static polarizability (Dipole/Dipole)   ...  NO
Static polarizability (Dipole/Quad.)    ...  NO
Static polarizability (Quad./Quad.)     ...  NO
Static polarizability (Velocity)        ...  NO

Atomic electric properties:
Dipole moment                           ...  NO
Quadrupole moment                       ...  NO
Static polarizability                   ...  NO

Choice of electric origin               ... Center of mass
Position of electric origin             ...     0.181732    -0.004828     0.064310

General magnetic properties:
Magnetizability                         ...  NO

EPR properties:
g-Tensor (aka g-matrix)                 ...  NO
Zero-Field splitting spin-orbit         ...  NO
Zero-field splitting spin-spin          ...  NO
Hyperfine couplings                     ...  NO (   0 nuclei)
Quadrupole couplings                    ...  NO (   0 nuclei)
Contact density                         ...  NO (   0 nuclei)

NMR properties:
Chemical shifts                         ...  NO (   0 nuclei)
Spin-rotation constants                 ...  NO (   0 nuclei)
Spin-spin couplings                     ...  NO (   0 nuclei,    0 pairs)

Choice of magnetic origin               ... GIAO
Position of magnetic origin             ...     0.000000     0.000000     0.000000

Properties with geometric perturbations:
SCF Hessian                             ...  NO
IR spectrum                             ...  NO
VCD spectrum                            ...  NO
X-ray spectroscopy properties:
SCF XES/XAS/RIXS spectra                ...  NO


-------------
DIPOLE MOMENT
-------------

Method             : SCF
Type of density    : Electron Density
Multiplicity       :   3
Irrep              :   0
Energy             :  -908.6293345479949721 Eh
Relativity type    : 
Basis              : AO
                                X                 Y                 Z
Electronic contribution:      0.186205321      -9.822183284      -6.001299436
Nuclear contribution   :     -0.614647801      10.865674566       8.556946345
                        -----------------------------------------
Total Dipole Moment    :     -0.428442480       1.043491282       2.555646910
                        -----------------------------------------
Magnitude (a.u.)       :      2.793522533
Magnitude (Debye)      :      7.100569987



--------------------
Rotational spectrum 
--------------------
 
Rotational constants in cm-1:             0.022546             0.011942             0.010919 
Rotational constants in MHz :           675.926591           358.019519           327.353544 

Dipole components along the rotational axes: 
x,y,z [a.u.] :     0.202028     1.188595     2.519959 
x,y,z [Debye]:     0.513514     3.021169     6.405227 

 

-------------
DIPOLE MOMENT
-------------

Method             : TDA/CIS
Type of density    : Electron Density
Level              : Relaxed density
State              :   2
Multiplicity       :   3
Irrep              :   0
Energy             :     0.0000000000000000 Eh
Relativity type    : 
Basis              : AO
                                X                 Y                 Z
Electronic contribution:      0.033502115      -9.780922034      -6.095826603
Nuclear contribution   :     -0.614647801      10.865674566       8.556946345
                        -----------------------------------------
Total Dipole Moment    :     -0.581145685       1.084752533       2.461119743
                        -----------------------------------------
Magnitude (a.u.)       :      2.751641102
Magnitude (Debye)      :      6.994115849



--------------------
Rotational spectrum 
--------------------
 
Rotational constants in cm-1:             0.022546             0.011942             0.010919 
Rotational constants in MHz :           675.926591           358.019519           327.353544 

Dipole components along the rotational axes: 
x,y,z [a.u.] :     0.311923     1.040898     2.527996 
x,y,z [Debye]:     0.792845     2.645751     6.425656 

 

Dipole moment calculation done in   0.2 sec 

Maximum memory used throughout the entire PROP-calculation: 80.9 MB
[1738799951.775694] [ohm:3011410:0]        ib_iface.c:1059 UCX  ERROR ibv_create_cq(cqe=256) failed: Connection timed out
[1738799951.783675] [ohm:3011416:0]        ib_iface.c:1059 UCX  ERROR ibv_create_cq(cqe=256) failed: Connection timed out
[1738799951.792162] [ohm:3011411:0]        ib_iface.c:1059 UCX  ERROR ibv_create_cq(cqe=256) failed: Connection timed out
[1738799951.799628] [ohm:3011414:0]        ib_iface.c:1059 UCX  ERROR ibv_create_cq(cqe=256) failed: Connection timed out
[1738799951.803094] [ohm:3011409:0]        ib_iface.c:1059 UCX  ERROR ibv_create_cq(cqe=256) failed: Connection timed out
[1738799951.806278] [ohm:3011406:0]        ib_iface.c:1059 UCX  ERROR ibv_create_cq(cqe=256) failed: Connection timed out
[1738799951.812301] [ohm:3011404:0]        ib_iface.c:1059 UCX  ERROR ibv_create_cq(cqe=256) failed: Connection timed out
[1738799951.820459] [ohm:3011407:0]        ib_iface.c:1059 UCX  ERROR ibv_create_cq(cqe=256) failed: Connection timed out
[1738799951.839483] [ohm:3011430:0]        ib_iface.c:1059 UCX  ERROR ibv_create_cq(cqe=256) failed: Connection timed out
[1738799951.840497] [ohm:3011423:0]        ib_iface.c:1059 UCX  ERROR ibv_create_cq(cqe=256) failed: Connection timed out
[1738799951.865548] [ohm:3011439:0]        ib_iface.c:1059 UCX  ERROR ibv_create_cq(cqe=256) failed: Connection timed out
[1738799951.880833] [ohm:3011426:0]        ib_iface.c:1059 UCX  ERROR ibv_create_cq(cqe=256) failed: Connection timed out
[1738799951.885243] [ohm:3011422:0]        ib_iface.c:1059 UCX  ERROR ibv_create_cq(cqe=256) failed: Connection timed out
[1738799951.885675] [ohm:3011492:0]        ib_iface.c:1059 UCX  ERROR ibv_create_cq(cqe=256) failed: Connection timed out
[1738799951.892942] [ohm:3011445:0]        ib_iface.c:1059 UCX  ERROR ibv_create_cq(cqe=256) failed: Connection timed out
[1738799951.899607] [ohm:3011461:0]        ib_iface.c:1059 UCX  ERROR ibv_create_cq(cqe=256) failed: Connection timed out
[1738799951.916447] [ohm:3011437:0]        ib_iface.c:1059 UCX  ERROR ibv_create_cq(cqe=256) failed: Connection timed out
[1738799951.920561] [ohm:3011459:0]        ib_iface.c:1059 UCX  ERROR ibv_create_cq(cqe=256) failed: Connection timed out
[1738799951.930407] [ohm:3011432:0]        ib_iface.c:1059 UCX  ERROR ibv_create_cq(cqe=256) failed: Connection timed out
[1738799951.944796] [ohm:3011490:0]        ib_iface.c:1059 UCX  ERROR ibv_create_cq(cqe=256) failed: Connection timed out
[1738799951.954650] [ohm:3011497:0]        ib_iface.c:1059 UCX  ERROR ibv_create_cq(cqe=256) failed: Connection timed out
[1738799951.962704] [ohm:3011455:0]        ib_iface.c:1059 UCX  ERROR ibv_create_cq(cqe=256) failed: Connection timed out
[1738799951.970256] [ohm:3011546:0]        ib_iface.c:1059 UCX  ERROR ibv_create_cq(cqe=256) failed: Connection timed out
[1738799951.971116] [ohm:3011418:0]        ib_iface.c:1059 UCX  ERROR ibv_create_cq(cqe=256) failed: Connection timed out
[1738799951.972347] [ohm:3011505:0]        ib_iface.c:1059 UCX  ERROR ibv_create_cq(cqe=256) failed: Connection timed out
[1738799951.973080] [ohm:3011540:0]        ib_iface.c:1059 UCX  ERROR ibv_create_cq(cqe=256) failed: Connection timed out
[1738799951.976408] [ohm:3011413:0]        ib_iface.c:1059 UCX  ERROR ibv_create_cq(cqe=256) failed: Connection timed out
[1738799951.977434] [ohm:3011419:0]        ib_iface.c:1059 UCX  ERROR ibv_create_cq(cqe=256) failed: Connection timed out
[1738799951.978541] [ohm:3011548:0]        ib_iface.c:1059 UCX  ERROR ibv_create_cq(cqe=256) failed: Connection timed out
[1738799951.987795] [ohm:3011513:0]        ib_iface.c:1059 UCX  ERROR ibv_create_cq(cqe=256) failed: Connection timed out
[1738799952.009164] [ohm:3011431:0]        ib_iface.c:1059 UCX  ERROR ibv_create_cq(cqe=256) failed: Connection timed out
[1738799952.012766] [ohm:3011478:0]        ib_iface.c:1059 UCX  ERROR ibv_create_cq(cqe=256) failed: Connection timed out
[1738799952.015588] [ohm:3011428:0]        ib_iface.c:1059 UCX  ERROR ibv_create_cq(cqe=256) failed: Connection timed out
[1738799952.016495] [ohm:3011538:0]        ib_iface.c:1059 UCX  ERROR ibv_create_cq(cqe=256) failed: Connection timed out
[1738799952.016567] [ohm:3011420:0]        ib_iface.c:1059 UCX  ERROR ibv_create_cq(cqe=256) failed: Connection timed out
[1738799952.024236] [ohm:3011484:0]        ib_iface.c:1059 UCX  ERROR ibv_create_cq(cqe=256) failed: Connection timed out
[1738799952.028935] [ohm:3011515:0]        ib_iface.c:1059 UCX  ERROR ibv_create_cq(cqe=256) failed: Connection timed out
[1738799952.033071] [ohm:3011405:0]        ib_iface.c:1059 UCX  ERROR ibv_create_cq(cqe=256) failed: Connection timed out
[1738799952.034409] [ohm:3011524:0]        ib_iface.c:1059 UCX  ERROR ibv_create_cq(cqe=256) failed: Connection timed out
[1738799952.065392] [ohm:3011521:0]        ib_iface.c:1059 UCX  ERROR ibv_create_cq(cqe=256) failed: Connection timed out
[1738799952.069362] [ohm:3011417:0]        ib_iface.c:1059 UCX  ERROR ibv_create_cq(cqe=256) failed: Connection timed out
[1738799952.071916] [ohm:3011537:0]        ib_iface.c:1059 UCX  ERROR ibv_create_cq(cqe=256) failed: Connection timed out
[1738799952.084001] [ohm:3011467:0]        ib_iface.c:1059 UCX  ERROR ibv_create_cq(cqe=256) failed: Connection timed out
[1738799952.084549] [ohm:3011452:0]        ib_iface.c:1059 UCX  ERROR ibv_create_cq(cqe=256) failed: Connection timed out
[1738799952.086946] [ohm:3011501:0]        ib_iface.c:1059 UCX  ERROR ibv_create_cq(cqe=256) failed: Connection timed out
[1738799952.089234] [ohm:3011427:0]        ib_iface.c:1059 UCX  ERROR ibv_create_cq(cqe=256) failed: Connection timed out
[1738799952.092665] [ohm:3011408:0]        ib_iface.c:1059 UCX  ERROR ibv_create_cq(cqe=256) failed: Connection timed out
[1738799952.095299] [ohm:3011481:0]        ib_iface.c:1059 UCX  ERROR ibv_create_cq(cqe=256) failed: Connection timed out
[1738799952.097397] [ohm:3011486:0]        ib_iface.c:1059 UCX  ERROR ibv_create_cq(cqe=256) failed: Connection timed out
[1738799952.099150] [ohm:3011508:0]        ib_iface.c:1059 UCX  ERROR ibv_create_cq(cqe=256) failed: Connection timed out
[1738799952.100074] [ohm:3011447:0]        ib_iface.c:1059 UCX  ERROR ibv_create_cq(cqe=256) failed: Connection timed out
[1738799952.102601] [ohm:3011470:0]        ib_iface.c:1059 UCX  ERROR ibv_create_cq(cqe=256) failed: Connection timed out
[1738799952.103511] [ohm:3011518:0]        ib_iface.c:1059 UCX  ERROR ibv_create_cq(cqe=256) failed: Connection timed out
[1738799952.105376] [ohm:3011511:0]        ib_iface.c:1059 UCX  ERROR ibv_create_cq(cqe=256) failed: Connection timed out
[1738799952.107586] [ohm:3011412:0]        ib_iface.c:1059 UCX  ERROR ibv_create_cq(cqe=256) failed: Connection timed out
[1738799952.110427] [ohm:3011425:0]        ib_iface.c:1059 UCX  ERROR ibv_create_cq(cqe=256) failed: Connection timed out
[1738799952.110426] [ohm:3011531:0]        ib_iface.c:1059 UCX  ERROR ibv_create_cq(cqe=256) failed: Connection timed out
[1738799952.110985] [ohm:3011424:0]        ib_iface.c:1059 UCX  ERROR ibv_create_cq(cqe=256) failed: Connection timed out
[1738799952.111468] [ohm:3011463:0]        ib_iface.c:1059 UCX  ERROR ibv_create_cq(cqe=256) failed: Connection timed out
[1738799952.115169] [ohm:3011415:0]        ib_iface.c:1059 UCX  ERROR ibv_create_cq(cqe=256) failed: Connection timed out
[1738799952.115417] [ohm:3011530:0]        ib_iface.c:1059 UCX  ERROR ibv_create_cq(cqe=256) failed: Connection timed out
[1738799952.117455] [ohm:3011542:0]        ib_iface.c:1059 UCX  ERROR ibv_create_cq(cqe=256) failed: Connection timed out
[1738799952.117878] [ohm:3011421:0]        ib_iface.c:1059 UCX  ERROR ibv_create_cq(cqe=256) failed: Connection timed out
[1738799952.117913] [ohm:3011474:0]        ib_iface.c:1059 UCX  ERROR ibv_create_cq(cqe=256) failed: Connection timed out

--------------------------------
SUGGESTED CITATIONS FOR THIS RUN
--------------------------------

Below you find a list of papers that are relevant to this ORCA run
We neither can nor want to force you to cite these papers, but we appreciate if you do
You receive ORCA, which is the product of decades of hard work by many enthusiastic individuals, for free
The only thing we kindly ask in return is that you cite our papers,
We deeply appreciate it, if you show your appreciation for ORCA by not just citing the generic ORCA reference.

Please note that relegating all ORCA citations to the supporting information does *not* help us.
SI sections are not indexed - citations you put there will not count into any citation statistics
But we need these citations in order to attract the funding resources that allow us to do what we are doing

Therefore, if you are a happy ORCA user, please consider citing a few of the papers listed below in the main body of your paper

In addition to the list printed below, the program has created the file orca.bibtex that contains the list in bibtex format
You can import this file easily into all common literature databanks and citation aid programs


List of essential papers. We consider these as the minimum necessary citations

  1. Neese,F.
     Software update: the ORCA program system, version 5.0
     WIRES Comput. Molec. Sci., 2022 12(1)e1606
     doi.org/10.1002/wcms.1606

List of papers to cite with high priority. The work reported in these papers was absolutely
necessary for this run to complete.
Our perspective: the developers of density functionals and basis sets usually get cited in chemistry papers
Good! But without the algorithms to do something with them, the functionals or basis sets would not do anything.
Hence, in our opinion, the algorithm design and method developments papers are equally worthy of getting cited

  1. Neese,F.; Olbrich,G.
     Efficient use of the resolution of the identity approximation in time-dependent density functional calculations with hybrid density functionals
     Chem. Phys. Lett., 2002 362 170-178
     doi.org/10.1016/s0009-2614(02)01053-9
  2. Neese,F.
     An improvement of the resolution of the identity approximation for the formation of the Coulomb matrix
     J. Comp. Chem., 2003 24(14)1740-1747
     doi.org/10.1002/jcc.10318
  3. Neese,F.; Wennmohs,F.; Hansen,A.; Becker,U.
     Efficient, approximate and parallel Hartree-Fock and hybrid DFT calculations. A 'chain-of-spheres' algorithm for the Hartree-Fock exchange
     Chem. Phys., 2009 356(1-3)98-109
     doi.org/10.1016/j.chemphys.2008.10.036
  4. Petrenko,T.; Kossmann,S.; Neese,F.
     Efficient time-dependent density functional theory approximations for hybrid density functionals: Analytical gradients and parallelization
     J. Chem. Phys., 2011 134 054116
     doi.org/10.1063/1.3533441
  5. Helmich-Paris,B.; de Souza,B.; Neese,F.; Izsák,R.
     An improved chain of spheres for exchange algorithm
     J. Chem. Phys., 2021 155 104109
     doi.org/doi: 10.1063/5.0058766.
  6. Neese,F.
     The SHARK Integral Generation and Digestion System
     J. Comp. Chem., 2022  1-16
     doi.org/10.1002/jcc.26942
  7. Lehtola,S.; Steigemann,C.; Oliveira,M.; Marques,M.
     Recent developments in Libxc - A comprehensive library of functionals for density functional theory
     Software X, 2018 7 
     doi.org/10.1016/j.softx.2017.11.002
  8. Grimme,S.; Antony,J.; Ehrlich,S.; Krieg,H.
     A consistent and accurate ab initio parametrization of density functional dispersion correction (DFT-D) for the 94 elements H-Pu
     J. Chem. Phys., 2010 132 154104-XXXX
     doi.org/10.1063/1.3382344
  9. Grimme,S.; Ehrlich,S.; Goerigk,L.
     Effect of the damping function in dispersion corrected density functional theory
     J. Comput. Chem., 2011 32(7)1456-1465
     doi.org/10.1002/jcc.21759

List of suggested additional citations. These are papers that are important in the 'surrounding' of 
of this run, or papers that preceded the highly important papers. If you like your results we are grateful for a citation.

  1. Izsak,R.; Neese,F.
     An overlap fitted chain of spheres exchange method
     J. Chem. Phys., 2011 135 144105
     doi.org/10.1063/1.3646921
  2. Izsak,R.; Hansen,A.; Neese,F.
     The resolution of identity and chain of spheres approximations for the LPNO-CCSD singles Fock term
     Molec. Phys., 2012 110 2413-2417
     doi.org/10.1080/00268976.2012.687466
  3. Neese,F.
     The ORCA program system
     WIRES Comput. Molec. Sci., 2012 2(1)73-78
     doi.org/10.1002/wcms.81
  4. Izsak,R.; Neese,F.; Klopper,W.
     Robust fitting techniques in the chain of spheres approximation to the Fock exchange: The role of the complementary space
     J. Chem. Phys., 2013 139 
     doi.org/10.1063/1.4819264
  5. Neese,F.
     Software update: the ORCA program system, version 4.0
     WIRES Comput. Molec. Sci., 2018 8(1)1-6
     doi.org/10.1002/wcms.1327
  6. Neese,F.; Wennmohs,F.; Becker,U.; Riplinger,C.
     The ORCA quantum chemistry program package
     J. Chem. Phys., 2020 152 Art. No. L224108
     doi.org/10.1063/5.0004608

List of optional additional citations

  1. Neese,F.
     Approximate second-order SCF convergence for spin unrestricted wavefunctions
     Chem. Phys. Lett., 2000 325(1-3)93-98
     doi.org/10.1016/s0009-2614(00)00662-x

Timings for individual modules:

Sum of individual times          ...      319.458 sec (=   5.324 min)
Startup calculation              ...        6.276 sec (=   0.105 min)   2.0 %
SCF iterations                   ...      140.185 sec (=   2.336 min)  43.9 %
Property integrals               ...        4.312 sec (=   0.072 min)   1.3 %
Property calculations            ...        2.877 sec (=   0.048 min)   0.9 %
CIS module                       ...      165.808 sec (=   2.763 min)  51.9 %
                             ****ORCA TERMINATED NORMALLY****
TOTAL RUN TIME: 0 days 0 hours 5 minutes 21 seconds 578 msec
