
                                 *****************
                                 * O   R   C   A *
                                 *****************

                                            #,                                       
                                            ###                                      
                                            ####                                     
                                            #####                                    
                                            ######                                   
                                           ########,                                 
                                     ,,################,,,,,                         
                               ,,#################################,,                 
                          ,,##########################################,,             
                       ,#########################################, ''#####,          
                    ,#############################################,,   '####,        
                  ,##################################################,,,,####,       
                ,###########''''           ''''###############################       
              ,#####''   ,,,,##########,,,,          '''####'''          '####       
            ,##' ,,,,###########################,,,                        '##       
           ' ,,###''''                  '''############,,,                           
         ,,##''                                '''############,,,,        ,,,,,,###''
      ,#''                                            '''#######################'''  
     '                                                          ''''####''''         
             ,#######,   #######,   ,#######,      ##                                
            ,#'     '#,  ##    ##  ,#'     '#,    #''#        ,####,   ,####,        
            ##       ##  ##   ,#'  ##            #'  '#       #'       #'  '#        
            ##       ##  #######   ##           ,######,      #####,   #    #        
            '#,     ,#'  ##    ##  '#,     ,#' ,#      #,     #,   #   #,  ,#        
             '#######'   ##     ##  '#######'  #'      '#     '####' # '####'        



                #########################################################
                #                        -***-                          #
                #          Department of theory and spectroscopy        #
                #                                                       #
                #                      Frank Neese                      #
                #                                                       #
                #     Directorship, Architecture, Infrastructure        #
                #                    SHARK, DRIVERS                     #
                #        Core code/Algorithms in most modules           #
                #                                                       #
                #        Max Planck Institute fuer Kohlenforschung      #
                #                Kaiser Wilhelm Platz 1                 #
                #                 D-45470 Muelheim/Ruhr                 #
                #                      Germany                          #
                #                                                       #
                #                  All rights reserved                  #
                #                        -***-                          #
                #########################################################


                         Program Version 6.0.0  -   RELEASE  -


 With contributions from (in alphabetic order):
   Daniel Aravena         : Magnetic Suceptibility
   Michael Atanasov       : Ab Initio Ligand Field Theory (pilot matlab implementation)
   Alexander A. Auer      : GIAO ZORA, VPT2 properties, NMR spectrum
   Ute Becker             : All parallelization in ORCA, NUMFREQ, NUMCALC
   Giovanni Bistoni       : ED, misc. LED, open-shell LED, HFLD
   Martin Brehm           : Molecular dynamics
   Dmytro Bykov           : pre 5.0 version of the SCF Hessian
   Marcos Casanova-Páez   : Triplet and SCS-CIS(D). UHF-(DLPNO)-IP/EA/STEOM-CCSD. UHF-CVS-IP/STEOM-CCSD
   Vijay G. Chilkuri      : MRCI spin determinant printing, contributions to CSF-ICE
   Pauline Colinet        : FMM embedding
   Dipayan Datta          : RHF DLPNO-CCSD density
   Achintya Kumar Dutta   : EOM-CC, STEOM-CC
   Nicolas Foglia         : Exact transition moments, OPA infrastructure, MCD improvements
   Dmitry Ganyushin       : Spin-Orbit,Spin-Spin,Magnetic field MRCI
   Miquel Garcia          : C-PCM and meta-GGA Hessian, CCSD/C-PCM, Gaussian charge scheme
   Tiago L. C. Gouveia    : GS-ROHF, GS-ROCIS
   Yang Guo               : DLPNO-NEVPT2, F12-NEVPT2, CIM, IAO-localization
   Andreas Hansen         : Spin unrestricted coupled pair/coupled cluster methods
   Ingolf Harden          : AUTO-CI MPn and infrastructure 
   Benjamin Helmich-Paris : MC-RPA, TRAH-(SCF,CASSCF), AVAS, COSX integrals, SCF dyn. polar.
   Lee Huntington         : MR-EOM, pCC
   Robert Izsak           : Overlap fitted RIJCOSX, COSX-SCS-MP3, EOM
   Riya Kayal             : Wick's Theorem for AUTO-CI, AUTO-CI UHF-CCSDT
   Emily Kempfer          : AUTO-CI, RHF CISDT and CCSDT
   Christian Kollmar      : KDIIS, OOCD, Brueckner-CCSD(T), CCSD density, CASPT2, CASPT2-K, improved NEVPT2
   Axel Koslowski         : Symmetry handling
   Simone Kossmann        : Meta GGA functionals, TD-DFT gradient, OOMP2, (MP2 Hessian; deprecated post 5.0)
   Lucas Lang             : DCDCAS
   Marvin Lechner         : AUTO-CI (C++ implementation), FIC-MRCC
   Spencer Leger          : CASSCF response
   Dagmar Lenk            : GEPOL surface, SMD, ORCA-2-JSON
   Dimitrios Liakos       : Extrapolation schemes; Compound Job, initial MDCI parallelization
   Dimitrios Manganas     : Further ROCIS development; embedding schemes. LFT, Crystal Embedding
   Dimitrios Pantazis     : SARC Basis sets
   Anastasios Papadopoulos: AUTO-CI, single reference methods and gradients
   Taras Petrenko         : pre 6.0 DFT Hessian and TD-DFT gradient, (ASA, deprecated), ECA, 1-Electron XAS/XES, NRVS
   Peter Pinski           : DLPNO-MP2, DLPNO-MP2 Gradient
   Christoph Reimann      : Effective Core Potentials
   Marius Retegan         : Local ZFS, SOC
   Christoph Riplinger    : Optimizer, TS searches, QM/MM, DLPNO-CCSD(T), (RO)-DLPNO pert. Triples
   Michael Roemelt        : Original ROCIS implementation
   Masaaki Saitow         : Open-shell DLPNO-CCSD energy and density
   Barbara Sandhoefer     : DKH picture change effects
   Kantharuban Sivalingam : CASSCF convergence/infrastructure, NEVPT2 and variants, FIC-MRCI
   Bernardo de Souza      : ESD, SOC TD-DFT
   Georgi Stoychev        : AutoAux, RI-MP2 NMR, DLPNO-MP2 response, X2C
   Van Anh Tran           : RI-MP2 g-tensors
   Willem Van den Heuvel  : Paramagnetic NMR
   Zikuan Wang            : NOTCH, Electric field optimization 
   Frank Wennmohs         : Technical directorship and infrastructure
   Hang Xu                : AUTO-CI-Response properties 


 We gratefully acknowledge several colleagues who have allowed us to
 interface, adapt or use parts of their codes:
   Stefan Grimme, W. Hujo, H. Kruse, P. Pracht,  : VdW corrections, initial TS optimization,
                  C. Bannwarth, S. Ehlert,         DFT functionals, gCP, sTDA/sTD-DF
                  L. Wittmann, M. Mueller
   Ed Valeev, F. Pavosevic, A. Kumar             : LibInt (2-el integral package), F12 methods
   Garnet Chan, S. Sharma, J. Yang, R. Olivares  : DMRG
   Ulf Ekstrom                                   : XCFun DFT Library
   Mihaly Kallay                                 : mrcc  (arbitrary order and MRCC methods)
   Frank Weinhold                                : gennbo (NPA and NBO analysis)
   Simon Mueller                                 : openCOSMO-RS
   Christopher J. Cramer and Donald G. Truhlar   : smd solvation model
   Lars Goerigk                                  : TD-DFT with DH, B97 family of functionals
   V. Asgeirsson, H. Jonsson                     : NEB implementation
   FAccTs GmbH                                   : IRC, NEB, NEB-TS, DLPNO-Multilevel, CI-OPT
                                                   MM, QMMM, 2- and 3-layer-ONIOM, Crystal-QMMM,
                                                   LR-CPCM, SF, NACMEs, symmetry and pop. for TD-DFT,
                                                   nearIR, NL-DFT gradient (VV10), updates on ESD,
                                                   ML-optimized integration grids, MBIS, APM,
                                                   GOAT, DOCKER, SOLVATOR, interface openCOSMO-RS
   S Lehtola, MJT Oliveira, MAL Marques          : LibXC Library
   Liviu Ungur et al                             : ANISO software


 Your calculation uses the libint2 library for the computation of 2-el integrals
 For citations please refer to: http://libint.valeyev.net

 Your ORCA version has been built with support for libXC version: 6.2.2
 For citations please refer to: https://libxc.gitlab.io

 This ORCA versions uses:
   CBLAS   interface :  Fast vector & matrix operations
   LAPACKE interface :  Fast linear algebra routines
   SCALAPACK package :  Parallel linear algebra routines
   Shared memory     :  Shared parallel matrices
   BLAS/LAPACK       :  OpenBLAS 0.3.27  USE64BITINT DYNAMIC_ARCH NO_AFFINITY Zen SINGLE_THREADED
        Core in use  :  Zen
   Copyright (c) 2011-2014, The OpenBLAS Project


Your calculation utilizes the atom-pairwise dispersion correction
with the Becke-Johnson damping scheme (D3BJ)


Warning: RI is on but no J-basis has been assigned. Assigning Def2/J (nothing to worry about!)
================================================================================

----- Orbital basis set information -----
Your calculation utilizes the basis: def2-TZVPPD
   F. Weigend and R. Ahlrichs, Phys. Chem. Chem. Phys. 7, 3297 (2005).
   D. Rappoport and F. Furche, J. Chem. Phys. 133, 134105 (2010)
   D. Rappoport, J. Chem. Phys. 155, 124102 (2021).

----- AuxJ basis set information -----
Your calculation utilizes the auxiliary basis: def2/J
   F. Weigend, Phys. Chem. Chem. Phys. 8, 1057 (2006).

================================================================================
                                        WARNINGS
                       Please study these warnings very carefully!
================================================================================

Using LibXC functional ID 531 : wB97M-V exchange-correlation functional
[ 1]  N. Mardirossian and M. Head-Gordon.,  J. Chem. Phys. 144, 214110 (2016)
Using LibXC functional ID 531 : wB97M-V exchange-correlation functional
[ 1]  N. Mardirossian and M. Head-Gordon.,  J. Chem. Phys. 144, 214110 (2016)

WARNING: B97M-V or wB97M-V functional requested.
  ===> : libXC variant has now been activated.
         Any manually given DFX/HFX/RangeSep scaling parameters are IGNORED!

Your calculation utilizes LibXC
 by S Lehtola, C Steigemann, MJT Oliveira & MAL Marques
Please cite in your paper:
 S Lehtola, C Steigemann, MJT Oliveira & MAL Marques, SoftwareX, 7, (2018), 1.
   


WARNING: your system is open-shell and RHF/RKS was chosen
  ===> : WILL SWITCH to UHF/UKS

INFO   : Checking CIS options ...

WARNING: CIS/ROCIS methods need fully converged wavefunctions
  ===> : Setting SCFConvForced true
         You can overwrite this default with %scf ConvForced false 


================================================================================
                                       INPUT FILE
================================================================================
NAME = orca.inp
|  1> ! Engrad def2-TZVPPD wB97M-D3BJ 
|  2> %pal nprocs 8 end%pal nprocs 32 end 
|  3> %tddft Nroots 2 Iroot 1 
|  4> sf true 
|  5> end 
|  6> *xyz 0 3 
|  7> O   0.51644379 1.25123578 -0.0253306
|  8> C   0.42816198 -0.26269282 -0.01174138
|  9> C   -0.87758918 -1.09574214 0.03936058
| 10> H   1.02427845 -0.64617022 0.80801711
| 11> H   0.99126536 -0.57014137 -0.89593979
| 12> H   -1.50034641 -1.07830934 -0.86265377
| 13> H   -1.42040026 -1.12832916 0.99238593
| 14> *
| 15> 
| 16>                          ****END OF INPUT****
================================================================================

                     *******************************
                     * Energy+Gradient Calculation *
                     *******************************

---------------------------------
CARTESIAN COORDINATES (ANGSTROEM)
---------------------------------
  O      0.516444    1.251236   -0.025331
  C      0.428162   -0.262693   -0.011741
  C     -0.877589   -1.095742    0.039361
  H      1.024278   -0.646170    0.808017
  H      0.991265   -0.570141   -0.895940
  H     -1.500346   -1.078309   -0.862654
  H     -1.420400   -1.128329    0.992386

----------------------------
CARTESIAN COORDINATES (A.U.)
----------------------------
  NO LB      ZA    FRAG     MASS         X           Y           Z
   0 O     8.0000    0    15.999    0.975937    2.364493   -0.047868
   1 C     6.0000    0    12.011    0.809109   -0.496417   -0.022188
   2 C     6.0000    0    12.011   -1.658403   -2.070653    0.074381
   3 H     1.0000    0     1.008    1.935606   -1.221085    1.526931
   4 H     1.0000    0     1.008    1.873220   -1.077411   -1.693081
   5 H     1.0000    0     1.008   -2.835244   -2.037709   -1.630179
   6 H     1.0000    0     1.008   -2.684167   -2.132233    1.875338

--------------------------------
INTERNAL COORDINATES (ANGSTROEM)
--------------------------------
 O      0   0   0     0.000000000000     0.00000000     0.00000000
 C      1   0   0     1.516561291467     0.00000000     0.00000000
 C      2   1   0     1.549699542398   125.87126304     0.00000000
 H      2   1   3     1.083703715987   109.14750312   234.86814743
 H      2   1   3     1.092436202124   104.10426087   125.15438956
 H      3   2   1     1.096248310210   116.29379133    69.89331235
 H      3   2   1     1.097252523436   117.47954552   286.49788963

---------------------------
INTERNAL COORDINATES (A.U.)
---------------------------
 O      0   0   0     0.000000000000     0.00000000     0.00000000
 C      1   0   0     2.865885506178     0.00000000     0.00000000
 C      2   1   0     2.928507724996   125.87126304     0.00000000
 H      2   1   3     2.047903233527   109.14750312   234.86814743
 H      2   1   3     2.064405240795   104.10426087   125.15438956
 H      3   2   1     2.071609081071   116.29379133    69.89331235
 H      3   2   1     2.073506769047   117.47954552   286.49788963

---------------------
BASIS SET INFORMATION
---------------------
There are 3 groups of distinct atoms

 Group   1 Type O   : 12s7p3d1f contracted to 6s4p3d1f pattern {621111/4111/111/1}
 Group   2 Type C   : 12s6p3d1f contracted to 6s3p3d1f pattern {621111/411/111/1}
 Group   3 Type H   : 5s3p1d contracted to 3s3p1d pattern {311/111/1}

Atom   0O    basis set group =>   1
Atom   1C    basis set group =>   2
Atom   2C    basis set group =>   2
Atom   3H    basis set group =>   3
Atom   4H    basis set group =>   3
Atom   5H    basis set group =>   3
Atom   6H    basis set group =>   3
---------------------------------
AUXILIARY/J BASIS SET INFORMATION
---------------------------------
There are 3 groups of distinct atoms

 Group   1 Type O   : 12s5p4d2f1g contracted to 6s4p3d1f1g pattern {711111/2111/211/2/1}
 Group   2 Type C   : 12s5p4d2f1g contracted to 6s4p3d1f1g pattern {711111/2111/211/2/1}
 Group   3 Type H   : 5s2p1d contracted to 3s1p1d pattern {311/2/1}

Atom   0O    basis set group =>   1
Atom   1C    basis set group =>   2
Atom   2C    basis set group =>   2
Atom   3H    basis set group =>   3
Atom   4H    basis set group =>   3
Atom   5H    basis set group =>   3
Atom   6H    basis set group =>   3
[1741042883.230349] [ohm:290309:0]        ib_iface.c:1059 UCX  ERROR ibv_create_cq(cqe=256) failed: Connection timed out
[1741042883.230451] [ohm:290305:0]        ib_iface.c:1059 UCX  ERROR ibv_create_cq(cqe=256) failed: Connection timed out
[1741042883.230507] [ohm:290312:0]        ib_iface.c:1059 UCX  ERROR ibv_create_cq(cqe=256) failed: Connection timed out
[1741042883.230685] [ohm:290308:0]        ib_iface.c:1059 UCX  ERROR ibv_create_cq(cqe=256) failed: Connection timed out
[1741042883.239001] [ohm:290317:0]        ib_iface.c:1059 UCX  ERROR ibv_create_cq(cqe=256) failed: Connection timed out
[1741042883.240735] [ohm:290313:0]        ib_iface.c:1059 UCX  ERROR ibv_create_cq(cqe=256) failed: Connection timed out
[1741042883.243268] [ohm:290298:0]        ib_iface.c:1059 UCX  ERROR ibv_create_cq(cqe=256) failed: Connection timed out
[1741042883.244600] [ohm:290299:0]        ib_iface.c:1059 UCX  ERROR ibv_create_cq(cqe=256) failed: Connection timed out
[1741042883.246817] [ohm:290302:0]        ib_iface.c:1059 UCX  ERROR ibv_create_cq(cqe=256) failed: Connection timed out
[1741042883.249058] [ohm:290301:0]        ib_iface.c:1059 UCX  ERROR ibv_create_cq(cqe=256) failed: Connection timed out
[1741042883.252673] [ohm:290300:0]        ib_iface.c:1059 UCX  ERROR ibv_create_cq(cqe=256) failed: Connection timed out
[1741042883.260762] [ohm:290297:0]        ib_iface.c:1059 UCX  ERROR ibv_create_cq(cqe=256) failed: Connection timed out
[1741042883.262357] [ohm:290314:0]        ib_iface.c:1059 UCX  ERROR ibv_create_cq(cqe=256) failed: Connection timed out
[1741042883.262354] [ohm:290307:0]        ib_iface.c:1059 UCX  ERROR ibv_create_cq(cqe=256) failed: Connection timed out
[1741042883.262460] [ohm:290311:0]        ib_iface.c:1059 UCX  ERROR ibv_create_cq(cqe=256) failed: Connection timed out
[1741042883.262490] [ohm:290322:0]        ib_iface.c:1059 UCX  ERROR ibv_create_cq(cqe=256) failed: Connection timed out
[1741042883.274169] [ohm:290310:0]        ib_iface.c:1059 UCX  ERROR ibv_create_cq(cqe=256) failed: Connection timed out
[1741042883.285958] [ohm:290316:0]        ib_iface.c:1059 UCX  ERROR ibv_create_cq(cqe=256) failed: Connection timed out
[1741042883.296238] [ohm:290350:0]        ib_iface.c:1059 UCX  ERROR ibv_create_cq(cqe=256) failed: Connection timed out
[1741042883.296254] [ohm:290333:0]        ib_iface.c:1059 UCX  ERROR ibv_create_cq(cqe=256) failed: Connection timed out
[1741042883.296459] [ohm:290342:0]        ib_iface.c:1059 UCX  ERROR ibv_create_cq(cqe=256) failed: Connection timed out
[1741042883.296500] [ohm:290319:0]        ib_iface.c:1059 UCX  ERROR ibv_create_cq(cqe=256) failed: Connection timed out
[1741042883.296500] [ohm:290303:0]        ib_iface.c:1059 UCX  ERROR ibv_create_cq(cqe=256) failed: Connection timed out
[1741042883.298319] [ohm:290328:0]        ib_iface.c:1059 UCX  ERROR ibv_create_cq(cqe=256) failed: Connection timed out
[1741042883.298706] [ohm:290321:0]        ib_iface.c:1059 UCX  ERROR ibv_create_cq(cqe=256) failed: Connection timed out
[1741042883.299061] [ohm:290331:0]        ib_iface.c:1059 UCX  ERROR ibv_create_cq(cqe=256) failed: Connection timed out
[1741042883.301479] [ohm:290320:0]        ib_iface.c:1059 UCX  ERROR ibv_create_cq(cqe=256) failed: Connection timed out
[1741042883.301491] [ohm:290344:0]        ib_iface.c:1059 UCX  ERROR ibv_create_cq(cqe=256) failed: Connection timed out
[1741042883.302921] [ohm:290318:0]        ib_iface.c:1059 UCX  ERROR ibv_create_cq(cqe=256) failed: Connection timed out
[1741042883.302965] [ohm:290304:0]        ib_iface.c:1059 UCX  ERROR ibv_create_cq(cqe=256) failed: Connection timed out
[1741042883.303066] [ohm:290315:0]        ib_iface.c:1059 UCX  ERROR ibv_create_cq(cqe=256) failed: Connection timed out
[1741042883.303133] [ohm:290306:0]        ib_iface.c:1059 UCX  ERROR ibv_create_cq(cqe=256) failed: Connection timed out


           ************************************************************
           *        Program running with 32 parallel MPI-processes    *
           *              working on a common directory               *
           ************************************************************
------------------------------------------------------------------------------
                             ORCA STARTUP CALCULATIONS
                           -- RI-GTO INTEGRALS CHOSEN --
------------------------------------------------------------------------------
------------------------------------------------------------------------------
                   ___                                                        
                  /   \      - P O W E R E D   B Y -                         
                 /     \                                                     
                 |  |  |   _    _      __       _____    __    __             
                 |  |  |  | |  | |    /  \     |  _  \  |  |  /  |          
                  \  \/   | |  | |   /    \    | | | |  |  | /  /          
                 / \  \   | |__| |  /  /\  \   | |_| |  |  |/  /          
                |  |  |   |  __  | /  /__\  \  |    /   |      \           
                |  |  |   | |  | | |   __   |  |    \   |  |\   \          
                \     /   | |  | | |  |  |  |  | |\  \  |  | \   \       
                 \___/    |_|  |_| |__|  |__|  |_| \__\ |__|  \__/        
                                                                              
                      - O R C A' S   B I G   F R I E N D -                    
                                      &                                       
                       - I N T E G R A L  F E E D E R -                       
                                                                              
 v1 FN, 2020, v2 2021, v3 2022-2024                                           
------------------------------------------------------------------------------


----------------------
SHARK INTEGRAL PACKAGE
----------------------

Number of atoms                             ...      7
Number of basis functions                   ...    182
Number of shells                            ...     68
Maximum angular momentum                    ...      3
Integral batch strategy                     ... SHARK/LIBINT Hybrid
RI-J (if used) integral strategy            ... SPLIT-RIJ (Revised 2003 algorithm where possible)
Printlevel                                  ...      1
Contraction scheme used                     ... SEGMENTED contraction
Prescreening option                         ... SCHWARTZ
   Thresh                                   ... 2.500e-11
   Tcut                                     ... 2.500e-12
   Tpresel                                  ... 2.500e-12 
Coulomb Range Separation                    ... NOT USED
Exchange Range Separation                   ... Long Range
   Mu parameter                             ... 3.000e-01
   Scaling (regular/separated)              ... 1.500e-01 8.500e-01
Multipole approximations                    ... NOT USED
Finite Nucleus Model                        ... NOT USED
CABS basis                                  ... NOT available
Auxiliary Coulomb fitting basis             ... AVAILABLE
   # of basis functions in Aux-J            ...    191
   # of shells in Aux-J                     ...     65
   Maximum angular momentum in Aux-J        ...      4
Auxiliary J/K fitting basis                 ... NOT available
Auxiliary Correlation fitting basis         ... NOT available
Auxiliary 'external' fitting basis          ... NOT available

Checking pre-screening integrals            ... done (  0.0 sec) Dimension = 68
Check shell pair data                       ... done (  0.0 sec)
Shell pair information
Shell pair cut-off parameter TPreSel        ...   2.5e-12
Total number of shell pairs                 ...      2346
Shell pairs after pre-screening             ...      2320
Total number of primitive shell pairs       ...      5434
Primitive shell pairs kept                  ...      4772
          la=0 lb=0:    453 shell pairs
          la=1 lb=0:    655 shell pairs
          la=1 lb=1:    253 shell pairs
          la=2 lb=0:    384 shell pairs
          la=2 lb=1:    284 shell pairs
          la=2 lb=2:     91 shell pairs
          la=3 lb=0:     89 shell pairs
          la=3 lb=1:     66 shell pairs
          la=3 lb=2:     39 shell pairs
          la=3 lb=3:      6 shell pairs

Calculating one electron integrals          ... done (  0.0 sec)
Calculating RI/J V-Matrix + Cholesky decomp.... done (  0.0 sec)
Calculating Nuclear repulsion               ... done (  0.0 sec) ENN=     63.775006415796 Eh

Diagonalization of the overlap matrix:
Smallest eigenvalue                        ... 2.325e-05
Time for diagonalization                   ...    0.003 sec
Threshold for overlap eigenvalues          ... 1.000e-07
Number of eigenvalues below threshold      ... 0
Time for construction of square roots      ...    0.003 sec
Total time needed                          ...    0.008 sec

-------------------
DFT GRID GENERATION
-------------------

General Integration Accuracy     IntAcc      ... 4.388
Radial Grid Type                 RadialGrid  ... OptM3 with GC (2021)
Angular Grid (max. ang.)         AngularGrid ... 4 (Lebedev-302)
Angular grid pruning method      GridPruning ... 4 (adaptive)
Weight generation scheme         WeightScheme... mBecke (2022)
Basis function cutoff            BFCut       ... 1.0000e-11
Integration weight cutoff        WCut        ... 1.0000e-14
Partially contracted basis set               ... off
Rotationally invariant grid construction     ... off
Angular grids for H and He will be reduced by one unit
Diffuse basis detected: some atoms will have their outermost
                        angular grid increased by 1.

Total number of grid points                  ...    33152
Total number of batches                      ...      521
Average number of points per batch           ...       63
Average number of grid points per atom       ...     4736

--------------------
COSX GRID GENERATION
--------------------

GRIDX 1
-------
General Integration Accuracy     IntAcc      ... 3.816
Radial Grid Type                 RadialGrid  ... OptM3 with GC (2021)
Angular Grid (max. ang.)         AngularGrid ... 1 (Lebedev-50)
Angular grid pruning method      GridPruning ... 4 (adaptive)
Weight generation scheme         WeightScheme... mBecke (2022)
Basis function cutoff            BFCut       ... 1.0000e-11
Integration weight cutoff        WCut        ... 1.0000e-14
Partially contracted basis set               ... on
Rotationally invariant grid construction     ... off
Angular grids for H and He will be reduced by one unit
Diffuse basis detected: some atoms will have their outermost
                        angular grid increased by 1.

Total number of grid points                  ...     4168
Total number of batches                      ...       37
Average number of points per batch           ...      112
Average number of grid points per atom       ...      595
UseSFitting                                  ... on

GRIDX 2
-------
General Integration Accuracy     IntAcc      ... 4.020
Radial Grid Type                 RadialGrid  ... OptM3 with GC (2021)
Angular Grid (max. ang.)         AngularGrid ... 2 (Lebedev-110)
Angular grid pruning method      GridPruning ... 4 (adaptive)
Weight generation scheme         WeightScheme... mBecke (2022)
Basis function cutoff            BFCut       ... 1.0000e-11
Integration weight cutoff        WCut        ... 1.0000e-14
Partially contracted basis set               ... on
Rotationally invariant grid construction     ... off
Angular grids for H and He will be reduced by one unit
Diffuse basis detected: some atoms will have their outermost
                        angular grid increased by 1.

Total number of grid points                  ...    10280
Total number of batches                      ...       85
Average number of points per batch           ...      120
Average number of grid points per atom       ...     1469
UseSFitting                                  ... on

GRIDX 3
-------
General Integration Accuracy     IntAcc      ... 4.338
Radial Grid Type                 RadialGrid  ... OptM3 with GC (2021)
Angular Grid (max. ang.)         AngularGrid ... 3 (Lebedev-194)
Angular grid pruning method      GridPruning ... 4 (adaptive)
Weight generation scheme         WeightScheme... mBecke (2022)
Basis function cutoff            BFCut       ... 1.0000e-11
Integration weight cutoff        WCut        ... 1.0000e-14
Partially contracted basis set               ... on
Rotationally invariant grid construction     ... off
Angular grids for H and He will be reduced by one unit
Diffuse basis detected: some atoms will have their outermost
                        angular grid increased by 1.

Total number of grid points                  ...    23161
Total number of batches                      ...      184
Average number of points per batch           ...      125
Average number of grid points per atom       ...     3309
UseSFitting                                  ... on
Initializing property integral containers    ... done (  0.0 sec)

SHARK setup successfully completed in   0.3 seconds

Maximum memory used throughout the entire STARTUP-calculation: 13.8 MB
[1741042884.470380] [ohm:290486:0]        ib_iface.c:1059 UCX  ERROR ibv_create_cq(cqe=256) failed: Connection timed out
[1741042884.470507] [ohm:290467:0]        ib_iface.c:1059 UCX  ERROR ibv_create_cq(cqe=256) failed: Connection timed out
[1741042884.474728] [ohm:290509:0]        ib_iface.c:1059 UCX  ERROR ibv_create_cq(cqe=256) failed: Connection timed out
[1741042884.481616] [ohm:290497:0]        ib_iface.c:1059 UCX  ERROR ibv_create_cq(cqe=256) failed: Connection timed out
[1741042884.482799] [ohm:290464:0]        ib_iface.c:1059 UCX  ERROR ibv_create_cq(cqe=256) failed: Connection timed out
[1741042884.483165] [ohm:290476:0]        ib_iface.c:1059 UCX  ERROR ibv_create_cq(cqe=256) failed: Connection timed out
[1741042884.498356] [ohm:290478:0]        ib_iface.c:1059 UCX  ERROR ibv_create_cq(cqe=256) failed: Connection timed out
[1741042884.499703] [ohm:290490:0]        ib_iface.c:1059 UCX  ERROR ibv_create_cq(cqe=256) failed: Connection timed out
[1741042884.511078] [ohm:290468:0]        ib_iface.c:1059 UCX  ERROR ibv_create_cq(cqe=256) failed: Connection timed out
[1741042884.511826] [ohm:290470:0]        ib_iface.c:1059 UCX  ERROR ibv_create_cq(cqe=256) failed: Connection timed out
[1741042884.511922] [ohm:290484:0]        ib_iface.c:1059 UCX  ERROR ibv_create_cq(cqe=256) failed: Connection timed out
[1741042884.512466] [ohm:290474:0]        ib_iface.c:1059 UCX  ERROR ibv_create_cq(cqe=256) failed: Connection timed out
[1741042884.512688] [ohm:290469:0]        ib_iface.c:1059 UCX  ERROR ibv_create_cq(cqe=256) failed: Connection timed out
[1741042884.512984] [ohm:290480:0]        ib_iface.c:1059 UCX  ERROR ibv_create_cq(cqe=256) failed: Connection timed out
[1741042884.518190] [ohm:290488:0]        ib_iface.c:1059 UCX  ERROR ibv_create_cq(cqe=256) failed: Connection timed out
[1741042884.520268] [ohm:290479:0]        ib_iface.c:1059 UCX  ERROR ibv_create_cq(cqe=256) failed: Connection timed out
[1741042884.520911] [ohm:290482:0]        ib_iface.c:1059 UCX  ERROR ibv_create_cq(cqe=256) failed: Connection timed out
[1741042884.522834] [ohm:290471:0]        ib_iface.c:1059 UCX  ERROR ibv_create_cq(cqe=256) failed: Connection timed out
[1741042884.524319] [ohm:290473:0]        ib_iface.c:1059 UCX  ERROR ibv_create_cq(cqe=256) failed: Connection timed out
[1741042884.524316] [ohm:290511:0]        ib_iface.c:1059 UCX  ERROR ibv_create_cq(cqe=256) failed: Connection timed out
[1741042884.524472] [ohm:290504:0]        ib_iface.c:1059 UCX  ERROR ibv_create_cq(cqe=256) failed: Connection timed out
[1741042884.525700] [ohm:290481:0]        ib_iface.c:1059 UCX  ERROR ibv_create_cq(cqe=256) failed: Connection timed out
[1741042884.526624] [ohm:290523:0]        ib_iface.c:1059 UCX  ERROR ibv_create_cq(cqe=256) failed: Connection timed out
[1741042884.526817] [ohm:290472:0]        ib_iface.c:1059 UCX  ERROR ibv_create_cq(cqe=256) failed: Connection timed out
[1741042884.526865] [ohm:290485:0]        ib_iface.c:1059 UCX  ERROR ibv_create_cq(cqe=256) failed: Connection timed out
[1741042884.527065] [ohm:290465:0]        ib_iface.c:1059 UCX  ERROR ibv_create_cq(cqe=256) failed: Connection timed out
[1741042884.527247] [ohm:290466:0]        ib_iface.c:1059 UCX  ERROR ibv_create_cq(cqe=256) failed: Connection timed out
[1741042884.527340] [ohm:290477:0]        ib_iface.c:1059 UCX  ERROR ibv_create_cq(cqe=256) failed: Connection timed out
[1741042884.527790] [ohm:290475:0]        ib_iface.c:1059 UCX  ERROR ibv_create_cq(cqe=256) failed: Connection timed out
[1741042884.528119] [ohm:290483:0]        ib_iface.c:1059 UCX  ERROR ibv_create_cq(cqe=256) failed: Connection timed out
[1741042884.528779] [ohm:290498:0]        ib_iface.c:1059 UCX  ERROR ibv_create_cq(cqe=256) failed: Connection timed out
[1741042884.529030] [ohm:290487:0]        ib_iface.c:1059 UCX  ERROR ibv_create_cq(cqe=256) failed: Connection timed out


           ************************************************************
           *        Program running with 32 parallel MPI-processes    *
           *              working on a common directory               *
           ************************************************************
-------------------------------------------------------------------------------
                                 ORCA GUESS
                   Start orbitals & Density for SCF / CASSCF
-------------------------------------------------------------------------------

------------
SCF SETTINGS
------------
Hamiltonian:
 Density Functional     Method          .... DFT(GTOs)
  Functional kind                       .... Exchange-Correlation
  Functional name                       .... wB97M-V exchange-correlation functional
  Functional family                     .... Hybrid MGGA
  Functional refs                              
    [ 0] N. Mardirossian and M. Head-Gordon.,  J. Chem. Phys. 144, 214110 (2016), doi: 10.1063/1.4952647
  Fraction of HF Exchange (short range) .... 0.1500
  Fraction of HF Exchange (long range)  .... 1.0000
  Range separation parameter mu         .... 0.3000
  Functional external parameters        .... 17
    Parameter  0 _cx00      =  8.500000e-01 : u^00 coefficient for exchange
    Parameter  1 _cx01      =  1.007000e+00 : u^01 coefficient for exchange
    Parameter  2 _cx10      =  2.590000e-01 : u^10 coefficient for exchange
    Parameter  3 _css00     =  4.430000e-01 : u^00 coefficient for same-spin correlation
    Parameter  4 _css04     = -1.437000e+00 : u^04 coefficient for same-spin correlation
    Parameter  5 _css10     = -4.535000e+00 : u^10 coefficient for same-spin correlation
    Parameter  6 _css20     = -3.390000e+00 : u^20 coefficient for same-spin correlation
    Parameter  7 _css43     =  4.278000e+00 : u^43 coefficient for same-spin correlation
    Parameter  8 _cos00     =  1.000000e+00 : u^00 coefficient for opposite-spin correlation
    Parameter  9 _cos10     =  1.358000e+00 : u^10 coefficient for opposite-spin correlation
    Parameter 10 _cos20     =  2.924000e+00 : u^20 coefficient for opposite-spin correlation
    Parameter 11 _cos21     = -8.812000e+00 : u^21 coefficient for opposite-spin correlation
    Parameter 12 _cos60     = -1.390000e+00 : u^60 coefficient for opposite-spin correlation
    Parameter 13 _cos61     =  9.142000e+00 : u^61 coefficient for opposite-spin correlation
    Parameter 14 _alpha     =  1.000000e+00 : fraction of HF exchange
    Parameter 15 _beta      = -8.500000e-01 : fraction of short-range exchange
    Parameter 16 _omega     =  3.000000e-01 : range-separation constant
 Long-range corrected/Screened/Range-Separated Hybrid DFT is turned on
   Amount of maximum screened exact exchange              ....  0.850000
   Range separation parameter mu (erf(mu*r12)/r12)        ....  0.300000
 RI-approximation to the Coulomb term is turned on
   Number of AuxJ basis functions       .... 191
   RIJ-COSX (HFX calculated with COS-X)).... on


General Settings:
 Integral files         IntName         .... orca
 Hartree-Fock type      HFTyp           .... UHF
 Total Charge           Charge          ....    0
 Multiplicity           Mult            ....    3
 Number of Electrons    NEL             ....   24
 Basis Dimension        Dim             ....  182
 Nuclear Repulsion      ENuc            ....     63.7750064158 Eh

Convergence Acceleration:
 AO-DIIS                CNVDIIS         .... on
   Start iteration      DIISMaxIt       ....    12
   Startup error        DIISStart       ....  0.200000
   # of expansion vecs  DIISMaxEq       ....     5
   Bias factor          DIISBfac        ....   1.050
   Max. coefficient     DIISMaxC        ....  10.000
 MO-DIIS                CNVKDIIS        .... off
 Trust-Rad. Augm. Hess. CNVTRAH         .... auto
   Auto Start mean grad. ratio tolernc. ....  1.125000
   Auto Start start iteration           ....    50
   Auto Start num. interpolation iter.  ....    10
   Max. Number of Micro iterations      ....    24
   Max. Number of Macro iterations      .... Maxiter - #DIIS iter
   Number of Davidson start vectors     ....     2
   Converg. threshold    (grad. norm)   ....   1.000e-05
   Grad. Scal. Fac. for Micro threshold ....   0.100
   Minimum threshold for Micro iter.    ....   1.000e-02
   NR start threshold (gradient norm)   ....   1.000e-04
   Initial trust radius                 ....   0.400
   Minimum AH scaling param. (alpha)    ....   1.000
   Maximum AH scaling param. (alpha)    .... 1000.000
   Quad. conv. algorithm                .... NR
   White noise on init. David. guess    .... on
   Maximum white noise                  ....   0.010
   Pseudo random numbers                .... off
   Inactive MOs                         .... canonical
   Orbital update algorithm             .... Taylor
   Preconditioner                       .... Diag
   Full preconditioner red. dimension   ....   250
 SOSCF                  CNVSOSCF        .... on
   Start iteration      SOSCFMaxIt      ....   150
   Startup grad/error   SOSCFStart      ....  0.003300
   Hessian update       SOSCFHessUp     .... L-BFGS
 Level Shifting         CNVShift        .... on
   Level shift para.    LevelShift      ....    0.2500
   Turn off err/grad.   ShiftErr        ....    0.0010
 Zerner damping         CNVZerner       .... off
 Static damping         CNVDamp         .... on
   Fraction old density DampFac         ....    0.7000
   Max. Damping (<1)    DampMax         ....    0.9800
   Min. Damping (>=0)   DampMin         ....    0.0000
   Turn off err/grad.   DampErr         ....    0.1000

SCF Procedure:
 Maximum # iterations   MaxIter         ....   125
 SCF integral mode      SCFMode         .... Direct
   Integral package                     .... SHARK and LIBINT hybrid scheme
 Reset frequency        DirectResetFreq ....    20
 Integral Threshold     Thresh          ....  2.500e-11 Eh
 Primitive CutOff       TCut            ....  2.500e-12 Eh

Convergence Tolerance:
 Convergence Check Mode ConvCheckMode   .... Total+1el-Energy
 Convergence forced     ConvForced      .... 1
 Energy Change          TolE            ....  1.000e-08 Eh
 1-El. energy change                    ....  1.000e-05 Eh
 Orbital Gradient       TolG            ....  1.000e-05
 Orbital Rotation angle TolX            ....  1.000e-05
 DIIS Error             TolErr          ....  5.000e-07

------------------------------
INITIAL GUESS: MODEL POTENTIAL
------------------------------
Loading Hartree-Fock densities                     ... done
Calculating cut-offs                               ... done
Initializing the effective Hamiltonian             ... done
Setting up the integral package (SHARK)            ... done
Starting the Coulomb interaction                   ... done (   0.0 sec)
Making the grid                                    ... done (   0.0 sec)
Mapping shells                                     ... done
Starting the XC term evaluation                    ... done (   0.0 sec)
  promolecular density results
     # of electrons  =     23.998321959
     EX              =    -19.401500586
     EC              =     -0.755419832
     EX+EC           =    -20.156920418
Transforming the Hamiltonian                       ... done (   0.0 sec)
Diagonalizing the Hamiltonian                      ... done (   0.0 sec)
Back transforming the eigenvectors                 ... done (   0.0 sec)
Now organizing SCF variables                       ... done
                      ------------------
                      INITIAL GUESS DONE (   0.1 sec)
                      ------------------
             **** ENERGY FILE WAS UPDATED (orca.en.tmp) ****
Finished Guess after   0.6 sec
Maximum memory used throughout the entire GUESS-calculation: 9.6 MB
[1741042885.452911] [ohm:290635:0]        ib_iface.c:1059 UCX  ERROR ibv_create_cq(cqe=256) failed: Connection timed out
[1741042885.452994] [ohm:290646:0]        ib_iface.c:1059 UCX  ERROR ibv_create_cq(cqe=256) failed: Connection timed out
[1741042885.454437] [ohm:290638:0]        ib_iface.c:1059 UCX  ERROR ibv_create_cq(cqe=256) failed: Connection timed out
[1741042885.455341] [ohm:290640:0]        ib_iface.c:1059 UCX  ERROR ibv_create_cq(cqe=256) failed: Connection timed out
[1741042885.459878] [ohm:290649:0]        ib_iface.c:1059 UCX  ERROR ibv_create_cq(cqe=256) failed: Connection timed out
[1741042885.471056] [ohm:290643:0]        ib_iface.c:1059 UCX  ERROR ibv_create_cq(cqe=256) failed: Connection timed out
[1741042885.472546] [ohm:290652:0]        ib_iface.c:1059 UCX  ERROR ibv_create_cq(cqe=256) failed: Connection timed out
[1741042885.476625] [ohm:290633:0]        ib_iface.c:1059 UCX  ERROR ibv_create_cq(cqe=256) failed: Connection timed out
[1741042885.493086] [ohm:290634:0]        ib_iface.c:1059 UCX  ERROR ibv_create_cq(cqe=256) failed: Connection timed out
[1741042885.493544] [ohm:290636:0]        ib_iface.c:1059 UCX  ERROR ibv_create_cq(cqe=256) failed: Connection timed out
[1741042885.494079] [ohm:290645:0]        ib_iface.c:1059 UCX  ERROR ibv_create_cq(cqe=256) failed: Connection timed out
[1741042885.503311] [ohm:290644:0]        ib_iface.c:1059 UCX  ERROR ibv_create_cq(cqe=256) failed: Connection timed out
[1741042885.508971] [ohm:290647:0]        ib_iface.c:1059 UCX  ERROR ibv_create_cq(cqe=256) failed: Connection timed out
[1741042885.510197] [ohm:290679:0]        ib_iface.c:1059 UCX  ERROR ibv_create_cq(cqe=256) failed: Connection timed out
[1741042885.510326] [ohm:290694:0]        ib_iface.c:1059 UCX  ERROR ibv_create_cq(cqe=256) failed: Connection timed out
[1741042885.511075] [ohm:290687:0]        ib_iface.c:1059 UCX  ERROR ibv_create_cq(cqe=256) failed: Connection timed out
[1741042885.513643] [ohm:290658:0]        ib_iface.c:1059 UCX  ERROR ibv_create_cq(cqe=256) failed: Connection timed out
[1741042885.514880] [ohm:290683:0]        ib_iface.c:1059 UCX  ERROR ibv_create_cq(cqe=256) failed: Connection timed out
[1741042885.516439] [ohm:290654:0]        ib_iface.c:1059 UCX  ERROR ibv_create_cq(cqe=256) failed: Connection timed out
[1741042885.518168] [ohm:290639:0]        ib_iface.c:1059 UCX  ERROR ibv_create_cq(cqe=256) failed: Connection timed out
[1741042885.519836] [ohm:290642:0]        ib_iface.c:1059 UCX  ERROR ibv_create_cq(cqe=256) failed: Connection timed out
[1741042885.520124] [ohm:290667:0]        ib_iface.c:1059 UCX  ERROR ibv_create_cq(cqe=256) failed: Connection timed out
[1741042885.520378] [ohm:290651:0]        ib_iface.c:1059 UCX  ERROR ibv_create_cq(cqe=256) failed: Connection timed out
[1741042885.520419] [ohm:290641:0]        ib_iface.c:1059 UCX  ERROR ibv_create_cq(cqe=256) failed: Connection timed out
[1741042885.520647] [ohm:290656:0]        ib_iface.c:1059 UCX  ERROR ibv_create_cq(cqe=256) failed: Connection timed out
[1741042885.522167] [ohm:290657:0]        ib_iface.c:1059 UCX  ERROR ibv_create_cq(cqe=256) failed: Connection timed out
[1741042885.523214] [ohm:290669:0]        ib_iface.c:1059 UCX  ERROR ibv_create_cq(cqe=256) failed: Connection timed out
[1741042885.523243] [ohm:290637:0]        ib_iface.c:1059 UCX  ERROR ibv_create_cq(cqe=256) failed: Connection timed out
[1741042885.523240] [ohm:290653:0]        ib_iface.c:1059 UCX  ERROR ibv_create_cq(cqe=256) failed: Connection timed out
[1741042885.523481] [ohm:290648:0]        ib_iface.c:1059 UCX  ERROR ibv_create_cq(cqe=256) failed: Connection timed out
[1741042885.523871] [ohm:290655:0]        ib_iface.c:1059 UCX  ERROR ibv_create_cq(cqe=256) failed: Connection timed out
[1741042885.524433] [ohm:290659:0]        ib_iface.c:1059 UCX  ERROR ibv_create_cq(cqe=256) failed: Connection timed out


           ************************************************************
           *        Program running with 32 parallel MPI-processes    *
           *              working on a common directory               *
           ************************************************************

-------------------------------------------------------------------------------------------
                                      ORCA LEAN-SCF
                              memory conserving SCF solver
-------------------------------------------------------------------------------------------

----------------------------------------D-I-I-S--------------------------------------------
Iteration    Energy (Eh)           Delta-E    RMSDP     MaxDP     DIISErr   Damp  Time(sec)
-------------------------------------------------------------------------------------------
               ***  Starting incremental Fock matrix formation  ***
    1    -153.7108748835265999     0.00e+00  7.93e-04  2.40e-02  6.59e-02  0.700   0.3
    2    -153.7290452040186040    -1.82e-02  6.92e-04  2.09e-02  4.03e-02  0.700   0.3
                               ***Turning on AO-DIIS***
    3    -153.7399423310474731    -1.09e-02  5.61e-04  1.71e-02  2.89e-02  0.700   0.2
    4    -153.7470376235511367    -7.10e-03  1.39e-03  4.09e-02  2.41e-02  0.000   0.2
    5    -153.7647044958036986    -1.77e-02  1.31e-04  3.86e-03  9.37e-03  0.000   0.3
    6    -153.7653154085820120    -6.11e-04  8.45e-05  2.40e-03  5.55e-03  0.000   0.2
    7    -153.7655889117263541    -2.74e-04  4.65e-05  1.43e-03  3.84e-03  0.000   0.3
                              *** Initializing SOSCF ***
---------------------------------------S-O-S-C-F--------------------------------------
Iteration    Energy (Eh)           Delta-E    RMSDP     MaxDP     MaxGrad    Time(sec)
--------------------------------------------------------------------------------------
    8    -153.7656903746997727    -1.01e-04  2.64e-05  7.54e-04  1.66e-03     0.3
               *** Restarting incremental Fock matrix formation ***
    9    -153.7657159560531852    -2.56e-05  1.83e-05  5.42e-04  1.12e-03     0.3
   10    -153.7657222124505267    -6.26e-06  2.29e-05  7.46e-04  4.38e-04     0.2
   11    -153.7657250366922312    -2.82e-06  9.27e-06  2.71e-04  2.18e-04     0.2
   12    -153.7657259891081196    -9.52e-07  6.65e-06  2.67e-04  2.19e-04     0.2
   13    -153.7657266031413030    -6.14e-07  2.52e-05  1.45e-03  2.16e-04     0.3
   14    -153.7657287918992495    -2.19e-06  3.28e-05  2.15e-03  1.91e-04     0.2
   15    -153.7657313145786873    -2.52e-06  4.96e-05  3.27e-03  2.26e-04     0.3
   16    -153.7657344404440778    -3.13e-06  3.58e-05  2.19e-03  2.47e-04     0.2
   17    -153.7657363153749657    -1.87e-06  1.22e-05  5.70e-04  1.83e-04     0.2
   18    -153.7657369387231086    -6.23e-07  3.39e-06  1.52e-04  9.57e-05     0.2
   19    -153.7657370629711693    -1.24e-07  2.33e-06  1.10e-04  3.87e-05     0.2
   20    -153.7657370919256437    -2.90e-08  1.04e-06  3.53e-05  1.36e-05     0.2
   21    -153.7657370994273549    -7.50e-09  5.50e-07  3.09e-05  6.32e-06     0.2
                 **** Energy Check signals convergence ****

               *****************************************************
               *                     SUCCESS                       *
               *           SCF CONVERGED AFTER  21 CYCLES          *
               *****************************************************

Recomputing exchange energy using gridx3       ... done (    0.244 sec)
Old exchange energy                            :     -6.180388356 Eh
New exchange energy                            :     -6.180391506 Eh
Exchange energy change after final integration :     -0.000003150 Eh
Total energy after final integration           :   -153.765740249 Eh
             **** ENERGY FILE WAS UPDATED (orca.en.tmp) ****

----------------
TOTAL SCF ENERGY
----------------

Total Energy       :       -153.76574024902823 Eh           -4184.17851 eV

Components:
Nuclear Repulsion  :         63.77500641579646 Eh            1735.40615 eV
Electronic Energy  :       -217.54074351522382 Eh           -5919.58458 eV
One Electron Energy:       -334.20188882620823 Eh           -9094.09573 eV
Two Electron Energy:        116.66114531098441 Eh            3174.51115 eV

Virial components:
Potential Energy   :       -306.74431912924757 Eh           -8346.93727 eV
Kinetic Energy     :        152.97857888021935 Eh            4162.75876 eV
Virial Ratio       :          2.00514556596467

DFT components:
N(Alpha)           :       12.999972417190 electrons
N(Beta)            :       10.999968542139 electrons
N(Total)           :       23.999940959328 electrons
E(XC)              :      -14.624783702129 Eh       

---------------
SCF CONVERGENCE
---------------

  Last Energy change         ...    7.5017e-09  Tolerance :   1.0000e-08
  Last MAX-Density change    ...    3.0862e-05  Tolerance :   1.0000e-07
  Last RMS-Density change    ...    5.4972e-07  Tolerance :   5.0000e-09
  Last DIIS Error            ...    1.6567e-03  Tolerance :   5.0000e-07
  Last Orbital Gradient      ...    6.3237e-06  Tolerance :   1.0000e-05
  Last Orbital Rotation      ...    1.3740e-04  Tolerance :   1.0000e-05


----------------------
UHF SPIN CONTAMINATION
----------------------

Warning: in a DFT calculation there is little theoretical justification to 
         calculate <S**2> as in Hartree-Fock theory. We will do it anyways
         but you should keep in mind that the values have only limited relevance

Expectation value of <S**2>     :     2.009218
Ideal value S*(S+1) for S=1.0   :     2.000000
Deviation                       :     0.009218

----------------
ORBITAL ENERGIES
----------------
                 SPIN UP ORBITALS
  NO   OCC          E(Eh)            E(eV) 
   0   1.0000     -19.401304      -527.9363 
   1   1.0000     -10.418391      -283.4988 
   2   1.0000     -10.387835      -282.6674 
   3   1.0000      -1.125647       -30.6304 
   4   1.0000      -0.879749       -23.9392 
   5   1.0000      -0.739140       -20.1130 
   6   1.0000      -0.601863       -16.3775 
   7   1.0000      -0.550133       -14.9699 
   8   1.0000      -0.535635       -14.5754 
   9   1.0000      -0.522193       -14.2096 
  10   1.0000      -0.446981       -12.1630 
  11   1.0000      -0.419772       -11.4226 
  12   1.0000      -0.354517        -9.6469 
  13   0.0000       0.039232         1.0676 
  14   0.0000       0.061373         1.6700 
  15   0.0000       0.079180         2.1546 
  16   0.0000       0.087459         2.3799 
  17   0.0000       0.112311         3.0561 
  18   0.0000       0.128248         3.4898 
  19   0.0000       0.131263         3.5719 
  20   0.0000       0.134522         3.6605 
  21   0.0000       0.161169         4.3856 
  22   0.0000       0.169940         4.6243 
  23   0.0000       0.207396         5.6435 

                 SPIN DOWN ORBITALS
  NO   OCC          E(Eh)            E(eV) 
   0   1.0000     -19.375039      -527.2216 
   1   1.0000     -10.419754      -283.5359 
   2   1.0000     -10.374631      -282.3081 
   3   1.0000      -1.060735       -28.8641 
   4   1.0000      -0.850250       -23.1365 
   5   1.0000      -0.715625       -19.4731 
   6   1.0000      -0.577534       -15.7155 
   7   1.0000      -0.519696       -14.1416 
   8   1.0000      -0.511283       -13.9127 
   9   1.0000      -0.483950       -13.1690 
  10   1.0000      -0.389092       -10.5877 
  11   0.0000      -0.051040        -1.3889 
  12   0.0000      -0.024867        -0.6767 
  13   0.0000       0.038427         1.0457 
  14   0.0000       0.062008         1.6873 
  15   0.0000       0.080637         2.1942 
  16   0.0000       0.090852         2.4722 
  17   0.0000       0.113420         3.0863 
  18   0.0000       0.129796         3.5319 
  19   0.0000       0.135743         3.6938 
  20   0.0000       0.139903         3.8069 
  21   0.0000       0.167484         4.5575 
*Only the first 10 virtual orbitals were printed.

                    ********************************
                    * MULLIKEN POPULATION ANALYSIS *
                    ********************************

--------------------------------------------
MULLIKEN ATOMIC CHARGES AND SPIN POPULATIONS
--------------------------------------------
   0 O :   -0.286072    1.022677
   1 C :   -0.058565   -0.047619
   2 C :   -0.554691    0.844293
   3 H :    0.222988    0.048250
   4 H :    0.202073    0.057795
   5 H :    0.233836    0.037723
   6 H :    0.240431    0.036880
Sum of atomic charges         :   -0.0000000
Sum of atomic spin populations:    2.0000000

-----------------------------------------------------
MULLIKEN REDUCED ORBITAL CHARGES AND SPIN POPULATIONS
-----------------------------------------------------
CHARGE
  0 O s       :     3.972230  s :     3.972230
      pz      :     1.049617  p :     4.294460
      px      :     1.937699
      py      :     1.307144
      dz2     :     0.002271  d :     0.018578
      dxz     :     0.000039
      dyz     :     0.006045
      dx2y2   :     0.006010
      dxy     :     0.004213
      f0      :     0.000081  f :     0.000804
      f+1     :     0.000025
      f-1     :     0.000093
      f+2     :     0.000112
      f-2     :     0.000002
      f+3     :     0.000172
      f-3     :     0.000319

  1 C s       :     3.225919  s :     3.225919
      pz      :     1.173525  p :     2.712195
      px      :     0.881439
      py      :     0.657231
      dz2     :     0.006824  d :     0.113427
      dxz     :     0.009052
      dyz     :     0.027359
      dx2y2   :     0.020893
      dxy     :     0.049299
      f0      :     0.000562  f :     0.007025
      f+1     :     0.000605
      f-1     :     0.000752
      f+2     :     0.000625
      f-2     :     0.000220
      f+3     :     0.002606
      f-3     :     0.001654

  2 C s       :     3.550626  s :     3.550626
      pz      :     1.146943  p :     2.975743
      px      :     0.962372
      py      :     0.866428
      dz2     :     0.008026  d :     0.025490
      dxz     :     0.013035
      dyz     :    -0.003117
      dx2y2   :     0.002909
      dxy     :     0.004637
      f0      :     0.000422  f :     0.002833
      f+1     :     0.000567
      f-1     :     0.000096
      f+2     :     0.000239
      f-2     :     0.000366
      f+3     :     0.000494
      f-3     :     0.000649

  3 H s       :     0.734059  s :     0.734059
      pz      :     0.014301  p :     0.040468
      px      :     0.009567
      py      :     0.016600
      dz2     :     0.000803  d :     0.002485
      dxz     :     0.000469
      dyz     :     0.000490
      dx2y2   :     0.000462
      dxy     :     0.000261

  4 H s       :     0.754410  s :     0.754410
      pz      :     0.015735  p :     0.041001
      px      :     0.008161
      py      :     0.017105
      dz2     :     0.000809  d :     0.002515
      dxz     :     0.000527
      dyz     :     0.000573
      dx2y2   :     0.000378
      dxy     :     0.000229

  5 H s       :     0.714250  s :     0.714250
      pz      :     0.014378  p :     0.049681
      px      :     0.018902
      py      :     0.016401
      dz2     :     0.000653  d :     0.002232
      dxz     :     0.000520
      dyz     :     0.000537
      dx2y2   :     0.000217
      dxy     :     0.000305

  6 H s       :     0.709739  s :     0.709739
      pz      :     0.014330  p :     0.047626
      px      :     0.017412
      py      :     0.015884
      dz2     :     0.000648  d :     0.002204
      dxz     :     0.000557
      dyz     :     0.000597
      dx2y2   :     0.000165
      dxy     :     0.000238


SPIN
  0 O s       :     0.002302  s :     0.002302
      pz      :     0.918872  p :     1.024066
      px      :     0.017003
      py      :     0.088192
      dz2     :     0.000332  d :    -0.003595
      dxz     :     0.000019
      dyz     :    -0.003149
      dx2y2   :    -0.000438
      dxy     :    -0.000359
      f0      :    -0.000010  f :    -0.000096
      f+1     :     0.000013
      f-1     :    -0.000115
      f+2     :     0.000002
      f-2     :     0.000002
      f+3     :     0.000006
      f-3     :     0.000006

  1 C s       :     0.003670  s :     0.003670
      pz      :    -0.011613  p :    -0.102709
      px      :    -0.012686
      py      :    -0.078410
      dz2     :     0.002249  d :     0.049725
      dxz     :     0.003235
      dyz     :     0.024180
      dx2y2   :     0.022573
      dxy     :    -0.002512
      f0      :     0.000343  f :     0.001696
      f+1     :     0.000070
      f-1     :    -0.000016
      f+2     :     0.000575
      f-2     :     0.000060
      f+3     :     0.000640
      f-3     :     0.000024

  2 C s       :     0.003874  s :     0.003874
      pz      :     0.002515  p :     0.851752
      px      :     0.189922
      py      :     0.659315
      dz2     :    -0.000815  d :    -0.010464
      dxz     :    -0.005594
      dyz     :     0.000318
      dx2y2   :    -0.003227
      dxy     :    -0.001147
      f0      :    -0.000088  f :    -0.000869
      f+1     :    -0.000193
      f-1     :     0.000007
      f+2     :    -0.000160
      f-2     :    -0.000030
      f+3     :    -0.000079
      f-3     :    -0.000327

  3 H s       :     0.042506  s :     0.042506
      pz      :     0.001627  p :     0.005779
      px      :    -0.000198
      py      :     0.004350
      dz2     :    -0.000020  d :    -0.000035
      dxz     :     0.000011
      dyz     :    -0.000013
      dx2y2   :    -0.000014
      dxy     :     0.000001

  4 H s       :     0.051105  s :     0.051105
      pz      :     0.002270  p :     0.006707
      px      :    -0.000392
      py      :     0.004829
      dz2     :    -0.000007  d :    -0.000016
      dxz     :     0.000021
      dyz     :    -0.000028
      dx2y2   :     0.000006
      dxy     :    -0.000008

  5 H s       :     0.013533  s :     0.013533
      pz      :     0.000433  p :     0.023280
      px      :     0.007578
      py      :     0.015269
      dz2     :     0.000153  d :     0.000910
      dxz     :     0.000029
      dyz     :     0.000457
      dx2y2   :     0.000039
      dxy     :     0.000232

  6 H s       :     0.012352  s :     0.012352
      pz      :     0.000824  p :     0.023620
      px      :     0.007626
      py      :     0.015170
      dz2     :     0.000108  d :     0.000909
      dxz     :     0.000063
      dyz     :     0.000525
      dx2y2   :     0.000043
      dxy     :     0.000171



                     *******************************
                     * LOEWDIN POPULATION ANALYSIS *
                     *******************************

-------------------------------------------
LOEWDIN ATOMIC CHARGES AND SPIN POPULATIONS
-------------------------------------------
   0 O :   -0.003639    0.971060
   1 C :   -0.132722    0.135382
   2 C :    0.251397    0.686120
   3 H :   -0.009475    0.024324
   4 H :    0.003444    0.032375
   5 H :   -0.055524    0.075018
   6 H :   -0.053482    0.075721

----------------------------------------------------
LOEWDIN REDUCED ORBITAL CHARGES AND SPIN POPULATIONS
----------------------------------------------------
CHARGE
  0 O s       :     3.586996  s :     3.586996
      pz      :     1.004099  p :     4.210956
      px      :     1.798334
      py      :     1.408523
      dz2     :     0.018917  d :     0.203533
      dxz     :     0.000473
      dyz     :     0.066711
      dx2y2   :     0.056389
      dxy     :     0.061042
      f0      :     0.000296  f :     0.002155
      f+1     :     0.000065
      f-1     :     0.000302
      f+2     :     0.000378
      f-2     :     0.000002
      f+3     :     0.000474
      f-3     :     0.000639

  1 C s       :     2.669165  s :     2.669165
      pz      :     0.944105  p :     2.603439
      px      :     0.915863
      py      :     0.743471
      dz2     :     0.101246  d :     0.804316
      dxz     :     0.137136
      dyz     :     0.095753
      dx2y2   :     0.222393
      dxy     :     0.247788
      f0      :     0.003704  f :     0.055803
      f+1     :     0.005694
      f-1     :     0.009089
      f+2     :     0.004767
      f-2     :     0.006302
      f+3     :     0.013895
      f-3     :     0.012352

  2 C s       :     2.762761  s :     2.762761
      pz      :     0.986928  p :     2.593500
      px      :     0.890122
      py      :     0.716451
      dz2     :     0.059203  d :     0.372592
      dxz     :     0.160649
      dyz     :     0.018975
      dx2y2   :     0.072140
      dxy     :     0.061626
      f0      :     0.002262  f :     0.019750
      f+1     :     0.004580
      f-1     :     0.001552
      f+2     :     0.002683
      f-2     :     0.002324
      f+3     :     0.003240
      f-3     :     0.003107

  3 H s       :     0.693861  s :     0.693861
      pz      :     0.113314  p :     0.283680
      px      :     0.098996
      py      :     0.071370
      dz2     :     0.009487  d :     0.031935
      dxz     :     0.007994
      dyz     :     0.006048
      dx2y2   :     0.004370
      dxy     :     0.004036

  4 H s       :     0.687819  s :     0.687819
      pz      :     0.116821  p :     0.277707
      px      :     0.091444
      py      :     0.069442
      dz2     :     0.009818  d :     0.031030
      dxz     :     0.008519
      dyz     :     0.006164
      dx2y2   :     0.003442
      dxy     :     0.003087

  5 H s       :     0.737120  s :     0.737120
      pz      :     0.122635  p :     0.288888
      px      :     0.092156
      py      :     0.074097
      dz2     :     0.008725  d :     0.029515
      dxz     :     0.009132
      dyz     :     0.005759
      dx2y2   :     0.002864
      dxy     :     0.003035

  6 H s       :     0.736499  s :     0.736499
      pz      :     0.127903  p :     0.287597
      px      :     0.086036
      py      :     0.073657
      dz2     :     0.009262  d :     0.029386
      dxz     :     0.009309
      dyz     :     0.006359
      dx2y2   :     0.002150
      dxy     :     0.002307


SPIN
  0 O s       :     0.014196  s :     0.014196
      pz      :     0.852767  p :     0.949903
      px      :     0.024576
      py      :     0.072560
      dz2     :     0.001319  d :     0.007021
      dxz     :     0.000067
      dyz     :     0.005605
      dx2y2   :    -0.000866
      dxy     :     0.000898
      f0      :     0.000060  f :    -0.000061
      f+1     :     0.000033
      f-1     :    -0.000119
      f+2     :     0.000018
      f-2     :     0.000001
      f+3     :    -0.000008
      f-3     :    -0.000046

  1 C s       :    -0.003373  s :    -0.003373
      pz      :     0.006263  p :    -0.029896
      px      :    -0.014654
      py      :    -0.021505
      dz2     :     0.006326  d :     0.156297
      dxz     :     0.005815
      dyz     :     0.066467
      dx2y2   :     0.063018
      dxy     :     0.014671
      f0      :     0.002044  f :     0.012354
      f+1     :     0.000239
      f-1     :     0.000368
      f+2     :     0.004027
      f-2     :     0.000753
      f+3     :     0.004019
      f-3     :     0.000905

  2 C s       :     0.030367  s :     0.030367
      pz      :     0.014499  p :     0.658911
      px      :     0.121431
      py      :     0.522981
      dz2     :    -0.001979  d :    -0.002552
      dxz     :    -0.001137
      dyz     :     0.000037
      dx2y2   :     0.002054
      dxy     :    -0.001526
      f0      :    -0.000014  f :    -0.000606
      f+1     :    -0.000207
      f-1     :     0.000314
      f+2     :    -0.000228
      f-2     :     0.000071
      f+3     :    -0.000132
      f-3     :    -0.000411

  3 H s       :     0.019946  s :     0.019946
      pz      :     0.000439  p :     0.004934
      px      :    -0.000411
      py      :     0.004906
      dz2     :    -0.000137  d :    -0.000556
      dxz     :    -0.000059
      dyz     :    -0.000191
      dx2y2   :    -0.000091
      dxy     :    -0.000078

  4 H s       :     0.028195  s :     0.028195
      pz      :     0.000319  p :     0.004749
      px      :    -0.000662
      py      :     0.005092
      dz2     :    -0.000134  d :    -0.000569
      dxz     :    -0.000042
      dyz     :    -0.000282
      dx2y2   :     0.000005
      dxy     :    -0.000116

  5 H s       :    -0.007715  s :    -0.007715
      pz      :     0.002912  p :     0.073702
      px      :     0.013211
      py      :     0.057579
      dz2     :     0.001122  d :     0.009031
      dxz     :     0.000619
      dyz     :     0.004630
      dx2y2   :     0.000295
      dxy     :     0.002366

  6 H s       :    -0.007577  s :    -0.007577
      pz      :     0.003325  p :     0.074270
      px      :     0.013019
      py      :     0.057926
      dz2     :     0.000738  d :     0.009028
      dxz     :     0.000866
      dyz     :     0.005351
      dx2y2   :     0.000343
      dxy     :     0.001729



                      *****************************
                      * MAYER POPULATION ANALYSIS *
                      *****************************

  NA   - Mulliken gross atomic population
  ZA   - Total nuclear charge
  QA   - Mulliken gross atomic charge
  VA   - Mayer's total valence
  BVA  - Mayer's bonded valence
  FA   - Mayer's free valence

  ATOM       NA         ZA         QA         VA         BVA        FA
  0 O      8.2861     8.0000    -0.2861     1.8922     1.0141     0.8782
  1 C      6.0586     6.0000    -0.0586     3.5056     3.4979     0.0077
  2 C      6.5547     6.0000    -0.5547     3.5576     2.7867     0.7709
  3 H      0.7770     1.0000     0.2230     0.9990     0.9977     0.0013
  4 H      0.7979     1.0000     0.2021     1.0106     1.0087     0.0020
  5 H      0.7662     1.0000     0.2338     0.9936     0.9930     0.0006
  6 H      0.7596     1.0000     0.2404     0.9854     0.9848     0.0006

  Mayer bond orders larger than 0.100000
B(  0-O ,  1-C ) :   0.8399 B(  1-C ,  2-C ) :   0.7562 B(  1-C ,  3-H ) :   0.9777 
B(  1-C ,  4-H ) :   0.9728 B(  2-C ,  5-H ) :   0.9986 B(  2-C ,  6-H ) :   0.9949 


-------
TIMINGS
-------

Total SCF time: 0 days 0 hours 0 min 6 sec 

Total time                  ....       6.055 sec
Sum of individual times     ....       6.039 sec  ( 99.7%)

SCF preparation             ....       0.573 sec  (  9.5%)
Fock matrix formation       ....       4.571 sec  ( 75.5%)
  Startup                   ....       0.052 sec  (  1.1% of F)
  Split-RI-J                ....       0.275 sec  (  6.0% of F)
  Chain of spheres X        ....       2.847 sec  ( 62.3% of F)
  XC integration            ....       1.226 sec  ( 26.8% of F)
    XC Preparation          ....       0.000 sec  (  0.0% of XC)
    Basis function eval.    ....       0.092 sec  (  7.5% of XC)
    Density eval.           ....       0.336 sec  ( 27.4% of XC)
    XC-Functional eval.     ....       0.029 sec  (  2.3% of XC)
    XC-Potential eval.      ....       0.538 sec  ( 43.9% of XC)
Diagonalization             ....       0.000 sec  (  0.0%)
Density matrix formation    ....       0.115 sec  (  1.9%)
Total Energy calculation    ....       0.096 sec  (  1.6%)
Population analysis         ....       0.025 sec  (  0.4%)
Orbital Transformation      ....       0.060 sec  (  1.0%)
Orbital Orthonormalization  ....       0.000 sec  (  0.0%)
DIIS solution               ....       0.357 sec  (  5.9%)
SOSCF solution              ....       0.238 sec  (  3.9%)
Finished LeanSCF after   6.1 sec

Maximum memory used throughout the entire LEANSCF-calculation: 14.6 MB
[1741042891.854008] [ohm:290862:0]        ib_iface.c:1059 UCX  ERROR ibv_create_cq(cqe=256) failed: Connection timed out
[1741042891.881289] [ohm:290847:0]        ib_iface.c:1059 UCX  ERROR ibv_create_cq(cqe=256) failed: Connection timed out
[1741042891.881324] [ohm:290870:0]        ib_iface.c:1059 UCX  ERROR ibv_create_cq(cqe=256) failed: Connection timed out
[1741042891.881576] [ohm:290872:0]        ib_iface.c:1059 UCX  ERROR ibv_create_cq(cqe=256) failed: Connection timed out
[1741042891.892469] [ohm:290837:0]        ib_iface.c:1059 UCX  ERROR ibv_create_cq(cqe=256) failed: Connection timed out
[1741042891.893663] [ohm:290876:0]        ib_iface.c:1059 UCX  ERROR ibv_create_cq(cqe=256) failed: Connection timed out
[1741042891.893772] [ohm:290875:0]        ib_iface.c:1059 UCX  ERROR ibv_create_cq(cqe=256) failed: Connection timed out
[1741042891.900031] [ohm:290852:0]        ib_iface.c:1059 UCX  ERROR ibv_create_cq(cqe=256) failed: Connection timed out
[1741042891.900802] [ohm:290867:0]        ib_iface.c:1059 UCX  ERROR ibv_create_cq(cqe=256) failed: Connection timed out
[1741042891.917450] [ohm:290845:0]        ib_iface.c:1059 UCX  ERROR ibv_create_cq(cqe=256) failed: Connection timed out
[1741042891.917444] [ohm:290829:0]        ib_iface.c:1059 UCX  ERROR ibv_create_cq(cqe=256) failed: Connection timed out
[1741042891.918284] [ohm:290842:0]        ib_iface.c:1059 UCX  ERROR ibv_create_cq(cqe=256) failed: Connection timed out
[1741042891.918897] [ohm:290850:0]        ib_iface.c:1059 UCX  ERROR ibv_create_cq(cqe=256) failed: Connection timed out
[1741042891.919723] [ohm:290854:0]        ib_iface.c:1059 UCX  ERROR ibv_create_cq(cqe=256) failed: Connection timed out
[1741042891.921346] [ohm:290848:0]        ib_iface.c:1059 UCX  ERROR ibv_create_cq(cqe=256) failed: Connection timed out
[1741042891.922096] [ohm:290835:0]        ib_iface.c:1059 UCX  ERROR ibv_create_cq(cqe=256) failed: Connection timed out
[1741042891.923992] [ohm:290884:0]        ib_iface.c:1059 UCX  ERROR ibv_create_cq(cqe=256) failed: Connection timed out
[1741042891.932847] [ohm:290841:0]        ib_iface.c:1059 UCX  ERROR ibv_create_cq(cqe=256) failed: Connection timed out
[1741042891.932926] [ohm:290836:0]        ib_iface.c:1059 UCX  ERROR ibv_create_cq(cqe=256) failed: Connection timed out
[1741042891.933532] [ohm:290846:0]        ib_iface.c:1059 UCX  ERROR ibv_create_cq(cqe=256) failed: Connection timed out
[1741042891.934235] [ohm:290831:0]        ib_iface.c:1059 UCX  ERROR ibv_create_cq(cqe=256) failed: Connection timed out
[1741042891.935219] [ohm:290838:0]        ib_iface.c:1059 UCX  ERROR ibv_create_cq(cqe=256) failed: Connection timed out
[1741042891.935404] [ohm:290843:0]        ib_iface.c:1059 UCX  ERROR ibv_create_cq(cqe=256) failed: Connection timed out
[1741042891.935382] [ohm:290879:0]        ib_iface.c:1059 UCX  ERROR ibv_create_cq(cqe=256) failed: Connection timed out
[1741042891.935401] [ohm:290834:0]        ib_iface.c:1059 UCX  ERROR ibv_create_cq(cqe=256) failed: Connection timed out
[1741042891.935471] [ohm:290830:0]        ib_iface.c:1059 UCX  ERROR ibv_create_cq(cqe=256) failed: Connection timed out
[1741042891.935436] [ohm:290832:0]        ib_iface.c:1059 UCX  ERROR ibv_create_cq(cqe=256) failed: Connection timed out
[1741042891.935440] [ohm:290833:0]        ib_iface.c:1059 UCX  ERROR ibv_create_cq(cqe=256) failed: Connection timed out
[1741042891.935485] [ohm:290828:0]        ib_iface.c:1059 UCX  ERROR ibv_create_cq(cqe=256) failed: Connection timed out
[1741042891.935657] [ohm:290839:0]        ib_iface.c:1059 UCX  ERROR ibv_create_cq(cqe=256) failed: Connection timed out
[1741042891.936079] [ohm:290840:0]        ib_iface.c:1059 UCX  ERROR ibv_create_cq(cqe=256) failed: Connection timed out
[1741042891.937028] [ohm:290844:0]        ib_iface.c:1059 UCX  ERROR ibv_create_cq(cqe=256) failed: Connection timed out


           ************************************************************
           *        Program running with 32 parallel MPI-processes    *
           *              working on a common directory               *
           ************************************************************

------------------------------------------------------------------------------
                         ORCA PROPERTY INTEGRAL CALCULATIONS
------------------------------------------------------------------------------

GBWName                                   ... orca.gbw
Number of atoms                           ...      7
Number of basis functions                 ...    182
Max core memory                           ...   1024 MB

Dipole integrals                          ... YES
Quadrupole integrals                      ...  NO
Linear momentum integrals                 ... YES
Angular momentum integrals                ... YES
Higher moments length integrals           ...  NO
Higher moments velocity integrals         ...  NO
Kinetic energy integrals                  ...  NO
GIAO right hand sides                     ...  NO
GIAO dipole derivative integrals          ...  NO
SOC integrals                             ...  NO
EPR diamagnetic integrals (GIAO)          ...  NO
EPR gauge integrals                       ...  NO
Field gradient integrals                  ...  NO (   0 nuclei)
Spin-dipole/Fermi contact integrals       ...  NO (   0 nuclei)
Contact density integrals                 ...  NO (   0 nuclei)
Nucleus-orbit integrals                   ...  NO (   0 nuclei)
Geometric perturbations                   ...  NO (   7 nuclei)

Choice of electric origin   ... Center of mass
Position of electric origin ... (  0.0837,  0.0108, -0.0013) 
Choice of magnetic origin   ... GIAO
Position of magnetic origin ... (  0.0000,  0.0000,  0.0000) 

Calculating integrals                     ... Electric Dipole (Length)     done (  0.0 sec)
Calculating integrals                     ... Linear Momentum              done (  0.0 sec)
Calculating integrals                     ... Angular Momentum  (ElOri)    done (  0.0 sec)

Property integrals calculated in   0.0 sec

Maximum memory used throughout the entire PROPINT-calculation: 10.2 MB
[1741042892.816659] [ohm:291010:0]        ib_iface.c:1059 UCX  ERROR ibv_create_cq(cqe=256) failed: Connection timed out
[1741042892.816655] [ohm:291016:0]        ib_iface.c:1059 UCX  ERROR ibv_create_cq(cqe=256) failed: Connection timed out
[1741042892.816872] [ohm:291018:0]        ib_iface.c:1059 UCX  ERROR ibv_create_cq(cqe=256) failed: Connection timed out
[1741042892.817035] [ohm:291008:0]        ib_iface.c:1059 UCX  ERROR ibv_create_cq(cqe=256) failed: Connection timed out
[1741042892.817206] [ohm:291013:0]        ib_iface.c:1059 UCX  ERROR ibv_create_cq(cqe=256) failed: Connection timed out
[1741042892.817833] [ohm:290998:0]        ib_iface.c:1059 UCX  ERROR ibv_create_cq(cqe=256) failed: Connection timed out
[1741042892.819041] [ohm:291012:0]        ib_iface.c:1059 UCX  ERROR ibv_create_cq(cqe=256) failed: Connection timed out
[1741042892.820435] [ohm:291005:0]        ib_iface.c:1059 UCX  ERROR ibv_create_cq(cqe=256) failed: Connection timed out
[1741042892.821095] [ohm:291002:0]        ib_iface.c:1059 UCX  ERROR ibv_create_cq(cqe=256) failed: Connection timed out
[1741042892.822080] [ohm:290995:0]        ib_iface.c:1059 UCX  ERROR ibv_create_cq(cqe=256) failed: Connection timed out
[1741042892.836065] [ohm:291000:0]        ib_iface.c:1059 UCX  ERROR ibv_create_cq(cqe=256) failed: Connection timed out
[1741042892.837507] [ohm:290997:0]        ib_iface.c:1059 UCX  ERROR ibv_create_cq(cqe=256) failed: Connection timed out
[1741042892.837600] [ohm:291006:0]        ib_iface.c:1059 UCX  ERROR ibv_create_cq(cqe=256) failed: Connection timed out
[1741042892.842660] [ohm:291049:0]        ib_iface.c:1059 UCX  ERROR ibv_create_cq(cqe=256) failed: Connection timed out
[1741042892.843697] [ohm:291030:0]        ib_iface.c:1059 UCX  ERROR ibv_create_cq(cqe=256) failed: Connection timed out
[1741042892.845004] [ohm:291025:0]        ib_iface.c:1059 UCX  ERROR ibv_create_cq(cqe=256) failed: Connection timed out
[1741042892.845005] [ohm:291042:0]        ib_iface.c:1059 UCX  ERROR ibv_create_cq(cqe=256) failed: Connection timed out
[1741042892.846346] [ohm:291039:0]        ib_iface.c:1059 UCX  ERROR ibv_create_cq(cqe=256) failed: Connection timed out
[1741042892.846929] [ohm:291043:0]        ib_iface.c:1059 UCX  ERROR ibv_create_cq(cqe=256) failed: Connection timed out
[1741042892.846972] [ohm:291001:0]        ib_iface.c:1059 UCX  ERROR ibv_create_cq(cqe=256) failed: Connection timed out
[1741042892.847026] [ohm:291009:0]        ib_iface.c:1059 UCX  ERROR ibv_create_cq(cqe=256) failed: Connection timed out
[1741042892.847188] [ohm:291007:0]        ib_iface.c:1059 UCX  ERROR ibv_create_cq(cqe=256) failed: Connection timed out
[1741042892.850010] [ohm:291028:0]        ib_iface.c:1059 UCX  ERROR ibv_create_cq(cqe=256) failed: Connection timed out
[1741042892.850425] [ohm:291015:0]        ib_iface.c:1059 UCX  ERROR ibv_create_cq(cqe=256) failed: Connection timed out
[1741042892.850507] [ohm:291004:0]        ib_iface.c:1059 UCX  ERROR ibv_create_cq(cqe=256) failed: Connection timed out
[1741042892.850659] [ohm:291003:0]        ib_iface.c:1059 UCX  ERROR ibv_create_cq(cqe=256) failed: Connection timed out
[1741042892.850814] [ohm:291011:0]        ib_iface.c:1059 UCX  ERROR ibv_create_cq(cqe=256) failed: Connection timed out
[1741042892.850946] [ohm:291019:0]        ib_iface.c:1059 UCX  ERROR ibv_create_cq(cqe=256) failed: Connection timed out
[1741042892.851004] [ohm:290996:0]        ib_iface.c:1059 UCX  ERROR ibv_create_cq(cqe=256) failed: Connection timed out
[1741042892.851004] [ohm:291017:0]        ib_iface.c:1059 UCX  ERROR ibv_create_cq(cqe=256) failed: Connection timed out
[1741042892.851599] [ohm:291014:0]        ib_iface.c:1059 UCX  ERROR ibv_create_cq(cqe=256) failed: Connection timed out
[1741042892.852491] [ohm:290999:0]        ib_iface.c:1059 UCX  ERROR ibv_create_cq(cqe=256) failed: Connection timed out


           ************************************************************
           *        Program running with 32 parallel MPI-processes    *
           *              working on a common directory               *
           ************************************************************
------------------------------------------------------------------------------
                        ORCA TD-DFT/TDA CALCULATION
------------------------------------------------------------------------------

Input orbitals are from        ... orca.gbw
CI-vector output               ... orca.cis
Solver                         ... FN-2001
Tamm-Dancoff approximation     ... operative
CIS-Integral strategy          ... AO-integrals
Integral handling              ... AO integral Direct
Max. core memory used          ... 512 MB
Reference state                ... UHF
Follow IRoot                   ... off
Number of operators            ... 2
Orbital ranges used for CIS calculation:
 Operator 0:  Orbitals   3... 12  to  11...181

-------------------
XC-INTEGRATION GRID
-------------------

General Integration Accuracy     IntAcc      ... 3.467
Radial Grid Type                 RadialGrid  ... OptM3 with GC (2021)
Angular Grid (max. ang.)         AngularGrid ... 1 (Lebedev-50)
Angular grid pruning method      GridPruning ... 4 (adaptive)
Weight generation scheme         WeightScheme... mBecke (2022)
Basis function cutoff            BFCut       ... 1.0000e-11
[...]
=> NOW LEAVING ORCA_CIS


-------------------------------------------------------------------------------
                          DFT DISPERSION CORRECTION                            
                                                                               
                              DFTD3 V3.1  Rev 1                                
                          USING Becke-Johnson damping                          
-------------------------------------------------------------------------------
The WB97M functional is recognized
Active option DFTDOPT                   ...         4   

molecular C6(AA) [au] = 395.592079 


            DFT-D V3
 parameters
 s6 scaling factor         :     1.0000 
 a1 scaling factor         :     0.5660 
 s8 scaling factor         :     0.3908 
 a2 scaling factor         :     3.1280 
 ad hoc parameters k1-k3   :    16.0000     1.3333    -4.0000 

 Edisp/kcal,au: -3.348001344162  -0.005335379186 
 E6   /kcal   :  -2.698664498 
 E8   /kcal   :  -0.649336846 
 % E8         :  19.394760606 

-------------------------   ----------------
Dispersion correction           -0.005335379
-------------------------   ----------------


-------------------------   --------------------
FINAL SINGLE POINT ENERGY      -153.729952900445
-------------------------   --------------------

[1741042898.916118] [ohm:291206:0]        ib_iface.c:1059 UCX  ERROR ibv_create_cq(cqe=256) failed: Connection timed out
[1741042898.916275] [ohm:291221:0]        ib_iface.c:1059 UCX  ERROR ibv_create_cq(cqe=256) failed: Connection timed out
[1741042898.916261] [ohm:291201:0]        ib_iface.c:1059 UCX  ERROR ibv_create_cq(cqe=256) failed: Connection timed out
[1741042898.916520] [ohm:291235:0]        ib_iface.c:1059 UCX  ERROR ibv_create_cq(cqe=256) failed: Connection timed out
[1741042898.916558] [ohm:291211:0]        ib_iface.c:1059 UCX  ERROR ibv_create_cq(cqe=256) failed: Connection timed out
[1741042898.960229] [ohm:291193:0]        ib_iface.c:1059 UCX  ERROR ibv_create_cq(cqe=256) failed: Connection timed out
[1741042898.965939] [ohm:291195:0]        ib_iface.c:1059 UCX  ERROR ibv_create_cq(cqe=256) failed: Connection timed out
[1741042898.966179] [ohm:291210:0]        ib_iface.c:1059 UCX  ERROR ibv_create_cq(cqe=256) failed: Connection timed out
[1741042898.966191] [ohm:291198:0]        ib_iface.c:1059 UCX  ERROR ibv_create_cq(cqe=256) failed: Connection timed out
[1741042898.966191] [ohm:291203:0]        ib_iface.c:1059 UCX  ERROR ibv_create_cq(cqe=256) failed: Connection timed out
[1741042898.966256] [ohm:291204:0]        ib_iface.c:1059 UCX  ERROR ibv_create_cq(cqe=256) failed: Connection timed out
[1741042898.972276] [ohm:291214:0]        ib_iface.c:1059 UCX  ERROR ibv_create_cq(cqe=256) failed: Connection timed out
[1741042898.972267] [ohm:291196:0]        ib_iface.c:1059 UCX  ERROR ibv_create_cq(cqe=256) failed: Connection timed out
[1741042898.972309] [ohm:291223:0]        ib_iface.c:1059 UCX  ERROR ibv_create_cq(cqe=256) failed: Connection timed out
[1741042898.976984] [ohm:291207:0]        ib_iface.c:1059 UCX  ERROR ibv_create_cq(cqe=256) failed: Connection timed out
[1741042898.977188] [ohm:291215:0]        ib_iface.c:1059 UCX  ERROR ibv_create_cq(cqe=256) failed: Connection timed out
[1741042898.977905] [ohm:291200:0]        ib_iface.c:1059 UCX  ERROR ibv_create_cq(cqe=256) failed: Connection timed out
[1741042898.978185] [ohm:291212:0]        ib_iface.c:1059 UCX  ERROR ibv_create_cq(cqe=256) failed: Connection timed out
[1741042898.980244] [ohm:291197:0]        ib_iface.c:1059 UCX  ERROR ibv_create_cq(cqe=256) failed: Connection timed out
[1741042898.981943] [ohm:291208:0]        ib_iface.c:1059 UCX  ERROR ibv_create_cq(cqe=256) failed: Connection timed out
[1741042898.982141] [ohm:291216:0]        ib_iface.c:1059 UCX  ERROR ibv_create_cq(cqe=256) failed: Connection timed out
[1741042898.982294] [ohm:291218:0]        ib_iface.c:1059 UCX  ERROR ibv_create_cq(cqe=256) failed: Connection timed out
[1741042898.982617] [ohm:291209:0]        ib_iface.c:1059 UCX  ERROR ibv_create_cq(cqe=256) failed: Connection timed out
[1741042898.982887] [ohm:291238:0]        ib_iface.c:1059 UCX  ERROR ibv_create_cq(cqe=256) failed: Connection timed out
[1741042898.982955] [ohm:291252:0]        ib_iface.c:1059 UCX  ERROR ibv_create_cq(cqe=256) failed: Connection timed out
[1741042898.983251] [ohm:291229:0]        ib_iface.c:1059 UCX  ERROR ibv_create_cq(cqe=256) failed: Connection timed out
[1741042898.983308] [ohm:291243:0]        ib_iface.c:1059 UCX  ERROR ibv_create_cq(cqe=256) failed: Connection timed out
[1741042898.983525] [ohm:291194:0]        ib_iface.c:1059 UCX  ERROR ibv_create_cq(cqe=256) failed: Connection timed out
[1741042898.983559] [ohm:291202:0]        ib_iface.c:1059 UCX  ERROR ibv_create_cq(cqe=256) failed: Connection timed out
[1741042898.983583] [ohm:291205:0]        ib_iface.c:1059 UCX  ERROR ibv_create_cq(cqe=256) failed: Connection timed out
[1741042898.983606] [ohm:291213:0]        ib_iface.c:1059 UCX  ERROR ibv_create_cq(cqe=256) failed: Connection timed out
[1741042898.983702] [ohm:291199:0]        ib_iface.c:1059 UCX  ERROR ibv_create_cq(cqe=256) failed: Connection timed out


           ************************************************************
           *        Program running with 32 parallel MPI-processes    *
           *              working on a common directory               *
           ************************************************************

------------------------------------------------------------------------------
                              ORCA PROPERTY CALCULATIONS
------------------------------------------------------------------------------

GBWName                                 ... orca.gbw
Number of atoms                         ...      7
Number of basis functions               ...    182
Max core memory                         ...   1024 MB

Electric properties:
Dipole moment                           ... YES
Quadrupole moment                       ...  NO
Static polarizability (Dipole/Dipole)   ...  NO
Static polarizability (Dipole/Quad.)    ...  NO
Static polarizability (Quad./Quad.)     ...  NO
Static polarizability (Velocity)        ...  NO

Atomic electric properties:
Dipole moment                           ...  NO
Quadrupole moment                       ...  NO
Static polarizability                   ...  NO

Choice of electric origin               ... Center of mass
Position of electric origin             ...     0.083737     0.010811    -0.001346

General magnetic properties:
Magnetizability                         ...  NO

EPR properties:
g-Tensor (aka g-matrix)                 ...  NO
Zero-Field splitting spin-orbit         ...  NO
Zero-field splitting spin-spin          ...  NO
Hyperfine couplings                     ...  NO (   0 nuclei)
Quadrupole couplings                    ...  NO (   0 nuclei)
Contact density                         ...  NO (   0 nuclei)

NMR properties:
Chemical shifts                         ...  NO (   0 nuclei)
Spin-rotation constants                 ...  NO (   0 nuclei)
Spin-spin couplings                     ...  NO (   0 nuclei,    0 pairs)

Choice of magnetic origin               ... GIAO
Position of magnetic origin             ...     0.000000     0.000000     0.000000

Properties with geometric perturbations:
SCF Hessian                             ...  NO
IR spectrum                             ...  NO
VCD spectrum                            ...  NO
X-ray spectroscopy properties:
SCF XES/XAS/RIXS spectra                ...  NO


-------------
DIPOLE MOMENT
-------------

Method             : SCF
Type of density    : Electron Density
Multiplicity       :   3
Irrep              :   0
Energy             :  -153.7657402490282266 Eh
Relativity type    : 
Basis              : AO
                                X                 Y                 Z
Electronic contribution:      0.901991389       2.471110475      -0.029395678
Nuclear contribution   :     -1.008546779      -3.214379821       0.041534245
                        -----------------------------------------
Total Dipole Moment    :     -0.106555390      -0.743269346       0.012138566
                        -----------------------------------------
Magnitude (a.u.)       :      0.750966521
Magnitude (Debye)      :      1.908805202



--------------------
Rotational spectrum 
--------------------
 
Rotational constants in cm-1:             1.536536             0.276570             0.257270 
Rotational constants in MHz :         46064.203709          8291.351674          7712.748040 

Dipole components along the rotational axes: 
x,y,z [a.u.] :    -0.685578     0.306486    -0.000079 
x,y,z [Debye]:    -1.742600     0.779026    -0.000200 

 

-------------
DIPOLE MOMENT
-------------

Method             : TDA/CIS
Type of density    : Electron Density
Level              : Relaxed density
State              :   1
Multiplicity       :   3
Irrep              :   0
Energy             :     0.0000000000000000 Eh
Relativity type    : 
Basis              : AO
                                X                 Y                 Z
Electronic contribution:      0.883507980       2.572257176      -0.029707235
Nuclear contribution   :     -1.008546779      -3.214379821       0.041534245
                        -----------------------------------------
Total Dipole Moment    :     -0.125038799      -0.642122645       0.011827010
                        -----------------------------------------
Magnitude (a.u.)       :      0.654290509
Magnitude (Debye)      :      1.663074308



--------------------
Rotational spectrum 
--------------------
 
Rotational constants in cm-1:             1.536536             0.276570             0.257270 
Rotational constants in MHz :         46064.203709          8291.351674          7712.748040 

Dipole components along the rotational axes: 
x,y,z [a.u.] :    -0.609909     0.236869     0.000233 
x,y,z [Debye]:    -1.550265     0.602074     0.000593 

 

Dipole moment calculation done in   0.0 sec 

Maximum memory used throughout the entire PROP-calculation: 7.4 MB
[1741042899.787691] [ohm:291360:0]        ib_iface.c:1059 UCX  ERROR ibv_create_cq(cqe=256) failed: Connection timed out
[1741042899.787702] [ohm:291373:0]        ib_iface.c:1059 UCX  ERROR ibv_create_cq(cqe=256) failed: Connection timed out
[1741042899.787689] [ohm:291369:0]        ib_iface.c:1059 UCX  ERROR ibv_create_cq(cqe=256) failed: Connection timed out
[1741042899.787689] [ohm:291372:0]        ib_iface.c:1059 UCX  ERROR ibv_create_cq(cqe=256) failed: Connection timed out
[1741042899.787900] [ohm:291363:0]        ib_iface.c:1059 UCX  ERROR ibv_create_cq(cqe=256) failed: Connection timed out
[1741042899.825371] [ohm:291379:0]        ib_iface.c:1059 UCX  ERROR ibv_create_cq(cqe=256) failed: Connection timed out
[1741042899.826222] [ohm:291375:0]        ib_iface.c:1059 UCX  ERROR ibv_create_cq(cqe=256) failed: Connection timed out
[1741042899.829333] [ohm:291361:0]        ib_iface.c:1059 UCX  ERROR ibv_create_cq(cqe=256) failed: Connection timed out
[1741042899.835910] [ohm:291386:0]        ib_iface.c:1059 UCX  ERROR ibv_create_cq(cqe=256) failed: Connection timed out
[1741042899.840639] [ohm:291388:0]        ib_iface.c:1059 UCX  ERROR ibv_create_cq(cqe=256) failed: Connection timed out
[1741042899.840707] [ohm:291378:0]        ib_iface.c:1059 UCX  ERROR ibv_create_cq(cqe=256) failed: Connection timed out
[1741042899.849870] [ohm:291367:0]        ib_iface.c:1059 UCX  ERROR ibv_create_cq(cqe=256) failed: Connection timed out
[1741042899.851646] [ohm:291366:0]        ib_iface.c:1059 UCX  ERROR ibv_create_cq(cqe=256) failed: Connection timed out
[1741042899.851744] [ohm:291395:0]        ib_iface.c:1059 UCX  ERROR ibv_create_cq(cqe=256) failed: Connection timed out
[1741042899.854888] [ohm:291377:0]        ib_iface.c:1059 UCX  ERROR ibv_create_cq(cqe=256) failed: Connection timed out
[1741042899.855292] [ohm:291384:0]        ib_iface.c:1059 UCX  ERROR ibv_create_cq(cqe=256) failed: Connection timed out
[1741042899.856598] [ohm:291374:0]        ib_iface.c:1059 UCX  ERROR ibv_create_cq(cqe=256) failed: Connection timed out
[1741042899.857308] [ohm:291381:0]        ib_iface.c:1059 UCX  ERROR ibv_create_cq(cqe=256) failed: Connection timed out
[1741042899.857337] [ohm:291405:0]        ib_iface.c:1059 UCX  ERROR ibv_create_cq(cqe=256) failed: Connection timed out
[1741042899.857997] [ohm:291380:0]        ib_iface.c:1059 UCX  ERROR ibv_create_cq(cqe=256) failed: Connection timed out
[1741042899.858438] [ohm:291376:0]        ib_iface.c:1059 UCX  ERROR ibv_create_cq(cqe=256) failed: Connection timed out
[1741042899.859135] [ohm:291368:0]        ib_iface.c:1059 UCX  ERROR ibv_create_cq(cqe=256) failed: Connection timed out
[1741042899.859234] [ohm:291371:0]        ib_iface.c:1059 UCX  ERROR ibv_create_cq(cqe=256) failed: Connection timed out
[1741042899.860838] [ohm:291410:0]        ib_iface.c:1059 UCX  ERROR ibv_create_cq(cqe=256) failed: Connection timed out
[1741042899.862030] [ohm:291365:0]        ib_iface.c:1059 UCX  ERROR ibv_create_cq(cqe=256) failed: Connection timed out
[1741042899.862332] [ohm:291412:0]        ib_iface.c:1059 UCX  ERROR ibv_create_cq(cqe=256) failed: Connection timed out
[1741042899.864192] [ohm:291397:0]        ib_iface.c:1059 UCX  ERROR ibv_create_cq(cqe=256) failed: Connection timed out
[1741042899.864246] [ohm:291364:0]        ib_iface.c:1059 UCX  ERROR ibv_create_cq(cqe=256) failed: Connection timed out
[1741042899.864309] [ohm:291362:0]        ib_iface.c:1059 UCX  ERROR ibv_create_cq(cqe=256) failed: Connection timed out
[1741042899.864972] [ohm:291383:0]        ib_iface.c:1059 UCX  ERROR ibv_create_cq(cqe=256) failed: Connection timed out
[1741042899.864954] [ohm:291370:0]        ib_iface.c:1059 UCX  ERROR ibv_create_cq(cqe=256) failed: Connection timed out
[1741042899.865373] [ohm:291382:0]        ib_iface.c:1059 UCX  ERROR ibv_create_cq(cqe=256) failed: Connection timed out

--------------------------------
SUGGESTED CITATIONS FOR THIS RUN
--------------------------------

Below you find a list of papers that are relevant to this ORCA run
We neither can nor want to force you to cite these papers, but we appreciate if you do
You receive ORCA, which is the product of decades of hard work by many enthusiastic individuals, for free
The only thing we kindly ask in return is that you cite our papers,
We deeply appreciate it, if you show your appreciation for ORCA by not just citing the generic ORCA reference.

Please note that relegating all ORCA citations to the supporting information does *not* help us.
SI sections are not indexed - citations you put there will not count into any citation statistics
But we need these citations in order to attract the funding resources that allow us to do what we are doing

Therefore, if you are a happy ORCA user, please consider citing a few of the papers listed below in the main body of your paper

In addition to the list printed below, the program has created the file orca.bibtex that contains the list in bibtex format
You can import this file easily into all common literature databanks and citation aid programs


List of essential papers. We consider these as the minimum necessary citations

  1. Neese,F.
     Software update: the ORCA program system, version 5.0
     WIRES Comput. Molec. Sci., 2022 12(1)e1606
     doi.org/10.1002/wcms.1606

List of papers to cite with high priority. The work reported in these papers was absolutely
necessary for this run to complete.
Our perspective: the developers of density functionals and basis sets usually get cited in chemistry papers
Good! But without the algorithms to do something with them, the functionals or basis sets would not do anything.
Hence, in our opinion, the algorithm design and method developments papers are equally worthy of getting cited

  1. Neese,F.; Olbrich,G.
     Efficient use of the resolution of the identity approximation in time-dependent density functional calculations with hybrid density functionals
     Chem. Phys. Lett., 2002 362 170-178
     doi.org/10.1016/s0009-2614(02)01053-9
  2. Neese,F.
     An improvement of the resolution of the identity approximation for the formation of the Coulomb matrix
     J. Comp. Chem., 2003 24(14)1740-1747
     doi.org/10.1002/jcc.10318
  3. Neese,F.; Wennmohs,F.; Hansen,A.; Becker,U.
     Efficient, approximate and parallel Hartree-Fock and hybrid DFT calculations. A 'chain-of-spheres' algorithm for the Hartree-Fock exchange
     Chem. Phys., 2009 356(1-3)98-109
     doi.org/10.1016/j.chemphys.2008.10.036
  4. Petrenko,T.; Kossmann,S.; Neese,F.
     Efficient time-dependent density functional theory approximations for hybrid density functionals: Analytical gradients and parallelization
     J. Chem. Phys., 2011 134 054116
     doi.org/10.1063/1.3533441
  5. Helmich-Paris,B.; de Souza,B.; Neese,F.; Izsák,R.
     An improved chain of spheres for exchange algorithm
     J. Chem. Phys., 2021 155 104109
     doi.org/doi: 10.1063/5.0058766.
  6. Neese,F.
     The SHARK Integral Generation and Digestion System
     J. Comp. Chem., 2022  1-16
     doi.org/10.1002/jcc.26942
  7. Lehtola,S.; Steigemann,C.; Oliveira,M.; Marques,M.
     Recent developments in Libxc - A comprehensive library of functionals for density functional theory
     Software X, 2018 7 
     doi.org/10.1016/j.softx.2017.11.002
  8. Grimme,S.; Antony,J.; Ehrlich,S.; Krieg,H.
     A consistent and accurate ab initio parametrization of density functional dispersion correction (DFT-D) for the 94 elements H-Pu
     J. Chem. Phys., 2010 132 154104-XXXX
     doi.org/10.1063/1.3382344
  9. Grimme,S.; Ehrlich,S.; Goerigk,L.
     Effect of the damping function in dispersion corrected density functional theory
     J. Comput. Chem., 2011 32(7)1456-1465
     doi.org/10.1002/jcc.21759

List of suggested additional citations. These are papers that are important in the 'surrounding' of 
of this run, or papers that preceded the highly important papers. If you like your results we are grateful for a citation.

  1. Izsak,R.; Neese,F.
     An overlap fitted chain of spheres exchange method
     J. Chem. Phys., 2011 135 144105
     doi.org/10.1063/1.3646921
  2. Izsak,R.; Hansen,A.; Neese,F.
     The resolution of identity and chain of spheres approximations for the LPNO-CCSD singles Fock term
     Molec. Phys., 2012 110 2413-2417
     doi.org/10.1080/00268976.2012.687466
  3. Neese,F.
     The ORCA program system
     WIRES Comput. Molec. Sci., 2012 2(1)73-78
     doi.org/10.1002/wcms.81
  4. Izsak,R.; Neese,F.; Klopper,W.
     Robust fitting techniques in the chain of spheres approximation to the Fock exchange: The role of the complementary space
     J. Chem. Phys., 2013 139 
     doi.org/10.1063/1.4819264
  5. Neese,F.
     Software update: the ORCA program system, version 4.0
     WIRES Comput. Molec. Sci., 2018 8(1)1-6
     doi.org/10.1002/wcms.1327
  6. Neese,F.; Wennmohs,F.; Becker,U.; Riplinger,C.
     The ORCA quantum chemistry program package
     J. Chem. Phys., 2020 152 Art. No. L224108
     doi.org/10.1063/5.0004608

List of optional additional citations

  1. Neese,F.
     Approximate second-order SCF convergence for spin unrestricted wavefunctions
     Chem. Phys. Lett., 2000 325(1-3)93-98
     doi.org/10.1016/s0009-2614(00)00662-x

Timings for individual modules:

Sum of individual times          ...       16.512 sec (=   0.275 min)
Startup calculation              ...        1.181 sec (=   0.020 min)   7.2 %
SCF iterations                   ...        7.429 sec (=   0.124 min)  45.0 %
Property integrals               ...        0.911 sec (=   0.015 min)   5.5 %
Property calculations            ...        0.903 sec (=   0.015 min)   5.5 %
CIS module                       ...        6.087 sec (=   0.101 min)  36.9 %
                             ****ORCA TERMINATED NORMALLY****
TOTAL RUN TIME: 0 days 0 hours 0 minutes 17 seconds 441 msec
