
                                 *****************
                                 * O   R   C   A *
                                 *****************

                                            #,                                       
                                            ###                                      
                                            ####                                     
                                            #####                                    
                                            ######                                   
                                           ########,                                 
                                     ,,################,,,,,                         
                               ,,#################################,,                 
                          ,,##########################################,,             
                       ,#########################################, ''#####,          
                    ,#############################################,,   '####,        
                  ,##################################################,,,,####,       
                ,###########''''           ''''###############################       
              ,#####''   ,,,,##########,,,,          '''####'''          '####       
            ,##' ,,,,###########################,,,                        '##       
           ' ,,###''''                  '''############,,,                           
         ,,##''                                '''############,,,,        ,,,,,,###''
      ,#''                                            '''#######################'''  
     '                                                          ''''####''''         
             ,#######,   #######,   ,#######,      ##                                
            ,#'     '#,  ##    ##  ,#'     '#,    #''#        ,####,   ,####,        
            ##       ##  ##   ,#'  ##            #'  '#       #'       #'  '#        
            ##       ##  #######   ##           ,######,      #####,   #    #        
            '#,     ,#'  ##    ##  '#,     ,#' ,#      #,     #,   #   #,  ,#        
             '#######'   ##     ##  '#######'  #'      '#     '####' # '####'        



                #########################################################
                #                        -***-                          #
                #          Department of theory and spectroscopy        #
                #                                                       #
                #                      Frank Neese                      #
                #                                                       #
                #     Directorship, Architecture, Infrastructure        #
                #                    SHARK, DRIVERS                     #
                #        Core code/Algorithms in most modules           #
                #                                                       #
                #        Max Planck Institute fuer Kohlenforschung      #
                #                Kaiser Wilhelm Platz 1                 #
                #                 D-45470 Muelheim/Ruhr                 #
                #                      Germany                          #
                #                                                       #
                #                  All rights reserved                  #
                #                        -***-                          #
                #########################################################


                         Program Version 6.0.0  -   RELEASE  -


 With contributions from (in alphabetic order):
   Daniel Aravena         : Magnetic Suceptibility
   Michael Atanasov       : Ab Initio Ligand Field Theory (pilot matlab implementation)
   Alexander A. Auer      : GIAO ZORA, VPT2 properties, NMR spectrum
   Ute Becker             : All parallelization in ORCA, NUMFREQ, NUMCALC
   Giovanni Bistoni       : ED, misc. LED, open-shell LED, HFLD
   Martin Brehm           : Molecular dynamics
   Dmytro Bykov           : pre 5.0 version of the SCF Hessian
   Marcos Casanova-Páez   : Triplet and SCS-CIS(D). UHF-(DLPNO)-IP/EA/STEOM-CCSD. UHF-CVS-IP/STEOM-CCSD
   Vijay G. Chilkuri      : MRCI spin determinant printing, contributions to CSF-ICE
   Pauline Colinet        : FMM embedding
   Dipayan Datta          : RHF DLPNO-CCSD density
   Achintya Kumar Dutta   : EOM-CC, STEOM-CC
   Nicolas Foglia         : Exact transition moments, OPA infrastructure, MCD improvements
   Dmitry Ganyushin       : Spin-Orbit,Spin-Spin,Magnetic field MRCI
   Miquel Garcia          : C-PCM and meta-GGA Hessian, CCSD/C-PCM, Gaussian charge scheme
   Tiago L. C. Gouveia    : GS-ROHF, GS-ROCIS
   Yang Guo               : DLPNO-NEVPT2, F12-NEVPT2, CIM, IAO-localization
   Andreas Hansen         : Spin unrestricted coupled pair/coupled cluster methods
   Ingolf Harden          : AUTO-CI MPn and infrastructure 
   Benjamin Helmich-Paris : MC-RPA, TRAH-(SCF,CASSCF), AVAS, COSX integrals, SCF dyn. polar.
   Lee Huntington         : MR-EOM, pCC
   Robert Izsak           : Overlap fitted RIJCOSX, COSX-SCS-MP3, EOM
   Riya Kayal             : Wick's Theorem for AUTO-CI, AUTO-CI UHF-CCSDT
   Emily Kempfer          : AUTO-CI, RHF CISDT and CCSDT
   Christian Kollmar      : KDIIS, OOCD, Brueckner-CCSD(T), CCSD density, CASPT2, CASPT2-K, improved NEVPT2
   Axel Koslowski         : Symmetry handling
   Simone Kossmann        : Meta GGA functionals, TD-DFT gradient, OOMP2, (MP2 Hessian; deprecated post 5.0)
   Lucas Lang             : DCDCAS
   Marvin Lechner         : AUTO-CI (C++ implementation), FIC-MRCC
   Spencer Leger          : CASSCF response
   Dagmar Lenk            : GEPOL surface, SMD, ORCA-2-JSON
   Dimitrios Liakos       : Extrapolation schemes; Compound Job, initial MDCI parallelization
   Dimitrios Manganas     : Further ROCIS development; embedding schemes. LFT, Crystal Embedding
   Dimitrios Pantazis     : SARC Basis sets
   Anastasios Papadopoulos: AUTO-CI, single reference methods and gradients
   Taras Petrenko         : pre 6.0 DFT Hessian and TD-DFT gradient, (ASA, deprecated), ECA, 1-Electron XAS/XES, NRVS
   Peter Pinski           : DLPNO-MP2, DLPNO-MP2 Gradient
   Christoph Reimann      : Effective Core Potentials
   Marius Retegan         : Local ZFS, SOC
   Christoph Riplinger    : Optimizer, TS searches, QM/MM, DLPNO-CCSD(T), (RO)-DLPNO pert. Triples
   Michael Roemelt        : Original ROCIS implementation
   Masaaki Saitow         : Open-shell DLPNO-CCSD energy and density
   Barbara Sandhoefer     : DKH picture change effects
   Kantharuban Sivalingam : CASSCF convergence/infrastructure, NEVPT2 and variants, FIC-MRCI
   Bernardo de Souza      : ESD, SOC TD-DFT
   Georgi Stoychev        : AutoAux, RI-MP2 NMR, DLPNO-MP2 response, X2C
   Van Anh Tran           : RI-MP2 g-tensors
   Willem Van den Heuvel  : Paramagnetic NMR
   Zikuan Wang            : NOTCH, Electric field optimization 
   Frank Wennmohs         : Technical directorship and infrastructure
   Hang Xu                : AUTO-CI-Response properties 


 We gratefully acknowledge several colleagues who have allowed us to
 interface, adapt or use parts of their codes:
   Stefan Grimme, W. Hujo, H. Kruse, P. Pracht,  : VdW corrections, initial TS optimization,
                  C. Bannwarth, S. Ehlert,         DFT functionals, gCP, sTDA/sTD-DF
                  L. Wittmann, M. Mueller
   Ed Valeev, F. Pavosevic, A. Kumar             : LibInt (2-el integral package), F12 methods
   Garnet Chan, S. Sharma, J. Yang, R. Olivares  : DMRG
   Ulf Ekstrom                                   : XCFun DFT Library
   Mihaly Kallay                                 : mrcc  (arbitrary order and MRCC methods)
   Frank Weinhold                                : gennbo (NPA and NBO analysis)
   Simon Mueller                                 : openCOSMO-RS
   Christopher J. Cramer and Donald G. Truhlar   : smd solvation model
   Lars Goerigk                                  : TD-DFT with DH, B97 family of functionals
   V. Asgeirsson, H. Jonsson                     : NEB implementation
   FAccTs GmbH                                   : IRC, NEB, NEB-TS, DLPNO-Multilevel, CI-OPT
                                                   MM, QMMM, 2- and 3-layer-ONIOM, Crystal-QMMM,
                                                   LR-CPCM, SF, NACMEs, symmetry and pop. for TD-DFT,
                                                   nearIR, NL-DFT gradient (VV10), updates on ESD,
                                                   ML-optimized integration grids, MBIS, APM,
                                                   GOAT, DOCKER, SOLVATOR, interface openCOSMO-RS
   S Lehtola, MJT Oliveira, MAL Marques          : LibXC Library
   Liviu Ungur et al                             : ANISO software


 Your calculation uses the libint2 library for the computation of 2-el integrals
 For citations please refer to: http://libint.valeyev.net

 Your ORCA version has been built with support for libXC version: 6.2.2
 For citations please refer to: https://libxc.gitlab.io

 This ORCA versions uses:
   CBLAS   interface :  Fast vector & matrix operations
   LAPACKE interface :  Fast linear algebra routines
   SCALAPACK package :  Parallel linear algebra routines
   Shared memory     :  Shared parallel matrices
   BLAS/LAPACK       :  OpenBLAS 0.3.27  USE64BITINT DYNAMIC_ARCH NO_AFFINITY Zen SINGLE_THREADED
        Core in use  :  Zen
   Copyright (c) 2011-2014, The OpenBLAS Project


Your calculation utilizes the atom-pairwise dispersion correction
with the Becke-Johnson damping scheme (D3BJ)


Warning: RI is on but no J-basis has been assigned. Assigning Def2/J (nothing to worry about!)
================================================================================

----- Orbital basis set information -----
Your calculation utilizes the basis: def2-TZVPPD
   F. Weigend and R. Ahlrichs, Phys. Chem. Chem. Phys. 7, 3297 (2005).
   D. Rappoport and F. Furche, J. Chem. Phys. 133, 134105 (2010)
   D. Rappoport, J. Chem. Phys. 155, 124102 (2021).

----- AuxJ basis set information -----
Your calculation utilizes the auxiliary basis: def2/J
   F. Weigend, Phys. Chem. Chem. Phys. 8, 1057 (2006).

================================================================================
                                        WARNINGS
                       Please study these warnings very carefully!
================================================================================

Using LibXC functional ID 531 : wB97M-V exchange-correlation functional
[ 1]  N. Mardirossian and M. Head-Gordon.,  J. Chem. Phys. 144, 214110 (2016)
Using LibXC functional ID 531 : wB97M-V exchange-correlation functional
[ 1]  N. Mardirossian and M. Head-Gordon.,  J. Chem. Phys. 144, 214110 (2016)

WARNING: B97M-V or wB97M-V functional requested.
  ===> : libXC variant has now been activated.
         Any manually given DFX/HFX/RangeSep scaling parameters are IGNORED!

Your calculation utilizes LibXC
 by S Lehtola, C Steigemann, MJT Oliveira & MAL Marques
Please cite in your paper:
 S Lehtola, C Steigemann, MJT Oliveira & MAL Marques, SoftwareX, 7, (2018), 1.
   

INFO   : Checking CIS options ...

WARNING: CIS/ROCIS methods need fully converged wavefunctions
  ===> : Setting SCFConvForced true
         You can overwrite this default with %scf ConvForced false 


================================================================================
                                       INPUT FILE
================================================================================
NAME = orca.inp
|  1> ! ENGRAD wB97M-D3BJ def2-TZVPPD 
|  2> %pal nprocs 8 end%pal nprocs 16 end 
|  3> %tddft nroots 4 Iroot 1 end 
|  4> *xyz 0 1 
|  5> O   0.81900173079363 1.01052482486538 0.0002262594179
|  6> C   0.77535163933364 -0.32785208920929 -1.716946012e-05
|  7> C   -0.64132356066298 -0.59922173079162 -5.265308365e-05
|  8> H   1.2612925521185 -0.77768544593964 0.88009377427145
|  9> H   1.26105525893093 -0.77715245033512 -0.88057534401517
| 10> H   -1.20402576074013 -0.53555146162301 -0.92258618539242
| 11> H   -1.20314943871076 -0.53352025050044 0.922911318262
| 12> *
| 13> 
| 14>                          ****END OF INPUT****
================================================================================

                     *******************************
                     * Energy+Gradient Calculation *
                     *******************************

---------------------------------
CARTESIAN COORDINATES (ANGSTROEM)
---------------------------------
  O      0.819002    1.010525    0.000226
  C      0.775352   -0.327852   -0.000017
  C     -0.641324   -0.599222   -0.000053
  H      1.261293   -0.777685    0.880094
  H      1.261055   -0.777152   -0.880575
  H     -1.204026   -0.535551   -0.922586
  H     -1.203149   -0.533520    0.922911

----------------------------
CARTESIAN COORDINATES (A.U.)
----------------------------
  NO LB      ZA    FRAG     MASS         X           Y           Z
   0 O     8.0000    0    15.999    1.547689    1.909615    0.000428
   1 C     6.0000    0    12.011    1.465202   -0.619551   -0.000032
   2 C     6.0000    0    12.011   -1.211926   -1.132365   -0.000099
   3 H     1.0000    0     1.008    2.383497   -1.469613    1.663136
   4 H     1.0000    0     1.008    2.383049   -1.468605   -1.664046
   5 H     1.0000    0     1.008   -2.275279   -1.012046   -1.743435
   6 H     1.0000    0     1.008   -2.273623   -1.008207    1.744050

--------------------------------
INTERNAL COORDINATES (ANGSTROEM)
--------------------------------
 O      0   0   0     0.000000000000     0.00000000     0.00000000
 C      1   0   0     1.339088553409     0.00000000     0.00000000
 C      2   1   0     1.442432010847   102.71186557     0.00000000
 H      2   1   3     1.101400877438   113.18337212   240.38474342
 H      2   1   3     1.101436116792   113.17099202   119.59644598
 H      3   2   1     1.082476691380   119.96701018    79.66550978
 H      3   2   1     1.082509812500   119.88732619   280.46010467

---------------------------
INTERNAL COORDINATES (A.U.)
---------------------------
 O      0   0   0     0.000000000000     0.00000000     0.00000000
 C      1   0   0     2.530510635011     0.00000000     0.00000000
 C      2   1   0     2.725801467303   102.71186557     0.00000000
 H      2   1   3     2.081346022019   113.18337212   240.38474342
 H      2   1   3     2.081412614746   113.17099202   119.59644598
 H      3   2   1     2.045584493062   119.96701018    79.66550978
 H      3   2   1     2.045647082907   119.88732619   280.46010467

---------------------
BASIS SET INFORMATION
---------------------
There are 3 groups of distinct atoms

 Group   1 Type O   : 12s7p3d1f contracted to 6s4p3d1f pattern {621111/4111/111/1}
 Group   2 Type C   : 12s6p3d1f contracted to 6s3p3d1f pattern {621111/411/111/1}
 Group   3 Type H   : 5s3p1d contracted to 3s3p1d pattern {311/111/1}

Atom   0O    basis set group =>   1
Atom   1C    basis set group =>   2
Atom   2C    basis set group =>   2
Atom   3H    basis set group =>   3
Atom   4H    basis set group =>   3
Atom   5H    basis set group =>   3
Atom   6H    basis set group =>   3
---------------------------------
AUXILIARY/J BASIS SET INFORMATION
---------------------------------
There are 3 groups of distinct atoms

 Group   1 Type O   : 12s5p4d2f1g contracted to 6s4p3d1f1g pattern {711111/2111/211/2/1}
 Group   2 Type C   : 12s5p4d2f1g contracted to 6s4p3d1f1g pattern {711111/2111/211/2/1}
 Group   3 Type H   : 5s2p1d contracted to 3s1p1d pattern {311/2/1}

Atom   0O    basis set group =>   1
Atom   1C    basis set group =>   2
Atom   2C    basis set group =>   2
Atom   3H    basis set group =>   3
Atom   4H    basis set group =>   3
Atom   5H    basis set group =>   3
Atom   6H    basis set group =>   3
[1741191590.984437] [ohm:206329:0]        ib_iface.c:1059 UCX  ERROR ibv_create_cq(cqe=256) failed: Connection timed out
[1741191590.984818] [ohm:206325:0]        ib_iface.c:1059 UCX  ERROR ibv_create_cq(cqe=256) failed: Connection timed out
[1741191590.996086] [ohm:206331:0]        ib_iface.c:1059 UCX  ERROR ibv_create_cq(cqe=256) failed: Connection timed out
[1741191591.012732] [ohm:206327:0]        ib_iface.c:1059 UCX  ERROR ibv_create_cq(cqe=256) failed: Connection timed out
[1741191591.033760] [ohm:206328:0]        ib_iface.c:1059 UCX  ERROR ibv_create_cq(cqe=256) failed: Connection timed out
[1741191591.035872] [ohm:206326:0]        ib_iface.c:1059 UCX  ERROR ibv_create_cq(cqe=256) failed: Connection timed out
[1741191591.035915] [ohm:206332:0]        ib_iface.c:1059 UCX  ERROR ibv_create_cq(cqe=256) failed: Connection timed out
[1741191591.044305] [ohm:206345:0]        ib_iface.c:1059 UCX  ERROR ibv_create_cq(cqe=256) failed: Connection timed out
[1741191591.044328] [ohm:206338:0]        ib_iface.c:1059 UCX  ERROR ibv_create_cq(cqe=256) failed: Connection timed out
[1741191591.045830] [ohm:206324:0]        ib_iface.c:1059 UCX  ERROR ibv_create_cq(cqe=256) failed: Connection timed out
[1741191591.048686] [ohm:206334:0]        ib_iface.c:1059 UCX  ERROR ibv_create_cq(cqe=256) failed: Connection timed out
[1741191591.064378] [ohm:206330:0]        ib_iface.c:1059 UCX  ERROR ibv_create_cq(cqe=256) failed: Connection timed out
[1741191591.069428] [ohm:206341:0]        ib_iface.c:1059 UCX  ERROR ibv_create_cq(cqe=256) failed: Connection timed out
[1741191591.070716] [ohm:206335:0]        ib_iface.c:1059 UCX  ERROR ibv_create_cq(cqe=256) failed: Connection timed out
[1741191591.072795] [ohm:206348:0]        ib_iface.c:1059 UCX  ERROR ibv_create_cq(cqe=256) failed: Connection timed out
[1741191591.088412] [ohm:206353:0]        ib_iface.c:1059 UCX  ERROR ibv_create_cq(cqe=256) failed: Connection timed out


           ************************************************************
           *        Program running with 16 parallel MPI-processes    *
           *              working on a common directory               *
           ************************************************************
------------------------------------------------------------------------------
                             ORCA STARTUP CALCULATIONS
                           -- RI-GTO INTEGRALS CHOSEN --
------------------------------------------------------------------------------
------------------------------------------------------------------------------
                   ___                                                        
                  /   \      - P O W E R E D   B Y -                         
                 /     \                                                     
                 |  |  |   _    _      __       _____    __    __             
                 |  |  |  | |  | |    /  \     |  _  \  |  |  /  |          
                  \  \/   | |  | |   /    \    | | | |  |  | /  /          
                 / \  \   | |__| |  /  /\  \   | |_| |  |  |/  /          
                |  |  |   |  __  | /  /__\  \  |    /   |      \           
                |  |  |   | |  | | |   __   |  |    \   |  |\   \          
                \     /   | |  | | |  |  |  |  | |\  \  |  | \   \       
                 \___/    |_|  |_| |__|  |__|  |_| \__\ |__|  \__/        
                                                                              
                      - O R C A' S   B I G   F R I E N D -                    
                                      &                                       
                       - I N T E G R A L  F E E D E R -                       
                                                                              
 v1 FN, 2020, v2 2021, v3 2022-2024                                           
------------------------------------------------------------------------------


----------------------
SHARK INTEGRAL PACKAGE
----------------------

Number of atoms                             ...      7
Number of basis functions                   ...    182
Number of shells                            ...     68
Maximum angular momentum                    ...      3
Integral batch strategy                     ... SHARK/LIBINT Hybrid
RI-J (if used) integral strategy            ... SPLIT-RIJ (Revised 2003 algorithm where possible)
Printlevel                                  ...      1
Contraction scheme used                     ... SEGMENTED contraction
Prescreening option                         ... SCHWARTZ
   Thresh                                   ... 2.500e-11
   Tcut                                     ... 2.500e-12
   Tpresel                                  ... 2.500e-12 
Coulomb Range Separation                    ... NOT USED
Exchange Range Separation                   ... Long Range
   Mu parameter                             ... 3.000e-01
   Scaling (regular/separated)              ... 1.500e-01 8.500e-01
Multipole approximations                    ... NOT USED
Finite Nucleus Model                        ... NOT USED
CABS basis                                  ... NOT available
Auxiliary Coulomb fitting basis             ... AVAILABLE
   # of basis functions in Aux-J            ...    191
   # of shells in Aux-J                     ...     65
   Maximum angular momentum in Aux-J        ...      4
Auxiliary J/K fitting basis                 ... NOT available
Auxiliary Correlation fitting basis         ... NOT available
Auxiliary 'external' fitting basis          ... NOT available

Checking pre-screening integrals            ... done (  0.0 sec) Dimension = 68
Check shell pair data                       ... done (  0.0 sec)
Shell pair information
Shell pair cut-off parameter TPreSel        ...   2.5e-12
Total number of shell pairs                 ...      2346
Shell pairs after pre-screening             ...      2333
Total number of primitive shell pairs       ...      5434
Primitive shell pairs kept                  ...      4856
          la=0 lb=0:    457 shell pairs
          la=1 lb=0:    656 shell pairs
          la=1 lb=1:    253 shell pairs
          la=2 lb=0:    389 shell pairs
          la=2 lb=1:    286 shell pairs
          la=2 lb=2:     91 shell pairs
          la=3 lb=0:     90 shell pairs
          la=3 lb=1:     66 shell pairs
          la=3 lb=2:     39 shell pairs
          la=3 lb=3:      6 shell pairs

Calculating one electron integrals          ... done (  0.0 sec)
Calculating RI/J V-Matrix + Cholesky decomp.... done (  0.0 sec)
Calculating Nuclear repulsion               ... done (  0.0 sec) ENN=     70.042650961856 Eh

Diagonalization of the overlap matrix:
Smallest eigenvalue                        ... 1.659e-05
Time for diagonalization                   ...    0.003 sec
Threshold for overlap eigenvalues          ... 1.000e-07
Number of eigenvalues below threshold      ... 0
Time for construction of square roots      ...    0.002 sec
Total time needed                          ...    0.006 sec

-------------------
DFT GRID GENERATION
-------------------

General Integration Accuracy     IntAcc      ... 4.388
Radial Grid Type                 RadialGrid  ... OptM3 with GC (2021)
Angular Grid (max. ang.)         AngularGrid ... 4 (Lebedev-302)
Angular grid pruning method      GridPruning ... 4 (adaptive)
Weight generation scheme         WeightScheme... mBecke (2022)
Basis function cutoff            BFCut       ... 1.0000e-11
Integration weight cutoff        WCut        ... 1.0000e-14
Partially contracted basis set               ... off
Rotationally invariant grid construction     ... off
Angular grids for H and He will be reduced by one unit
Diffuse basis detected: some atoms will have their outermost
                        angular grid increased by 1.

Total number of grid points                  ...    33067
Total number of batches                      ...      520
Average number of points per batch           ...       63
Average number of grid points per atom       ...     4724

--------------------
COSX GRID GENERATION
--------------------

GRIDX 1
-------
General Integration Accuracy     IntAcc      ... 3.816
Radial Grid Type                 RadialGrid  ... OptM3 with GC (2021)
Angular Grid (max. ang.)         AngularGrid ... 1 (Lebedev-50)
Angular grid pruning method      GridPruning ... 4 (adaptive)
Weight generation scheme         WeightScheme... mBecke (2022)
Basis function cutoff            BFCut       ... 1.0000e-11
Integration weight cutoff        WCut        ... 1.0000e-14
Partially contracted basis set               ... on
Rotationally invariant grid construction     ... off
Angular grids for H and He will be reduced by one unit
Diffuse basis detected: some atoms will have their outermost
                        angular grid increased by 1.

Total number of grid points                  ...     4159
Total number of batches                      ...       36
Average number of points per batch           ...      115
Average number of grid points per atom       ...      594
UseSFitting                                  ... on

GRIDX 2
-------
General Integration Accuracy     IntAcc      ... 4.020
Radial Grid Type                 RadialGrid  ... OptM3 with GC (2021)
Angular Grid (max. ang.)         AngularGrid ... 2 (Lebedev-110)
Angular grid pruning method      GridPruning ... 4 (adaptive)
Weight generation scheme         WeightScheme... mBecke (2022)
Basis function cutoff            BFCut       ... 1.0000e-11
Integration weight cutoff        WCut        ... 1.0000e-14
Partially contracted basis set               ... on
Rotationally invariant grid construction     ... off
Angular grids for H and He will be reduced by one unit
Diffuse basis detected: some atoms will have their outermost
                        angular grid increased by 1.

Total number of grid points                  ...    10205
Total number of batches                      ...       83
Average number of points per batch           ...      122
Average number of grid points per atom       ...     1458
UseSFitting                                  ... on

GRIDX 3
-------
General Integration Accuracy     IntAcc      ... 4.338
Radial Grid Type                 RadialGrid  ... OptM3 with GC (2021)
Angular Grid (max. ang.)         AngularGrid ... 3 (Lebedev-194)
Angular grid pruning method      GridPruning ... 4 (adaptive)
Weight generation scheme         WeightScheme... mBecke (2022)
Basis function cutoff            BFCut       ... 1.0000e-11
Integration weight cutoff        WCut        ... 1.0000e-14
Partially contracted basis set               ... on
Rotationally invariant grid construction     ... off
Angular grids for H and He will be reduced by one unit
Diffuse basis detected: some atoms will have their outermost
                        angular grid increased by 1.

Total number of grid points                  ...    23023
Total number of batches                      ...      183
Average number of points per batch           ...      125
Average number of grid points per atom       ...     3289
UseSFitting                                  ... on
Initializing property integral containers    ... done (  0.0 sec)

SHARK setup successfully completed in   0.4 seconds

Maximum memory used throughout the entire STARTUP-calculation: 13.8 MB
[1741191592.541220] [ohm:206411:0]        ib_iface.c:1059 UCX  ERROR ibv_create_cq(cqe=256) failed: Connection timed out
[1741191592.546094] [ohm:206409:0]        ib_iface.c:1059 UCX  ERROR ibv_create_cq(cqe=256) failed: Connection timed out
[1741191592.551200] [ohm:206413:0]        ib_iface.c:1059 UCX  ERROR ibv_create_cq(cqe=256) failed: Connection timed out
[1741191592.571435] [ohm:206407:0]        ib_iface.c:1059 UCX  ERROR ibv_create_cq(cqe=256) failed: Connection timed out
[1741191592.571775] [ohm:206419:0]        ib_iface.c:1059 UCX  ERROR ibv_create_cq(cqe=256) failed: Connection timed out
[1741191592.581686] [ohm:206415:0]        ib_iface.c:1059 UCX  ERROR ibv_create_cq(cqe=256) failed: Connection timed out
[1741191592.586052] [ohm:206431:0]        ib_iface.c:1059 UCX  ERROR ibv_create_cq(cqe=256) failed: Connection timed out
[1741191592.586472] [ohm:206408:0]        ib_iface.c:1059 UCX  ERROR ibv_create_cq(cqe=256) failed: Connection timed out
[1741191592.586472] [ohm:206410:0]        ib_iface.c:1059 UCX  ERROR ibv_create_cq(cqe=256) failed: Connection timed out
[1741191592.586472] [ohm:206412:0]        ib_iface.c:1059 UCX  ERROR ibv_create_cq(cqe=256) failed: Connection timed out
[1741191592.591107] [ohm:206414:0]        ib_iface.c:1059 UCX  ERROR ibv_create_cq(cqe=256) failed: Connection timed out
[1741191592.590809] [ohm:206417:0]        ib_iface.c:1059 UCX  ERROR ibv_create_cq(cqe=256) failed: Connection timed out
[1741191592.603216] [ohm:206435:0]        ib_iface.c:1059 UCX  ERROR ibv_create_cq(cqe=256) failed: Connection timed out
[1741191592.606218] [ohm:206422:0]        ib_iface.c:1059 UCX  ERROR ibv_create_cq(cqe=256) failed: Connection timed out
[1741191592.609561] [ohm:206433:0]        ib_iface.c:1059 UCX  ERROR ibv_create_cq(cqe=256) failed: Connection timed out
[1741191592.611892] [ohm:206439:0]        ib_iface.c:1059 UCX  ERROR ibv_create_cq(cqe=256) failed: Connection timed out


           ************************************************************
           *        Program running with 16 parallel MPI-processes    *
           *              working on a common directory               *
           ************************************************************
-------------------------------------------------------------------------------
                                 ORCA GUESS
                   Start orbitals & Density for SCF / CASSCF
-------------------------------------------------------------------------------

------------
SCF SETTINGS
------------
Hamiltonian:
 Density Functional     Method          .... DFT(GTOs)
  Functional kind                       .... Exchange-Correlation
  Functional name                       .... wB97M-V exchange-correlation functional
  Functional family                     .... Hybrid MGGA
  Functional refs                              
    [ 0] N. Mardirossian and M. Head-Gordon.,  J. Chem. Phys. 144, 214110 (2016), doi: 10.1063/1.4952647
  Fraction of HF Exchange (short range) .... 0.1500
  Fraction of HF Exchange (long range)  .... 1.0000
  Range separation parameter mu         .... 0.3000
  Functional external parameters        .... 17
    Parameter  0 _cx00      =  8.500000e-01 : u^00 coefficient for exchange
    Parameter  1 _cx01      =  1.007000e+00 : u^01 coefficient for exchange
    Parameter  2 _cx10      =  2.590000e-01 : u^10 coefficient for exchange
    Parameter  3 _css00     =  4.430000e-01 : u^00 coefficient for same-spin correlation
    Parameter  4 _css04     = -1.437000e+00 : u^04 coefficient for same-spin correlation
    Parameter  5 _css10     = -4.535000e+00 : u^10 coefficient for same-spin correlation
    Parameter  6 _css20     = -3.390000e+00 : u^20 coefficient for same-spin correlation
    Parameter  7 _css43     =  4.278000e+00 : u^43 coefficient for same-spin correlation
    Parameter  8 _cos00     =  1.000000e+00 : u^00 coefficient for opposite-spin correlation
    Parameter  9 _cos10     =  1.358000e+00 : u^10 coefficient for opposite-spin correlation
    Parameter 10 _cos20     =  2.924000e+00 : u^20 coefficient for opposite-spin correlation
    Parameter 11 _cos21     = -8.812000e+00 : u^21 coefficient for opposite-spin correlation
    Parameter 12 _cos60     = -1.390000e+00 : u^60 coefficient for opposite-spin correlation
    Parameter 13 _cos61     =  9.142000e+00 : u^61 coefficient for opposite-spin correlation
    Parameter 14 _alpha     =  1.000000e+00 : fraction of HF exchange
    Parameter 15 _beta      = -8.500000e-01 : fraction of short-range exchange
    Parameter 16 _omega     =  3.000000e-01 : range-separation constant
 Long-range corrected/Screened/Range-Separated Hybrid DFT is turned on
   Amount of maximum screened exact exchange              ....  0.850000
   Range separation parameter mu (erf(mu*r12)/r12)        ....  0.300000
 RI-approximation to the Coulomb term is turned on
   Number of AuxJ basis functions       .... 191
   RIJ-COSX (HFX calculated with COS-X)).... on


General Settings:
 Integral files         IntName         .... orca
 Hartree-Fock type      HFTyp           .... RHF
 Total Charge           Charge          ....    0
 Multiplicity           Mult            ....    1
 Number of Electrons    NEL             ....   24
 Basis Dimension        Dim             ....  182
 Nuclear Repulsion      ENuc            ....     70.0426509619 Eh

Convergence Acceleration:
 AO-DIIS                CNVDIIS         .... on
   Start iteration      DIISMaxIt       ....    12
   Startup error        DIISStart       ....  0.200000
   # of expansion vecs  DIISMaxEq       ....     5
   Bias factor          DIISBfac        ....   1.050
   Max. coefficient     DIISMaxC        ....  10.000
 MO-DIIS                CNVKDIIS        .... off
 Trust-Rad. Augm. Hess. CNVTRAH         .... auto
   Auto Start mean grad. ratio tolernc. ....  1.125000
   Auto Start start iteration           ....    50
   Auto Start num. interpolation iter.  ....    10
   Max. Number of Micro iterations      ....    24
   Max. Number of Macro iterations      .... Maxiter - #DIIS iter
   Number of Davidson start vectors     ....     2
   Converg. threshold    (grad. norm)   ....   1.000e-05
   Grad. Scal. Fac. for Micro threshold ....   0.100
   Minimum threshold for Micro iter.    ....   1.000e-02
   NR start threshold (gradient norm)   ....   1.000e-04
   Initial trust radius                 ....   0.400
   Minimum AH scaling param. (alpha)    ....   1.000
   Maximum AH scaling param. (alpha)    .... 1000.000
   Quad. conv. algorithm                .... NR
   White noise on init. David. guess    .... on
   Maximum white noise                  ....   0.010
   Pseudo random numbers                .... off
   Inactive MOs                         .... canonical
   Orbital update algorithm             .... Taylor
   Preconditioner                       .... Diag
   Full preconditioner red. dimension   ....   250
 SOSCF                  CNVSOSCF        .... on
   Start iteration      SOSCFMaxIt      ....   150
   Startup grad/error   SOSCFStart      ....  0.003300
   Hessian update       SOSCFHessUp     .... L-BFGS
 Level Shifting         CNVShift        .... on
   Level shift para.    LevelShift      ....    0.2500
   Turn off err/grad.   ShiftErr        ....    0.0010
 Zerner damping         CNVZerner       .... off
 Static damping         CNVDamp         .... on
   Fraction old density DampFac         ....    0.7000
   Max. Damping (<1)    DampMax         ....    0.9800
   Min. Damping (>=0)   DampMin         ....    0.0000
   Turn off err/grad.   DampErr         ....    0.1000

SCF Procedure:
 Maximum # iterations   MaxIter         ....   125
 SCF integral mode      SCFMode         .... Direct
   Integral package                     .... SHARK and LIBINT hybrid scheme
 Reset frequency        DirectResetFreq ....    20
 Integral Threshold     Thresh          ....  2.500e-11 Eh
 Primitive CutOff       TCut            ....  2.500e-12 Eh

Convergence Tolerance:
 Convergence Check Mode ConvCheckMode   .... Total+1el-Energy
 Convergence forced     ConvForced      .... 1
 Energy Change          TolE            ....  1.000e-08 Eh
 1-El. energy change                    ....  1.000e-05 Eh
 Orbital Gradient       TolG            ....  1.000e-05
 Orbital Rotation angle TolX            ....  1.000e-05
 DIIS Error             TolErr          ....  5.000e-07

------------------------------
INITIAL GUESS: MODEL POTENTIAL
------------------------------
Loading Hartree-Fock densities                     ... done
Calculating cut-offs                               ... done
Initializing the effective Hamiltonian             ... done
Setting up the integral package (SHARK)            ... done
Starting the Coulomb interaction                   ... done (   0.0 sec)
Making the grid                                    ... done (   0.1 sec)
Mapping shells                                     ... done
Starting the XC term evaluation                    ... done (   0.0 sec)
  promolecular density results
     # of electrons  =     23.999631987
     EX              =    -19.486800270
     EC              =     -0.769769473
     EX+EC           =    -20.256569743
Transforming the Hamiltonian                       ... done (   0.2 sec)
Diagonalizing the Hamiltonian                      ... done (   0.1 sec)
Back transforming the eigenvectors                 ... done (   0.0 sec)
Now organizing SCF variables                       ... done
                      ------------------
                      INITIAL GUESS DONE (   0.5 sec)
                      ------------------
             **** ENERGY FILE WAS UPDATED (orca.en.tmp) ****
Finished Guess after   1.1 sec
Maximum memory used throughout the entire GUESS-calculation: 9.7 MB
[1741191594.139840] [ohm:206490:0]        ib_iface.c:1059 UCX  ERROR ibv_create_cq(cqe=256) failed: Connection timed out
[1741191594.139831] [ohm:206494:0]        ib_iface.c:1059 UCX  ERROR ibv_create_cq(cqe=256) failed: Connection timed out
[1741191594.145062] [ohm:206492:0]        ib_iface.c:1059 UCX  ERROR ibv_create_cq(cqe=256) failed: Connection timed out
[1741191594.180805] [ohm:206499:0]        ib_iface.c:1059 UCX  ERROR ibv_create_cq(cqe=256) failed: Connection timed out
[1741191594.192308] [ohm:206496:0]        ib_iface.c:1059 UCX  ERROR ibv_create_cq(cqe=256) failed: Connection timed out
[1741191594.196724] [ohm:206511:0]        ib_iface.c:1059 UCX  ERROR ibv_create_cq(cqe=256) failed: Connection timed out
[1741191594.198998] [ohm:206505:0]        ib_iface.c:1059 UCX  ERROR ibv_create_cq(cqe=256) failed: Connection timed out
[1741191594.202261] [ohm:206495:0]        ib_iface.c:1059 UCX  ERROR ibv_create_cq(cqe=256) failed: Connection timed out
[1741191594.205866] [ohm:206514:0]        ib_iface.c:1059 UCX  ERROR ibv_create_cq(cqe=256) failed: Connection timed out
[1741191594.206510] [ohm:206493:0]        ib_iface.c:1059 UCX  ERROR ibv_create_cq(cqe=256) failed: Connection timed out
[1741191594.208009] [ohm:206502:0]        ib_iface.c:1059 UCX  ERROR ibv_create_cq(cqe=256) failed: Connection timed out
[1741191594.209001] [ohm:206518:0]        ib_iface.c:1059 UCX  ERROR ibv_create_cq(cqe=256) failed: Connection timed out
[1741191594.209214] [ohm:206508:0]        ib_iface.c:1059 UCX  ERROR ibv_create_cq(cqe=256) failed: Connection timed out
[1741191594.210882] [ohm:206491:0]        ib_iface.c:1059 UCX  ERROR ibv_create_cq(cqe=256) failed: Connection timed out
[1741191594.213486] [ohm:206497:0]        ib_iface.c:1059 UCX  ERROR ibv_create_cq(cqe=256) failed: Connection timed out
[1741191594.314685] [ohm:206523:0]        ib_iface.c:1059 UCX  ERROR ibv_create_cq(cqe=256) failed: Connection timed out


           ************************************************************
           *        Program running with 16 parallel MPI-processes    *
           *              working on a common directory               *
           ************************************************************

-------------------------------------------------------------------------------------------
                                      ORCA LEAN-SCF
                              memory conserving SCF solver
-------------------------------------------------------------------------------------------

----------------------------------------D-I-I-S--------------------------------------------
Iteration    Energy (Eh)           Delta-E    RMSDP     MaxDP     DIISErr   Damp  Time(sec)
-------------------------------------------------------------------------------------------
               ***  Starting incremental Fock matrix formation  ***
    1    -153.6059849254771166     0.00e+00  2.80e-03  9.61e-02  3.29e-01  0.700   0.3
    2    -153.6911025123961849    -8.51e-02  2.40e-03  9.86e-02  1.31e-01  0.700   0.2
                               ***Turning on AO-DIIS***
    3    -153.7183044360860436    -2.72e-02  1.56e-03  6.56e-02  4.37e-02  0.700   0.2
    4    -153.7372761071815717    -1.90e-02  3.74e-03  1.57e-01  3.11e-02  0.000   0.2
    5    -153.7843576376948249    -4.71e-02  3.58e-04  1.39e-02  1.38e-02  0.000   0.2
    6    -153.7848572517351613    -5.00e-04  2.22e-04  7.23e-03  7.46e-03  0.000   0.2
                              *** Initializing SOSCF ***
---------------------------------------S-O-S-C-F--------------------------------------
Iteration    Energy (Eh)           Delta-E    RMSDP     MaxDP     MaxGrad    Time(sec)
--------------------------------------------------------------------------------------
    7    -153.7851012900276828    -2.44e-04  1.60e-04  4.72e-03  3.18e-03     0.2
               *** Restarting incremental Fock matrix formation ***
    8    -153.7851874761703925    -8.62e-05  1.50e-04  6.03e-03  1.35e-03     0.3
    9    -153.7852287242342868    -4.12e-05  2.34e-04  7.83e-03  1.35e-03     0.3
   10    -153.7852341395960707    -5.42e-06  1.07e-04  4.06e-03  1.90e-03     0.3
   11    -153.7852544778614856    -2.03e-05  2.07e-05  8.20e-04  1.59e-04     0.3
   12    -153.7852547387939808    -2.61e-07  2.75e-06  7.35e-05  2.94e-05     0.3
   13    -153.7852547768147815    -3.80e-08  1.21e-06  3.64e-05  1.24e-05     0.3
   14    -153.7852547804321830    -3.62e-09  6.57e-07  1.92e-05  6.44e-06     0.3
                 **** Energy Check signals convergence ****

               *****************************************************
               *                     SUCCESS                       *
               *           SCF CONVERGED AFTER  14 CYCLES          *
               *****************************************************

Recomputing exchange energy using gridx3       ... done (    0.413 sec)
Old exchange energy                            :     -6.169435693 Eh
New exchange energy                            :     -6.169440791 Eh
Exchange energy change after final integration :     -0.000005098 Eh
Total energy after final integration           :   -153.785259879 Eh
             **** ENERGY FILE WAS UPDATED (orca.en.tmp) ****

----------------
TOTAL SCF ENERGY
----------------

Total Energy       :       -153.78525987866226 Eh           -4184.70967 eV

Components:
Nuclear Repulsion  :         70.04265096185593 Eh            1905.95743 eV
Electronic Energy  :       -223.82790574228812 Eh           -6090.66696 eV
One Electron Energy:       -346.66438670642060 Eh           -9433.21754 eV
Two Electron Energy:        122.83648096413249 Eh            3342.55058 eV

Virial components:
Potential Energy   :       -307.07826109568271 Eh           -8356.02430 eV
Kinetic Energy     :        153.29300121702042 Eh            4171.31463 eV
Virial Ratio       :          2.00321122724282

DFT components:
N(Alpha)           :       11.999986287165 electrons
N(Beta)            :       11.999986287165 electrons
N(Total)           :       23.999972574329 electrons
E(XC)              :      -14.704071337739 Eh       

---------------
SCF CONVERGENCE
---------------

  Last Energy change         ...    3.6174e-09  Tolerance :   1.0000e-08
  Last MAX-Density change    ...    1.9164e-05  Tolerance :   1.0000e-07
  Last RMS-Density change    ...    6.5685e-07  Tolerance :   5.0000e-09
  Last DIIS Error            ...    3.1781e-03  Tolerance :   5.0000e-07
  Last Orbital Gradient      ...    6.4400e-06  Tolerance :   1.0000e-05
  Last Orbital Rotation      ...    1.5595e-05  Tolerance :   1.0000e-05


----------------
ORBITAL ENERGIES
----------------

  NO   OCC          E(Eh)            E(eV) 
   0   2.0000     -19.327256      -525.9214 
   1   2.0000     -10.449283      -284.3394 
   2   2.0000     -10.397235      -282.9232 
   3   2.0000      -1.124344       -30.5950 
   4   2.0000      -0.886106       -24.1122 
   5   2.0000      -0.733639       -19.9633 
   6   2.0000      -0.625071       -17.0090 
   7   2.0000      -0.572673       -15.5832 
   8   2.0000      -0.517725       -14.0880 
   9   2.0000      -0.512542       -13.9470 
  10   2.0000      -0.365457        -9.9446 
  11   2.0000      -0.351690        -9.5700 
  12   0.0000      -0.066149        -1.8000 
  13   0.0000       0.035587         0.9684 
  14   0.0000       0.061297         1.6680 
  15   0.0000       0.076223         2.0741 
  16   0.0000       0.098539         2.6814 
  17   0.0000       0.116792         3.1781 
  18   0.0000       0.125558         3.4166 
  19   0.0000       0.129682         3.5288 
  20   0.0000       0.146037         3.9739 
  21   0.0000       0.161105         4.3839 
  22   0.0000       0.191605         5.2138 
*Only the first 10 virtual orbitals were printed.

                    ********************************
                    * MULLIKEN POPULATION ANALYSIS *
                    ********************************

-----------------------
MULLIKEN ATOMIC CHARGES
-----------------------
   0 O :   -0.512827
   1 C :   -0.117553
   2 C :   -0.225117
   3 H :    0.211587
   4 H :    0.211623
   5 H :    0.216017
   6 H :    0.216270
Sum of atomic charges:    0.0000000

--------------------------------
MULLIKEN REDUCED ORBITAL CHARGES
--------------------------------
  0 O s       :     4.012328  s :     4.012328
      pz      :     1.885696  p :     4.487683
      px      :     1.366009
      py      :     1.235978
      dz2     :     0.003046  d :     0.011409
      dxz     :    -0.000889
      dyz     :    -0.001653
      dx2y2   :     0.006689
      dxy     :     0.004216
      f0      :     0.000166  f :     0.001407
      f+1     :     0.000055
      f-1     :     0.000325
      f+2     :     0.000185
      f-2     :     0.000014
      f+3     :     0.000306
      f-3     :     0.000357

  1 C s       :     3.250457  s :     3.250457
      pz      :     1.129121  p :     2.577845
      px      :     0.773085
      py      :     0.675638
      dz2     :     0.003933  d :     0.278474
      dxz     :     0.020010
      dyz     :     0.173156
      dx2y2   :     0.006134
      dxy     :     0.075242
      f0      :     0.002126  f :     0.010777
      f+1     :     0.000664
      f-1     :     0.001189
      f+2     :     0.003102
      f-2     :     0.000090
      f+3     :     0.001990
      f-3     :     0.001615

  2 C s       :     3.425405  s :     3.425405
      pz      :     1.132918  p :     2.749320
      px      :     1.017679
      py      :     0.598723
      dz2     :     0.006096  d :     0.046251
      dxz     :     0.015440
      dyz     :     0.013684
      dx2y2   :    -0.002168
      dxy     :     0.013199
      f0      :     0.000511  f :     0.004141
      f+1     :     0.000699
      f-1     :     0.000133
      f+2     :     0.000773
      f-2     :     0.000080
      f+3     :     0.000950
      f-3     :     0.000995

  3 H s       :     0.743694  s :     0.743694
      pz      :     0.024143  p :     0.042267
      px      :     0.007443
      py      :     0.010682
      dz2     :     0.000712  d :     0.002452
      dxz     :     0.000461
      dyz     :     0.000522
      dx2y2   :     0.000496
      dxy     :     0.000262

  4 H s       :     0.743656  s :     0.743656
      pz      :     0.024142  p :     0.042268
      px      :     0.007467
      py      :     0.010659
      dz2     :     0.000712  d :     0.002453
      dxz     :     0.000462
      dyz     :     0.000523
      dx2y2   :     0.000495
      dxy     :     0.000261

  5 H s       :     0.752288  s :     0.752288
      pz      :     0.012383  p :     0.029596
      px      :     0.010164
      py      :     0.007049
      dz2     :     0.000791  d :     0.002099
      dxz     :     0.000607
      dyz     :     0.000321
      dx2y2   :     0.000228
      dxy     :     0.000152

  6 H s       :     0.752042  s :     0.752042
      pz      :     0.012382  p :     0.029588
      px      :     0.010161
      py      :     0.007045
      dz2     :     0.000792  d :     0.002100
      dxz     :     0.000608
      dyz     :     0.000322
      dx2y2   :     0.000227
      dxy     :     0.000151



                     *******************************
                     * LOEWDIN POPULATION ANALYSIS *
                     *******************************

----------------------
LOEWDIN ATOMIC CHARGES
----------------------
   0 O :   -0.019468
   1 C :   -0.409389
   2 C :    0.402368
   3 H :    0.021553
   4 H :    0.021567
   5 H :   -0.008306
   6 H :   -0.008324

-------------------------------
LOEWDIN REDUCED ORBITAL CHARGES
-------------------------------
  0 O s       :     3.438800  s :     3.438800
      pz      :     1.699657  p :     4.306932
      px      :     1.215749
      py      :     1.391526
      dz2     :     0.023730  d :     0.269184
      dxz     :     0.005554
      dyz     :     0.093448
      dx2y2   :     0.067611
      dxy     :     0.078841
      f0      :     0.000500  f :     0.004552
      f+1     :     0.000104
      f-1     :     0.000724
      f+2     :     0.000919
      f-2     :     0.000012
      f+3     :     0.001301
      f-3     :     0.000992

  1 C s       :     2.646025  s :     2.646025
      pz      :     0.909705  p :     2.579683
      px      :     0.875120
      py      :     0.794859
      dz2     :     0.110147  d :     1.097950
      dxz     :     0.156624
      dyz     :     0.276617
      dx2y2   :     0.231143
      dxy     :     0.323418
      f0      :     0.012010  f :     0.085731
      f+1     :     0.006833
      f-1     :     0.011716
      f+2     :     0.019666
      f-2     :     0.005022
      f+3     :     0.013173
      f-3     :     0.017311

  2 C s       :     2.744147  s :     2.744147
      pz      :     0.982550  p :     2.382585
      px      :     0.980678
      py      :     0.419357
      dz2     :     0.062299  d :     0.444940
      dxz     :     0.211570
      dyz     :     0.016447
      dx2y2   :     0.080866
      dxy     :     0.073757
      f0      :     0.003571  f :     0.025960
      f+1     :     0.005319
      f-1     :     0.001282
      f+2     :     0.005199
      f-2     :     0.000800
      f+3     :     0.004007
      f-3     :     0.005782

  3 H s       :     0.702176  s :     0.702176
      pz      :     0.112816  p :     0.247313
      px      :     0.074088
      py      :     0.060409
      dz2     :     0.008775  d :     0.028958
      dxz     :     0.006837
      dyz     :     0.006733
      dx2y2   :     0.003659
      dxy     :     0.002954

  4 H s       :     0.702162  s :     0.702162
      pz      :     0.112850  p :     0.247315
      px      :     0.074086
      py      :     0.060378
      dz2     :     0.008778  d :     0.028956
      dxz     :     0.006840
      dyz     :     0.006735
      dx2y2   :     0.003654
      dxy     :     0.002948

  5 H s       :     0.717551  s :     0.717551
      pz      :     0.126318  p :     0.262546
      px      :     0.085527
      py      :     0.050701
      dz2     :     0.010475  d :     0.028209
      dxz     :     0.009891
      dyz     :     0.003587
      dx2y2   :     0.002627
      dxy     :     0.001629

  6 H s       :     0.717476  s :     0.717476
      pz      :     0.126347  p :     0.262637
      px      :     0.085495
      py      :     0.050795
      dz2     :     0.010483  d :     0.028211
      dxz     :     0.009886
      dyz     :     0.003594
      dx2y2   :     0.002616
      dxy     :     0.001632



                      *****************************
                      * MAYER POPULATION ANALYSIS *
                      *****************************

  NA   - Mulliken gross atomic population
  ZA   - Total nuclear charge
  QA   - Mulliken gross atomic charge
  VA   - Mayer's total valence
  BVA  - Mayer's bonded valence
  FA   - Mayer's free valence

  ATOM       NA         ZA         QA         VA         BVA        FA
  0 O      8.5128     8.0000    -0.5128     1.6347     1.6347     0.0000
  1 C      6.1176     6.0000    -0.1176     3.6016     3.6016     0.0000
  2 C      6.2251     6.0000    -0.2251     3.5148     3.5148    -0.0000
  3 H      0.7884     1.0000     0.2116     1.0876     1.0876     0.0000
  4 H      0.7884     1.0000     0.2116     1.0876     1.0876     0.0000
  5 H      0.7840     1.0000     0.2160     0.9473     0.9473    -0.0000
  6 H      0.7837     1.0000     0.2163     0.9471     0.9471    -0.0000

  Mayer bond orders larger than 0.100000
B(  0-O ,  1-C ) :   0.7532 B(  0-O ,  2-C ) :   0.8759 B(  1-C ,  2-C ) :   0.7890 
B(  1-C ,  3-H ) :   1.0413 B(  1-C ,  4-H ) :   1.0412 B(  2-C ,  5-H ) :   0.9685 
B(  2-C ,  6-H ) :   0.9685 

-------
TIMINGS
-------

Total SCF time: 0 days 0 hours 0 min 4 sec 

Total time                  ....       4.791 sec
Sum of individual times     ....       4.753 sec  ( 99.2%)

SCF preparation             ....       0.601 sec  ( 12.6%)
Fock matrix formation       ....       3.820 sec  ( 79.7%)
  Startup                   ....       0.016 sec  (  0.4% of F)
  Split-RI-J                ....       0.211 sec  (  5.5% of F)
  Chain of spheres X        ....       2.711 sec  ( 71.0% of F)
  XC integration            ....       0.814 sec  ( 21.3% of F)
    XC Preparation          ....       0.000 sec  (  0.0% of XC)
    Basis function eval.    ....       0.102 sec  ( 12.6% of XC)
    Density eval.           ....       0.235 sec  ( 28.9% of XC)
    XC-Functional eval.     ....       0.037 sec  (  4.5% of XC)
    XC-Potential eval.      ....       0.357 sec  ( 43.9% of XC)
Diagonalization             ....       0.000 sec  (  0.0%)
Density matrix formation    ....       0.035 sec  (  0.7%)
Total Energy calculation    ....       0.036 sec  (  0.7%)
Population analysis         ....       0.018 sec  (  0.4%)
Orbital Transformation      ....       0.027 sec  (  0.6%)
Orbital Orthonormalization  ....       0.000 sec  (  0.0%)
DIIS solution               ....       0.137 sec  (  2.9%)
SOSCF solution              ....       0.075 sec  (  1.6%)
Finished LeanSCF after   4.8 sec

Maximum memory used throughout the entire LEANSCF-calculation: 13.5 MB
[1741191599.616405] [ohm:206926:0]        ib_iface.c:1059 UCX  ERROR ibv_create_cq(cqe=256) failed: Connection timed out
[1741191599.616487] [ohm:206930:0]        ib_iface.c:1059 UCX  ERROR ibv_create_cq(cqe=256) failed: Connection timed out
[1741191599.620518] [ohm:206928:0]        ib_iface.c:1059 UCX  ERROR ibv_create_cq(cqe=256) failed: Connection timed out
[1741191599.644918] [ohm:206927:0]        ib_iface.c:1059 UCX  ERROR ibv_create_cq(cqe=256) failed: Connection timed out
[1741191599.647621] [ohm:206929:0]        ib_iface.c:1059 UCX  ERROR ibv_create_cq(cqe=256) failed: Connection timed out
[1741191599.647801] [ohm:206921:0]        ib_iface.c:1059 UCX  ERROR ibv_create_cq(cqe=256) failed: Connection timed out
[1741191599.664290] [ohm:206935:0]        ib_iface.c:1059 UCX  ERROR ibv_create_cq(cqe=256) failed: Connection timed out
[1741191599.708371] [ohm:206947:0]        ib_iface.c:1059 UCX  ERROR ibv_create_cq(cqe=256) failed: Connection timed out
[1741191599.710395] [ohm:206956:0]        ib_iface.c:1059 UCX  ERROR ibv_create_cq(cqe=256) failed: Connection timed out
[1741191599.723183] [ohm:206939:0]        ib_iface.c:1059 UCX  ERROR ibv_create_cq(cqe=256) failed: Connection timed out
[1741191599.729411] [ohm:206942:0]        ib_iface.c:1059 UCX  ERROR ibv_create_cq(cqe=256) failed: Connection timed out
[1741191599.729739] [ohm:206938:0]        ib_iface.c:1059 UCX  ERROR ibv_create_cq(cqe=256) failed: Connection timed out
[1741191599.771982] [ohm:206966:0]        ib_iface.c:1059 UCX  ERROR ibv_create_cq(cqe=256) failed: Connection timed out
[1741191599.785170] [ohm:206959:0]        ib_iface.c:1059 UCX  ERROR ibv_create_cq(cqe=256) failed: Connection timed out
[1741191599.818600] [ohm:206977:0]        ib_iface.c:1059 UCX  ERROR ibv_create_cq(cqe=256) failed: Connection timed out
[1741191599.821325] [ohm:206971:0]        ib_iface.c:1059 UCX  ERROR ibv_create_cq(cqe=256) failed: Connection timed out


           ************************************************************
           *        Program running with 16 parallel MPI-processes    *
           *              working on a common directory               *
           ************************************************************

------------------------------------------------------------------------------
                         ORCA PROPERTY INTEGRAL CALCULATIONS
------------------------------------------------------------------------------

GBWName                                   ... orca.gbw
Number of atoms                           ...      7
Number of basis functions                 ...    182
Max core memory                           ...   1024 MB

Dipole integrals                          ... YES
Quadrupole integrals                      ...  NO
Linear momentum integrals                 ... YES
Angular momentum integrals                ... YES
Higher moments length integrals           ...  NO
Higher moments velocity integrals         ...  NO
Kinetic energy integrals                  ...  NO
GIAO right hand sides                     ...  NO
GIAO dipole derivative integrals          ...  NO
SOC integrals                             ...  NO
EPR diamagnetic integrals (GIAO)          ...  NO
EPR gauge integrals                       ...  NO
Field gradient integrals                  ...  NO (   0 nuclei)
Spin-dipole/Fermi contact integrals       ...  NO (   0 nuclei)
Contact density integrals                 ...  NO (   0 nuclei)
Nucleus-orbit integrals                   ...  NO (   0 nuclei)
Geometric perturbations                   ...  NO (   7 nuclei)

Choice of electric origin   ... Center of mass
Position of electric origin ... (  0.6361,  0.1024,  0.0001) 
Choice of magnetic origin   ... GIAO
Position of magnetic origin ... (  0.0000,  0.0000,  0.0000) 

Calculating integrals                     ... Electric Dipole (Length)     done (  0.0 sec)
Calculating integrals                     ... Linear Momentum              done (  0.0 sec)
Calculating integrals                     ... Angular Momentum  (ElOri)    done (  0.0 sec)

Property integrals calculated in   0.0 sec

Maximum memory used throughout the entire PROPINT-calculation: 10.1 MB
[1741191601.033861] [ohm:207328:0]        ib_iface.c:1059 UCX  ERROR ibv_create_cq(cqe=256) failed: Connection timed out
[1741191601.043030] [ohm:207324:0]        ib_iface.c:1059 UCX  ERROR ibv_create_cq(cqe=256) failed: Connection timed out
[1741191601.055488] [ohm:207326:0]        ib_iface.c:1059 UCX  ERROR ibv_create_cq(cqe=256) failed: Connection timed out
[1741191601.057645] [ohm:207333:0]        ib_iface.c:1059 UCX  ERROR ibv_create_cq(cqe=256) failed: Connection timed out
[1741191601.062418] [ohm:207330:0]        ib_iface.c:1059 UCX  ERROR ibv_create_cq(cqe=256) failed: Connection timed out
[1741191601.071490] [ohm:207325:0]        ib_iface.c:1059 UCX  ERROR ibv_create_cq(cqe=256) failed: Connection timed out
[1741191601.074973] [ohm:207339:0]        ib_iface.c:1059 UCX  ERROR ibv_create_cq(cqe=256) failed: Connection timed out
[1741191601.091682] [ohm:207336:0]        ib_iface.c:1059 UCX  ERROR ibv_create_cq(cqe=256) failed: Connection timed out
[1741191601.091789] [ohm:207348:0]        ib_iface.c:1059 UCX  ERROR ibv_create_cq(cqe=256) failed: Connection timed out
[1741191601.091866] [ohm:207341:0]        ib_iface.c:1059 UCX  ERROR ibv_create_cq(cqe=256) failed: Connection timed out
[1741191601.092239] [ohm:207331:0]        ib_iface.c:1059 UCX  ERROR ibv_create_cq(cqe=256) failed: Connection timed out
[1741191601.095953] [ohm:207351:0]        ib_iface.c:1059 UCX  ERROR ibv_create_cq(cqe=256) failed: Connection timed out
[1741191601.096663] [ohm:207327:0]        ib_iface.c:1059 UCX  ERROR ibv_create_cq(cqe=256) failed: Connection timed out
[1741191601.098095] [ohm:207344:0]        ib_iface.c:1059 UCX  ERROR ibv_create_cq(cqe=256) failed: Connection timed out
[1741191601.099975] [ohm:207329:0]        ib_iface.c:1059 UCX  ERROR ibv_create_cq(cqe=256) failed: Connection timed out
[1741191601.101408] [ohm:207323:0]        ib_iface.c:1059 UCX  ERROR ibv_create_cq(cqe=256) failed: Connection timed out


           ************************************************************
           *        Program running with 16 parallel MPI-processes    *
           *              working on a common directory               *
           ************************************************************
------------------------------------------------------------------------------
                        ORCA TD-DFT/TDA CALCULATION
------------------------------------------------------------------------------

Input orbitals are from        ... orca.gbw
CI-vector output               ... orca.cis
Solver                         ... FN-2001
Tamm-Dancoff approximation     ... operative
CIS-Integral strategy          ... AO-integrals
Integral handling              ... AO integral Direct
Max. core memory used          ... 512 MB
Reference state                ... RHF
Generation of triplets         ... off
Follow IRoot                   ... off
Number of operators            ... 1
Orbital ranges used for CIS calculation:
 Operator 0:  Orbitals   3... 11  to  12...181
XAS localization array:
 Operator 0:  Orbitals  -1... -1

-------------------
XC-INTEGRATION GRID
-------------------

General Integration Accuracy     IntAcc      ... 3.467
Radial Grid Type                 RadialGrid  ... OptM3 with GC (2021)
Angular Grid (max. ang.)         AngularGrid ... 1 (Lebedev-50)
Angular grid pruning method      GridPruning ... 4 (adaptive)
Weight generation scheme         WeightScheme... mBecke (2022)
Basis function cutoff            BFCut       ... 1.0000e-11
Integration weight cutoff        WCut        ... 1.0000e-14
Partially contracted basis set               ... off
Rotationally invariant grid construction     ... off
Angular grids for H and He will be reduced by one unit
Diffuse basis detected: some atoms will have their outermost
                        angular grid increased by 1.

Total number of grid points                  ...     4733
Total number of batches                      ...       77
Average number of points per batch           ...       61
Average number of grid points per atom       ...      676

---------------------
COSX-INTEGRATION GRID
---------------------

General Integration Accuracy     IntAcc      ... 3.067
Radial Grid Type                 RadialGrid  ... OptM3 with GC (2021)
Angular Grid (max. ang.)         AngularGrid ... 1 (Lebedev-50)
Angular grid pruning method      GridPruning ... 4 (adaptive)
Weight generation scheme         WeightScheme... mBecke (2022)
Basis function cutoff            BFCut       ... 1.0000e-11
Integration weight cutoff        WCut        ... 1.0000e-14
Partially contracted basis set               ... on
Rotationally invariant grid construction     ... off
Angular grids for H and He will be reduced by one unit
Diffuse basis detected: some atoms will have their outermost
                        angular grid increased by 1.

Total number of grid points                  ...     2149
Total number of batches                      ...       22
Average number of points per batch           ...       97
Average number of grid points per atom       ...      307

---------------
TD-DFT XC SETUP
---------------

DFT calculation                         ... on
Name of the grid file                   ... orca.grid_cis.tmp
RI-approximation                        ... on
Aux-basis dimension                     ... 0
Functional (TD-DFT)
  Functional kind                       .... Exchange-Correlation
  Functional name                       .... wB97M-V exchange-correlation functional
  Functional family                     .... Hybrid MGGA
  Functional refs                              
    [ 0] N. Mardirossian and M. Head-Gordon.,  J. Chem. Phys. 144, 214110 (2016), doi: 10.1063/1.4952647
  Fraction of HF Exchange (short range) .... 0.1500
  Fraction of HF Exchange (long range)  .... 1.0000
  Range separation parameter mu         .... 0.3000
  Functional external parameters        .... 17
    Parameter  0 _cx00      =  8.500000e-01 : u^00 coefficient for exchange
    Parameter  1 _cx01      =  1.007000e+00 : u^01 coefficient for exchange
    Parameter  2 _cx10      =  2.590000e-01 : u^10 coefficient for exchange
    Parameter  3 _css00     =  4.430000e-01 : u^00 coefficient for same-spin correlation
    Parameter  4 _css04     = -1.437000e+00 : u^04 coefficient for same-spin correlation
    Parameter  5 _css10     = -4.535000e+00 : u^10 coefficient for same-spin correlation
    Parameter  6 _css20     = -3.390000e+00 : u^20 coefficient for same-spin correlation
    Parameter  7 _css43     =  4.278000e+00 : u^43 coefficient for same-spin correlation
    Parameter  8 _cos00     =  1.000000e+00 : u^00 coefficient for opposite-spin correlation
    Parameter  9 _cos10     =  1.358000e+00 : u^10 coefficient for opposite-spin correlation
    Parameter 10 _cos20     =  2.924000e+00 : u^20 coefficient for opposite-spin correlation
    Parameter 11 _cos21     = -8.812000e+00 : u^21 coefficient for opposite-spin correlation
    Parameter 12 _cos60     = -1.390000e+00 : u^60 coefficient for opposite-spin correlation
    Parameter 13 _cos61     =  9.142000e+00 : u^61 coefficient for opposite-spin correlation
    Parameter 14 _alpha     =  1.000000e+00 : fraction of HF exchange
    Parameter 15 _beta      = -8.500000e-01 : fraction of short-range exchange
    Parameter 16 _omega     =  3.000000e-01 : range-separation constant
Hybrid DFT                              ... on
   Exchange mixing (TD-DFT)             ...  0.150
   GGA exch. scaling (TD-DFT)           ...  0.000
   GGA corr. scaling (TD-DFT)           ...  1.000
Range-Separated Exchange                ... on
   Range Range separation parameter mu  .... 0.300
   Max. amount of RS exchange (TD-DFT)  ...  0.850

Building densities             ... done
Calculating rho(r) on the grid ... done
Building xc-kernel on the grid ... done
                    *** TD-DFT CALCULATION INITIALIZED ***

------------------------
DAVIDSON-DIAGONALIZATION
------------------------

Dimension of the eigenvalue problem            ...   1530
Number of roots to be determined               ...      4
Maximum size of the expansion space            ...     40
Maximum number of iterations                   ...    100
Convergence tolerance for the residual         ...    2.500e-07
Convergence tolerance for the energies         ...    2.500e-07
Orthogonality tolerance                        ...    1.000e-14
Level Shift                                    ...    0.000e+00
Constructing the preconditioner                ... o.k.
Building the initial guess                     ... o.k.
Number of trial vectors determined             ...     40


                       ****Iteration    0****
   Time for iteration     :  TOTAL=0.5 TRAFO=0.0 RIJ=0.1 COSX=0.2 XC=0.2
   Size of expansion space: 12
   Lowest Energy          :     0.051640699117
   Maximum Energy change  :     0.241535514611 (vector 3)
   Maximum residual norm  :     0.026823406013

                       ****Iteration    1****
   Time for iteration     :  TOTAL=0.3 TRAFO=0.0 RIJ=0.1 COSX=0.2 XC=0.1
   Size of expansion space: 16
   Lowest Energy          :     0.047598410341
   Maximum Energy change  :     0.039656665136 (vector 1)
   Maximum residual norm  :     0.004164187922

                       ****Iteration    2****
   Time for iteration     :  TOTAL=0.3 TRAFO=0.0 RIJ=0.1 COSX=0.2 XC=0.1
   Size of expansion space: 20
   Lowest Energy          :     0.047535832678
   Maximum Energy change  :     0.004335951992 (vector 1)
   Maximum residual norm  :     0.008519552803

                       ****Iteration    3****
   Time for iteration     :  TOTAL=0.3 TRAFO=0.0 RIJ=0.0 COSX=0.1 XC=0.1
   Size of expansion space: 24
   Lowest Energy          :     0.047533806034
   Maximum Energy change  :     0.012335357058 (vector 3)
   Maximum residual norm  :     0.001331096786

                       ****Iteration    4****
   Time for iteration     :  TOTAL=0.3 TRAFO=0.0 RIJ=0.1 COSX=0.1 XC=0.1
   Size of expansion space: 28
   Lowest Energy          :     0.047533753011
   Maximum Energy change  :     0.001629178080 (vector 3)
   Maximum residual norm  :     0.000289623575

                       ****Iteration    5****
   Time for iteration     :  TOTAL=0.3 TRAFO=0.0 RIJ=0.0 COSX=0.1 XC=0.1
   Size of expansion space: 32
   Lowest Energy          :     0.047533751386
   Maximum Energy change  :     0.000391558092 (vector 3)
   Maximum residual norm  :     0.000032586931

                       ****Iteration    6****
   Time for iteration     :  TOTAL=0.3 TRAFO=0.0 RIJ=0.1 COSX=0.1 XC=0.1
   Size of expansion space: 36
   Lowest Energy          :     0.047533751349
   Maximum Energy change  :     0.000025652018 (vector 3)
   Maximum residual norm  :     0.000002039533

                       ****Iteration    7****
   Time for iteration     :  TOTAL=0.2 TRAFO=0.0 RIJ=0.0 COSX=0.1 XC=0.1
   Size of expansion space: 40
   Lowest Energy          :     0.047533751349
   Maximum Energy change  :     0.000001863607 (vector 3)
   Maximum residual norm  :     0.000000097495

      *** CONVERGENCE OF RESIDUAL NORM REACHED ***

Storing the converged CI vectors               ... orca.cis1

                 *** DAVIDSON DONE ***

Total time for solving the CIS problem:     2.558sec

------------------------------------
TD-DFT/TDA EXCITED STATES (SINGLETS)
------------------------------------

the weight of the individual excitations are printed if larger than 1.0e-02

STATE  1:  E=   0.047534 au      1.293 eV    10432.5 cm**-1 <S**2> =   0.000000 Mult 1
    11a ->  12a  :     0.981445 (c= -0.99067916)

STATE  2:  E=   0.131770 au      3.586 eV    28920.1 cm**-1 <S**2> =   0.000000 Mult 1
     7a ->  12a  :     0.065675 (c= -0.25627093)
     8a ->  12a  :     0.074404 (c=  0.27277134)
    10a ->  12a  :     0.805362 (c= -0.89741983)

STATE  3:  E=   0.203271 au      5.531 eV    44612.9 cm**-1 <S**2> =   0.000000 Mult 1
     9a ->  12a  :     0.972170 (c=  0.98598670)

STATE  4:  E=   0.217656 au      5.923 eV    47770.0 cm**-1 <S**2> =   0.000000 Mult 1
     7a ->  12a  :     0.154464 (c=  0.39301877)
     8a ->  12a  :     0.784982 (c=  0.88599229)
    10a ->  12a  :     0.018199 (c=  0.13490391)


-----------------------------
TD-DFT/TDA-EXCITATION SPECTRA
-----------------------------

Center of mass = (  0.6361,  0.1024,  0.0001)
Generating CIS transition densities           ... done

----------------------------------------------------------------------------------------------------
                     ABSORPTION SPECTRUM VIA TRANSITION ELECTRIC DIPOLE MOMENTS    
----------------------------------------------------------------------------------------------------
     Transition      Energy     Energy  Wavelength fosc(D2)      D2        DX        DY        DZ   
                      (eV)      (cm-1)    (nm)                 (au**2)    (au)      (au)      (au)  
----------------------------------------------------------------------------------------------------
  0-1A  ->  1-1A    1.293459   10432.5   958.5   0.000292816   0.00924  -0.00052   0.00020   0.09612
  0-1A  ->  2-1A    3.585635   28920.1   345.8   0.104906139   1.19420  -0.82290  -0.71905   0.00019
  0-1A  ->  3-1A    5.531291   44612.9   224.2   0.000280320   0.00207  -0.00003  -0.00094   0.04547
  0-1A  ->  4-1A    5.922721   47770.0   209.3   0.032394304   0.22325   0.32777   0.34031  -0.00009

----------------------------------------------------------------------------------------------------
                     ABSORPTION SPECTRUM VIA TRANSITION VELOCITY DIPOLE MOMENTS    
----------------------------------------------------------------------------------------------------
     Transition      Energy     Energy  Wavelength fosc(P2)      P2        PX        PY        PZ   
                      (eV)      (cm-1)    (nm)                 (au**2)    (au)      (au)      (au)  
----------------------------------------------------------------------------------------------------
  0-1A  ->  1-1A    1.293459   10432.5   958.5   0.005822541   0.00042  -0.00007   0.00006  -0.02038
  0-1A  ->  2-1A    3.585635   28920.1   345.8   0.126024400   0.02491  -0.05918  -0.14631   0.00001
  0-1A  ->  3-1A    5.531291   44612.9   224.2   0.001745925   0.00053   0.00000  -0.00010  -0.02307
  0-1A  ->  4-1A    5.922721   47770.0   209.3   0.002966258   0.00097   0.03027  -0.00720  -0.00000

------------------------------------------------------------------------------------------
                     CD SPECTRUM VIA TRANSITION ELECTRIC DIPOLE MOMENTS    
------------------------------------------------------------------------------------------
     Transition      Energy     Energy  Wavelength    R        MX        MY        MZ   
                      (eV)      (cm-1)    (nm)   (1e40*cgs)   (au)      (au)      (au)  
------------------------------------------------------------------------------------------
  0-1A  ->  1-1A    1.293459   10432.5   958.5    0.01665   0.01191  -0.24614   0.00020
  0-1A  ->  2-1A    3.585635   28920.1   345.8    0.19453   0.00031   0.00024   0.07502
  0-1A  ->  3-1A    5.531291   44612.9   224.2   -0.03629  -0.32626  -0.08935  -0.00039
  0-1A  ->  4-1A    5.922721   47770.0   209.3    0.01636   0.00028  -0.00038  -0.01733

------------------------------------------------------------------------------------------
                     CD SPECTRUM VIA TRANSITION VELOCITY DIPOLE MOMENTS    
------------------------------------------------------------------------------------------
     Transition      Energy     Energy  Wavelength    R        MX        MY        MZ   
                      (eV)      (cm-1)    (nm)   (1e40*cgs)   (au)      (au)      (au)  
------------------------------------------------------------------------------------------
  0-1A  ->  1-1A    1.293459   10432.5   958.5   -0.20380   0.01191  -0.24614   0.00020
  0-1A  ->  2-1A    3.585635   28920.1   345.8   -0.18945   0.00031   0.00024   0.07502
  0-1A  ->  3-1A    5.531291   44612.9   224.2    0.03874  -0.32626  -0.08935  -0.00039
  0-1A  ->  4-1A    5.922721   47770.0   209.3    0.02448   0.00028  -0.00038  -0.01733

Total run time:        2.709 sec

           *** ORCA-CIS/TD-DFT FINISHED WITHOUT ERROR ***
-----------------------
CIS/TD-DFT TOTAL ENERGY
-----------------------

    E(SCF)  =   -153.785259879 Eh
    DE(CIS) =      0.047533751 Eh (Root  1)
    ----------------------------- ---------
    E(tot)  =   -153.737726127 Eh


------------------------
TD-DFT GRADIENT XC SETUP
------------------------

Building densities                     ... done
Calculating rho(r) on the grid         ... done
Building xc-kernel on the grid         ... done
Building xc 3rd derivative on the grid ... done
                *** TD-DFT GRADIENT CALCULATION INITIALIZED ***

--------------------------
TD-DFT/TDA RELAXED DENSITY
--------------------------

Reference wavefunction             ... RHF
State of interest                  ... 1
Basis dimension                    ... 182
DFT-XC contribution needed         ... YES
RI-approximation                   ... YES
Do Coulomb                         ... YES
Do Exchange                        ... YES
Need Hartree-Fock Exchange         ... YES
facj, facx                         ...  2.000, -0.150
Conventional                       ... NO
Range separation                   ... YES
Triplet state                      ... NO
Spin Flip                          ... NO
CIS-vectors being read from        ... orca.cis
 => Number of Vectors found: 4
 => Orbital Window: 3...11 -> 12...181

Reading the CIS file                     ... done
Norm of the CI vector                    ... 1.000000000
Making the CIS (pseudo)densities         ... done
Making operators G(D) and Q(T)           ... (SHARK-ok)done
Transforming the Fock operators          ... done
Making the frozen-core relaxed density   ... done
Constructing the G(H) operator           ... (SHARK-ok)done
Transforming the G(H) operator           ... done
Calculating the CIS Lagrangian           ... done
Solving the Z-vector equations           ... 

Using XC Grid                  ... (orca.grid_cpscf.tmp) 
Recalculating density on grid  ... (orca.grho_cpscf0.tmp) done
Calculating the xc-kernel      ... (orca.fxc_cpscf0.tmp) done

-------------------
SHARK CP-SCF DRIVER
-------------------

Dimension of the orbital basis          ...    182
Dimension of the CPSCF-problem          ...   2040
Number of operators                     ...      1
Max. number of iterations               ...    128
Convergence Tolerance                   ... 1.0e-04
Number of perturbations                 ...      1
Perturbation type                       ... REAL

----------------------------
POPLE LINEAR EQUATION SOLVER
----------------------------

  ITERATION   0:   ||err||_max =   3.0208e+00 (   0.2 sec)
  ITERATION   1:   ||err||_max =   9.9628e-02 (   0.2 sec)
  ITERATION   2:   ||err||_max =   4.4776e-02 (   0.2 sec)
  ITERATION   3:   ||err||_max =   1.4495e-02 (   0.2 sec)
  ITERATION   4:   ||err||_max =   5.5684e-03 (   0.2 sec)
  ITERATION   5:   ||err||_max =   1.2016e-03 (   0.2 sec)
  ITERATION   6:   ||err||_max =   3.3953e-04 (   0.2 sec)
  ITERATION   7:   ||err||_max =   1.1065e-04 (   0.2 sec)
  ITERATION   8:   ||err||_max =   4.5144e-05 (   0.2 sec)

Finalizing the relaxed density           ... done
Storing the relaxed density              ... done
Constructing the G(Z) operator           ... (SHARK-ok)done
Adding the XC terms                      ... done
Transforming the G(Z) operator           ... done
Making the W-matrix                      ... done
Finalizing the W-matrix                  ... done
Transforming the W-matrix                ... done
Nuc. rep. gradient        (SHARK) ... done (  0.0 sec)
HCore & Overlap gradient  (SHARK) ... done (  0.0 sec)
Split-RIJ-J gradient      (SHARK) ... done (  0.1 sec)
COSX-gradient                     ... done (  2.0 sec)
Dispersion correction             ... done (  0.0 sec)

-------------------
DISPERSION GRADIENT
-------------------

   1   O   :    0.000132813    0.000209766    0.000000004
   2   C   :    0.000105659    0.000000663    0.000000008
   3   C   :   -0.000118822   -0.000005885    0.000000012
   4   H   :    0.000156609   -0.000053522    0.000085997
   5   H   :    0.000156593   -0.000053433   -0.000086058
   6   H   :   -0.000216473   -0.000048908   -0.000104764
   7   H   :   -0.000216378   -0.000048681    0.000104802

Difference to translation invariance:
           :    0.0000000000    0.0000000000   -0.0000000000

Difference to rotation invariance:
           :    0.0000000000   -0.0000000000    0.0000000000

Norm of the Dispersion gradient    ...    0.0005262402
RMS gradient                       ...    0.0001148350
MAX gradient                       ...    0.0002164734

                 ---------------------------
                 EXCITED STATE GRADIENT DONE
                 ---------------------------

------------------
CARTESIAN GRADIENT
------------------

   1   O   :   -0.020393902   -0.006651689   -0.000001385
   2   C   :    0.025832041   -0.001100387    0.000092326
   3   C   :    0.023285204    0.006272435   -0.000096463
   4   H   :   -0.012909144   -0.002303071   -0.001378512
   5   H   :   -0.012910983   -0.002296409    0.001351311
   6   H   :   -0.001466679    0.003014301   -0.001650848
   7   H   :   -0.001405604    0.003055164    0.001684684

Difference to translation invariance:
[...]
      f+1     :     0.006614
      f-1     :     0.011547
      f+2     :     0.013349
      f-2     :     0.004414
      f+3     :     0.030984
      f-3     :     0.021136
  2 C s       :     2.731931  s :     2.731931
      pz      :     0.966310  p :     2.542591
      px      :     0.953147
      py      :     0.623135
      dz2     :     0.066761  d :     0.428376
      dxz     :     0.190412
      dyz     :     0.008576
      dx2y2   :     0.087174
      dxy     :     0.075453
      f0      :     0.003304  f :     0.025903
      f+1     :     0.005345
      f-1     :     0.001118
      f+2     :     0.004863
      f-2     :     0.000799
      f+3     :     0.004829
      f-3     :     0.005646
  3 H s       :     0.664335  s :     0.664335
      pz      :     0.108667  p :     0.256040
      px      :     0.080563
      py      :     0.066810
      dz2     :     0.008983  d :     0.029466
      dxz     :     0.006925
      dyz     :     0.006753
      dx2y2   :     0.003837
      dxy     :     0.002968
  4 H s       :     0.664342  s :     0.664342
      pz      :     0.108697  p :     0.256038
      px      :     0.080547
      py      :     0.066795
      dz2     :     0.008987  d :     0.029464
      dxz     :     0.006928
      dyz     :     0.006754
      dx2y2   :     0.003832
      dxy     :     0.002963
  5 H s       :     0.724883  s :     0.724883
      pz      :     0.123343  p :     0.288783
      px      :     0.083284
      py      :     0.082157
      dz2     :     0.009601  d :     0.030024
      dxz     :     0.009197
      dyz     :     0.006119
      dx2y2   :     0.002677
      dxy     :     0.002431
  6 H s       :     0.724826  s :     0.724826
      pz      :     0.123368  p :     0.288805
      px      :     0.083264
      py      :     0.082174
      dz2     :     0.009606  d :     0.030025
      dxz     :     0.009195
      dyz     :     0.006126
      dx2y2   :     0.002671
      dxy     :     0.002426


                      *****************************
                      * MAYER POPULATION ANALYSIS *
                      *****************************

  NA   - Mulliken gross atomic population
  ZA   - Total nuclear charge
  QA   - Mulliken gross atomic charge
  VA   - Mayer's total valence
  BVA  - Mayer's bonded valence
  FA   - Mayer's free valence

  ATOM       NA         ZA         QA         VA         BVA        FA
  0 O      8.4220     8.0000    -0.4220     1.6807     1.0965     0.5842
  1 C      6.0080     6.0000    -0.0080     3.7750     3.6089     0.1660
  2 C      6.3492     6.0000    -0.3492     3.5415     2.8484     0.6930
  3 H      0.7998     1.0000     0.2002     1.0155     0.9523     0.0632
  4 H      0.7998     1.0000     0.2002     1.0156     0.9524     0.0631
  5 H      0.8105     1.0000     0.1895     1.0227     0.9807     0.0420
  6 H      0.8106     1.0000     0.1894     1.0228     0.9807     0.0421

  Mayer bond orders larger than 0.100000
B(  0-O ,  1-C ) :   0.9347 B(  1-C ,  2-C ) :   0.8399 B(  1-C ,  3-H ) :   0.9319 
B(  1-C ,  4-H ) :   0.9318 B(  2-C ,  5-H ) :   0.9844 B(  2-C ,  6-H ) :   0.9846 



-------
TIMINGS
-------

Total TD-DFT gradient time  ....        5.528 sec

Fock matrix formation       ....       1.215 sec  ( 22.0%)
  Coulomb formation         ....       0.927 sec  ( 76.3% of F)
  XC integration            ....       0.288 sec  ( 23.7% of F)
Z-vector equation           ....       1.543 sec  ( 27.9%)
Densities                   ....       0.000 sec  (  0.0%)
One electron gradient       ....       0.012 sec  (  0.2%)
Two electron gradient       ....       0.000 sec  (  0.0%)
RI-J Coulomb gradient       ....       0.105 sec  (  1.9%)
COSX gradient               ....       0.386 sec  (  7.0%)
XC gradient                 ....       2.002 sec  ( 36.2%)

Maximum memory used throughout the entire CIS-calculation: 34.9 MB
=> NOW LEAVING ORCA_CIS


-------------------------------------------------------------------------------
                          DFT DISPERSION CORRECTION                            
                                                                               
                              DFTD3 V3.1  Rev 1                                
                          USING Becke-Johnson damping                          
-------------------------------------------------------------------------------
The WB97M functional is recognized
Active option DFTDOPT                   ...         4   

molecular C6(AA) [au] = 394.180446 


            DFT-D V3
 parameters
 s6 scaling factor         :     1.0000 
 a1 scaling factor         :     0.5660 
 s8 scaling factor         :     0.3908 
 a2 scaling factor         :     3.1280 
 ad hoc parameters k1-k3   :    16.0000     1.3333    -4.0000 

 Edisp/kcal,au: -3.538918078573  -0.005639624336 
 E6   /kcal   :  -2.850398513 
 E8   /kcal   :  -0.688519565 
 % E8         :  19.455651418 

-------------------------   ----------------
Dispersion correction           -0.005639624
-------------------------   ----------------


-------------------------   --------------------
FINAL SINGLE POINT ENERGY      -153.743365751650
-------------------------   --------------------

[1741191610.658295] [ohm:207438:0]        ib_iface.c:1059 UCX  ERROR ibv_create_cq(cqe=256) failed: Connection timed out
[1741191610.670687] [ohm:207422:0]        ib_iface.c:1059 UCX  ERROR ibv_create_cq(cqe=256) failed: Connection timed out
[1741191610.670736] [ohm:207425:0]        ib_iface.c:1059 UCX  ERROR ibv_create_cq(cqe=256) failed: Connection timed out
[1741191610.674709] [ohm:207418:0]        ib_iface.c:1059 UCX  ERROR ibv_create_cq(cqe=256) failed: Connection timed out
[1741191610.683436] [ohm:207420:0]        ib_iface.c:1059 UCX  ERROR ibv_create_cq(cqe=256) failed: Connection timed out
[1741191610.696807] [ohm:207443:0]        ib_iface.c:1059 UCX  ERROR ibv_create_cq(cqe=256) failed: Connection timed out
[1741191610.709257] [ohm:207421:0]        ib_iface.c:1059 UCX  ERROR ibv_create_cq(cqe=256) failed: Connection timed out
[1741191610.709257] [ohm:207426:0]        ib_iface.c:1059 UCX  ERROR ibv_create_cq(cqe=256) failed: Connection timed out
[1741191610.710434] [ohm:207430:0]        ib_iface.c:1059 UCX  ERROR ibv_create_cq(cqe=256) failed: Connection timed out
[1741191610.710634] [ohm:207416:0]        ib_iface.c:1059 UCX  ERROR ibv_create_cq(cqe=256) failed: Connection timed out
[1741191610.713612] [ohm:207423:0]        ib_iface.c:1059 UCX  ERROR ibv_create_cq(cqe=256) failed: Connection timed out
[1741191610.713612] [ohm:207417:0]        ib_iface.c:1059 UCX  ERROR ibv_create_cq(cqe=256) failed: Connection timed out
[1741191610.790439] [ohm:207435:0]        ib_iface.c:1059 UCX  ERROR ibv_create_cq(cqe=256) failed: Connection timed out
[1741191610.835999] [ohm:207441:0]        ib_iface.c:1059 UCX  ERROR ibv_create_cq(cqe=256) failed: Connection timed out
[1741191610.839939] [ohm:207449:0]        ib_iface.c:1059 UCX  ERROR ibv_create_cq(cqe=256) failed: Connection timed out
[1741191610.842628] [ohm:207419:0]        ib_iface.c:1059 UCX  ERROR ibv_create_cq(cqe=256) failed: Connection timed out


           ************************************************************
           *        Program running with 16 parallel MPI-processes    *
           *              working on a common directory               *
           ************************************************************

------------------------------------------------------------------------------
                              ORCA PROPERTY CALCULATIONS
------------------------------------------------------------------------------

GBWName                                 ... orca.gbw
Number of atoms                         ...      7
Number of basis functions               ...    182
Max core memory                         ...   1024 MB

Electric properties:
Dipole moment                           ... YES
Quadrupole moment                       ...  NO
Static polarizability (Dipole/Dipole)   ...  NO
Static polarizability (Dipole/Quad.)    ...  NO
Static polarizability (Quad./Quad.)     ...  NO
Static polarizability (Velocity)        ...  NO

Atomic electric properties:
Dipole moment                           ...  NO
Quadrupole moment                       ...  NO
Static polarizability                   ...  NO

Choice of electric origin               ... Center of mass
Position of electric origin             ...     0.636119     0.102412     0.000113

General magnetic properties:
Magnetizability                         ...  NO

EPR properties:
g-Tensor (aka g-matrix)                 ...  NO
Zero-Field splitting spin-orbit         ...  NO
Zero-field splitting spin-spin          ...  NO
Hyperfine couplings                     ...  NO (   0 nuclei)
Quadrupole couplings                    ...  NO (   0 nuclei)
Contact density                         ...  NO (   0 nuclei)

NMR properties:
Chemical shifts                         ...  NO (   0 nuclei)
Spin-rotation constants                 ...  NO (   0 nuclei)
Spin-spin couplings                     ...  NO (   0 nuclei,    0 pairs)

Choice of magnetic origin               ... GIAO
Position of magnetic origin             ...     0.000000     0.000000     0.000000

Properties with geometric perturbations:
SCF Hessian                             ...  NO
IR spectrum                             ...  NO
VCD spectrum                            ...  NO
X-ray spectroscopy properties:
SCF XES/XAS/RIXS spectra                ...  NO


-------------
DIPOLE MOMENT
-------------

Method             : SCF
Type of density    : Electron Density
Multiplicity       :   1
Irrep              :   0
Energy             :  -153.7852598786622593 Eh
Relativity type    : 
Basis              : AO
                                X                 Y                 Z
Electronic contribution:      0.325868872       1.380942034       0.000066157
Nuclear contribution   :     -1.148048874      -2.650920257      -0.000367794
                        -----------------------------------------
Total Dipole Moment    :     -0.822180001      -1.269978223      -0.000301637
                        -----------------------------------------
Magnitude (a.u.)       :      1.512886226
Magnitude (Debye)      :      3.845451184



--------------------
Rotational spectrum 
--------------------
 
Rotational constants in cm-1:             1.223894             0.417083             0.353900 
Rotational constants in MHz :         36691.425770         12503.825889         10609.659499 

Dipole components along the rotational axes: 
x,y,z [a.u.] :    -1.476831     0.328322     0.000048 
x,y,z [Debye]:    -3.753806     0.834528     0.000122 

 

-------------
DIPOLE MOMENT
-------------

Method             : TDA/CIS
Type of density    : Electron Density
Level              : Relaxed density
State              :   1
Multiplicity       :   1
Irrep              :   0
Energy             :     0.0000000000000000 Eh
Relativity type    : 
Basis              : AO
                                X                 Y                 Z
Electronic contribution:      1.046178922       1.727452965       0.000209504
Nuclear contribution   :     -1.148048874      -2.650920257      -0.000367794
                        -----------------------------------------
Total Dipole Moment    :     -0.101869952      -0.923467292      -0.000158290
                        -----------------------------------------
Magnitude (a.u.)       :      0.929069078
Magnitude (Debye)      :      2.361505924



--------------------
Rotational spectrum 
--------------------
 
Rotational constants in cm-1:             1.223894             0.417083             0.353900 
Rotational constants in MHz :         36691.425770         12503.825889         10609.659499 

Dipole components along the rotational axes: 
x,y,z [a.u.] :    -0.720409     0.586668     0.000150 
x,y,z [Debye]:    -1.831135     1.491193     0.000382 

 

Dipole moment calculation done in   0.0 sec 

Maximum memory used throughout the entire PROP-calculation: 7.3 MB
[1741191611.813636] [ohm:207504:0]        ib_iface.c:1059 UCX  ERROR ibv_create_cq(cqe=256) failed: Connection timed out
[1741191611.813902] [ohm:207501:0]        ib_iface.c:1059 UCX  ERROR ibv_create_cq(cqe=256) failed: Connection timed out
[1741191611.813949] [ohm:207499:0]        ib_iface.c:1059 UCX  ERROR ibv_create_cq(cqe=256) failed: Connection timed out
[1741191611.815036] [ohm:207503:0]        ib_iface.c:1059 UCX  ERROR ibv_create_cq(cqe=256) failed: Connection timed out
[1741191611.815115] [ohm:207505:0]        ib_iface.c:1059 UCX  ERROR ibv_create_cq(cqe=256) failed: Connection timed out
[1741191611.825149] [ohm:207506:0]        ib_iface.c:1059 UCX  ERROR ibv_create_cq(cqe=256) failed: Connection timed out
[1741191611.830823] [ohm:207502:0]        ib_iface.c:1059 UCX  ERROR ibv_create_cq(cqe=256) failed: Connection timed out
[1741191611.831698] [ohm:207507:0]        ib_iface.c:1059 UCX  ERROR ibv_create_cq(cqe=256) failed: Connection timed out
[1741191611.832106] [ohm:207511:0]        ib_iface.c:1059 UCX  ERROR ibv_create_cq(cqe=256) failed: Connection timed out
[1741191611.834301] [ohm:207500:0]        ib_iface.c:1059 UCX  ERROR ibv_create_cq(cqe=256) failed: Connection timed out
[1741191611.836157] [ohm:207510:0]        ib_iface.c:1059 UCX  ERROR ibv_create_cq(cqe=256) failed: Connection timed out
[1741191611.836526] [ohm:207516:0]        ib_iface.c:1059 UCX  ERROR ibv_create_cq(cqe=256) failed: Connection timed out
[1741191611.842875] [ohm:207513:0]        ib_iface.c:1059 UCX  ERROR ibv_create_cq(cqe=256) failed: Connection timed out
[1741191611.857792] [ohm:207521:0]        ib_iface.c:1059 UCX  ERROR ibv_create_cq(cqe=256) failed: Connection timed out
[1741191611.867559] [ohm:207525:0]        ib_iface.c:1059 UCX  ERROR ibv_create_cq(cqe=256) failed: Connection timed out
[1741191611.880059] [ohm:207527:0]        ib_iface.c:1059 UCX  ERROR ibv_create_cq(cqe=256) failed: Connection timed out

--------------------------------
SUGGESTED CITATIONS FOR THIS RUN
--------------------------------

Below you find a list of papers that are relevant to this ORCA run
We neither can nor want to force you to cite these papers, but we appreciate if you do
You receive ORCA, which is the product of decades of hard work by many enthusiastic individuals, for free
The only thing we kindly ask in return is that you cite our papers,
We deeply appreciate it, if you show your appreciation for ORCA by not just citing the generic ORCA reference.

Please note that relegating all ORCA citations to the supporting information does *not* help us.
SI sections are not indexed - citations you put there will not count into any citation statistics
But we need these citations in order to attract the funding resources that allow us to do what we are doing

Therefore, if you are a happy ORCA user, please consider citing a few of the papers listed below in the main body of your paper

In addition to the list printed below, the program has created the file orca.bibtex that contains the list in bibtex format
You can import this file easily into all common literature databanks and citation aid programs


List of essential papers. We consider these as the minimum necessary citations

  1. Neese,F.
     Software update: the ORCA program system, version 5.0
     WIRES Comput. Molec. Sci., 2022 12(1)e1606
     doi.org/10.1002/wcms.1606

List of papers to cite with high priority. The work reported in these papers was absolutely
necessary for this run to complete.
Our perspective: the developers of density functionals and basis sets usually get cited in chemistry papers
Good! But without the algorithms to do something with them, the functionals or basis sets would not do anything.
Hence, in our opinion, the algorithm design and method developments papers are equally worthy of getting cited

  1. Neese,F.; Olbrich,G.
     Efficient use of the resolution of the identity approximation in time-dependent density functional calculations with hybrid density functionals
     Chem. Phys. Lett., 2002 362 170-178
     doi.org/10.1016/s0009-2614(02)01053-9
  2. Neese,F.
     An improvement of the resolution of the identity approximation for the formation of the Coulomb matrix
     J. Comp. Chem., 2003 24(14)1740-1747
     doi.org/10.1002/jcc.10318
  3. Neese,F.; Wennmohs,F.; Hansen,A.; Becker,U.
     Efficient, approximate and parallel Hartree-Fock and hybrid DFT calculations. A 'chain-of-spheres' algorithm for the Hartree-Fock exchange
     Chem. Phys., 2009 356(1-3)98-109
     doi.org/10.1016/j.chemphys.2008.10.036
  4. Petrenko,T.; Kossmann,S.; Neese,F.
     Efficient time-dependent density functional theory approximations for hybrid density functionals: Analytical gradients and parallelization
     J. Chem. Phys., 2011 134 054116
     doi.org/10.1063/1.3533441
  5. Helmich-Paris,B.; de Souza,B.; Neese,F.; Izsák,R.
     An improved chain of spheres for exchange algorithm
     J. Chem. Phys., 2021 155 104109
     doi.org/doi: 10.1063/5.0058766.
  6. Neese,F.
     The SHARK Integral Generation and Digestion System
     J. Comp. Chem., 2022  1-16
     doi.org/10.1002/jcc.26942
  7. Lehtola,S.; Steigemann,C.; Oliveira,M.; Marques,M.
     Recent developments in Libxc - A comprehensive library of functionals for density functional theory
     Software X, 2018 7 
     doi.org/10.1016/j.softx.2017.11.002
  8. Grimme,S.; Antony,J.; Ehrlich,S.; Krieg,H.
     A consistent and accurate ab initio parametrization of density functional dispersion correction (DFT-D) for the 94 elements H-Pu
     J. Chem. Phys., 2010 132 154104-XXXX
     doi.org/10.1063/1.3382344
  9. Grimme,S.; Ehrlich,S.; Goerigk,L.
     Effect of the damping function in dispersion corrected density functional theory
     J. Comput. Chem., 2011 32(7)1456-1465
     doi.org/10.1002/jcc.21759

List of suggested additional citations. These are papers that are important in the 'surrounding' of 
of this run, or papers that preceded the highly important papers. If you like your results we are grateful for a citation.

  1. Izsak,R.; Neese,F.
     An overlap fitted chain of spheres exchange method
     J. Chem. Phys., 2011 135 144105
     doi.org/10.1063/1.3646921
  2. Izsak,R.; Hansen,A.; Neese,F.
     The resolution of identity and chain of spheres approximations for the LPNO-CCSD singles Fock term
     Molec. Phys., 2012 110 2413-2417
     doi.org/10.1080/00268976.2012.687466
  3. Neese,F.
     The ORCA program system
     WIRES Comput. Molec. Sci., 2012 2(1)73-78
     doi.org/10.1002/wcms.81
  4. Izsak,R.; Neese,F.; Klopper,W.
     Robust fitting techniques in the chain of spheres approximation to the Fock exchange: The role of the complementary space
     J. Chem. Phys., 2013 139 
     doi.org/10.1063/1.4819264
  5. Neese,F.
     Software update: the ORCA program system, version 4.0
     WIRES Comput. Molec. Sci., 2018 8(1)1-6
     doi.org/10.1002/wcms.1327
  6. Neese,F.; Wennmohs,F.; Becker,U.; Riplinger,C.
     The ORCA quantum chemistry program package
     J. Chem. Phys., 2020 152 Art. No. L224108
     doi.org/10.1063/5.0004608

List of optional additional citations

  1. Neese,F.
     Approximate second-order SCF convergence for spin unrestricted wavefunctions
     Chem. Phys. Lett., 2000 325(1-3)93-98
     doi.org/10.1016/s0009-2614(00)00662-x

Timings for individual modules:

Sum of individual times          ...       20.633 sec (=   0.344 min)
Startup calculation              ...        1.386 sec (=   0.023 min)   6.7 %
SCF iterations                   ...        6.955 sec (=   0.116 min)  33.7 %
Property integrals               ...        1.388 sec (=   0.023 min)   6.7 %
Property calculations            ...        1.412 sec (=   0.024 min)   6.8 %
CIS module                       ...        9.491 sec (=   0.158 min)  46.0 %
                             ****ORCA TERMINATED NORMALLY****
TOTAL RUN TIME: 0 days 0 hours 0 minutes 21 seconds 737 msec
