
                                 *****************
                                 * O   R   C   A *
                                 *****************

                                            #,                                       
                                            ###                                      
                                            ####                                     
                                            #####                                    
                                            ######                                   
                                           ########,                                 
                                     ,,################,,,,,                         
                               ,,#################################,,                 
                          ,,##########################################,,             
                       ,#########################################, ''#####,          
                    ,#############################################,,   '####,        
                  ,##################################################,,,,####,       
                ,###########''''           ''''###############################       
              ,#####''   ,,,,##########,,,,          '''####'''          '####       
            ,##' ,,,,###########################,,,                        '##       
           ' ,,###''''                  '''############,,,                           
         ,,##''                                '''############,,,,        ,,,,,,###''
      ,#''                                            '''#######################'''  
     '                                                          ''''####''''         
             ,#######,   #######,   ,#######,      ##                                
            ,#'     '#,  ##    ##  ,#'     '#,    #''#        ,####,   ,####,        
            ##       ##  ##   ,#'  ##            #'  '#       #'       #'  '#        
            ##       ##  #######   ##           ,######,      #####,   #    #        
            '#,     ,#'  ##    ##  '#,     ,#' ,#      #,     #,   #   #,  ,#        
             '#######'   ##     ##  '#######'  #'      '#     '####' # '####'        



                #########################################################
                #                        -***-                          #
                #          Department of theory and spectroscopy        #
                #                                                       #
                #                      Frank Neese                      #
                #                                                       #
                #     Directorship, Architecture, Infrastructure        #
                #                    SHARK, DRIVERS                     #
                #        Core code/Algorithms in most modules           #
                #                                                       #
                #        Max Planck Institute fuer Kohlenforschung      #
                #                Kaiser Wilhelm Platz 1                 #
                #                 D-45470 Muelheim/Ruhr                 #
                #                      Germany                          #
                #                                                       #
                #                  All rights reserved                  #
                #                        -***-                          #
                #########################################################


                         Program Version 6.0.0  -   RELEASE  -


 With contributions from (in alphabetic order):
   Daniel Aravena         : Magnetic Suceptibility
   Michael Atanasov       : Ab Initio Ligand Field Theory (pilot matlab implementation)
   Alexander A. Auer      : GIAO ZORA, VPT2 properties, NMR spectrum
   Ute Becker             : All parallelization in ORCA, NUMFREQ, NUMCALC
   Giovanni Bistoni       : ED, misc. LED, open-shell LED, HFLD
   Martin Brehm           : Molecular dynamics
   Dmytro Bykov           : pre 5.0 version of the SCF Hessian
   Marcos Casanova-Páez   : Triplet and SCS-CIS(D). UHF-(DLPNO)-IP/EA/STEOM-CCSD. UHF-CVS-IP/STEOM-CCSD
   Vijay G. Chilkuri      : MRCI spin determinant printing, contributions to CSF-ICE
   Pauline Colinet        : FMM embedding
   Dipayan Datta          : RHF DLPNO-CCSD density
   Achintya Kumar Dutta   : EOM-CC, STEOM-CC
   Nicolas Foglia         : Exact transition moments, OPA infrastructure, MCD improvements
   Dmitry Ganyushin       : Spin-Orbit,Spin-Spin,Magnetic field MRCI
   Miquel Garcia          : C-PCM and meta-GGA Hessian, CCSD/C-PCM, Gaussian charge scheme
   Tiago L. C. Gouveia    : GS-ROHF, GS-ROCIS
   Yang Guo               : DLPNO-NEVPT2, F12-NEVPT2, CIM, IAO-localization
   Andreas Hansen         : Spin unrestricted coupled pair/coupled cluster methods
   Ingolf Harden          : AUTO-CI MPn and infrastructure 
   Benjamin Helmich-Paris : MC-RPA, TRAH-(SCF,CASSCF), AVAS, COSX integrals, SCF dyn. polar.
   Lee Huntington         : MR-EOM, pCC
   Robert Izsak           : Overlap fitted RIJCOSX, COSX-SCS-MP3, EOM
   Riya Kayal             : Wick's Theorem for AUTO-CI, AUTO-CI UHF-CCSDT
   Emily Kempfer          : AUTO-CI, RHF CISDT and CCSDT
   Christian Kollmar      : KDIIS, OOCD, Brueckner-CCSD(T), CCSD density, CASPT2, CASPT2-K, improved NEVPT2
   Axel Koslowski         : Symmetry handling
   Simone Kossmann        : Meta GGA functionals, TD-DFT gradient, OOMP2, (MP2 Hessian; deprecated post 5.0)
   Lucas Lang             : DCDCAS
   Marvin Lechner         : AUTO-CI (C++ implementation), FIC-MRCC
   Spencer Leger          : CASSCF response
   Dagmar Lenk            : GEPOL surface, SMD, ORCA-2-JSON
   Dimitrios Liakos       : Extrapolation schemes; Compound Job, initial MDCI parallelization
   Dimitrios Manganas     : Further ROCIS development; embedding schemes. LFT, Crystal Embedding
   Dimitrios Pantazis     : SARC Basis sets
   Anastasios Papadopoulos: AUTO-CI, single reference methods and gradients
   Taras Petrenko         : pre 6.0 DFT Hessian and TD-DFT gradient, (ASA, deprecated), ECA, 1-Electron XAS/XES, NRVS
   Peter Pinski           : DLPNO-MP2, DLPNO-MP2 Gradient
   Christoph Reimann      : Effective Core Potentials
   Marius Retegan         : Local ZFS, SOC
   Christoph Riplinger    : Optimizer, TS searches, QM/MM, DLPNO-CCSD(T), (RO)-DLPNO pert. Triples
   Michael Roemelt        : Original ROCIS implementation
   Masaaki Saitow         : Open-shell DLPNO-CCSD energy and density
   Barbara Sandhoefer     : DKH picture change effects
   Kantharuban Sivalingam : CASSCF convergence/infrastructure, NEVPT2 and variants, FIC-MRCI
   Bernardo de Souza      : ESD, SOC TD-DFT
   Georgi Stoychev        : AutoAux, RI-MP2 NMR, DLPNO-MP2 response, X2C
   Van Anh Tran           : RI-MP2 g-tensors
   Willem Van den Heuvel  : Paramagnetic NMR
   Zikuan Wang            : NOTCH, Electric field optimization 
   Frank Wennmohs         : Technical directorship and infrastructure
   Hang Xu                : AUTO-CI-Response properties 


 We gratefully acknowledge several colleagues who have allowed us to
 interface, adapt or use parts of their codes:
   Stefan Grimme, W. Hujo, H. Kruse, P. Pracht,  : VdW corrections, initial TS optimization,
                  C. Bannwarth, S. Ehlert,         DFT functionals, gCP, sTDA/sTD-DF
                  L. Wittmann, M. Mueller
   Ed Valeev, F. Pavosevic, A. Kumar             : LibInt (2-el integral package), F12 methods
   Garnet Chan, S. Sharma, J. Yang, R. Olivares  : DMRG
   Ulf Ekstrom                                   : XCFun DFT Library
   Mihaly Kallay                                 : mrcc  (arbitrary order and MRCC methods)
   Frank Weinhold                                : gennbo (NPA and NBO analysis)
   Simon Mueller                                 : openCOSMO-RS
   Christopher J. Cramer and Donald G. Truhlar   : smd solvation model
   Lars Goerigk                                  : TD-DFT with DH, B97 family of functionals
   V. Asgeirsson, H. Jonsson                     : NEB implementation
   FAccTs GmbH                                   : IRC, NEB, NEB-TS, DLPNO-Multilevel, CI-OPT
                                                   MM, QMMM, 2- and 3-layer-ONIOM, Crystal-QMMM,
                                                   LR-CPCM, SF, NACMEs, symmetry and pop. for TD-DFT,
                                                   nearIR, NL-DFT gradient (VV10), updates on ESD,
                                                   ML-optimized integration grids, MBIS, APM,
                                                   GOAT, DOCKER, SOLVATOR, interface openCOSMO-RS
   S Lehtola, MJT Oliveira, MAL Marques          : LibXC Library
   Liviu Ungur et al                             : ANISO software


 Your calculation uses the libint2 library for the computation of 2-el integrals
 For citations please refer to: http://libint.valeyev.net

 Your ORCA version has been built with support for libXC version: 6.2.2
 For citations please refer to: https://libxc.gitlab.io

 This ORCA versions uses:
   CBLAS   interface :  Fast vector & matrix operations
   LAPACKE interface :  Fast linear algebra routines
   SCALAPACK package :  Parallel linear algebra routines
   Shared memory     :  Shared parallel matrices
   BLAS/LAPACK       :  OpenBLAS 0.3.27  USE64BITINT DYNAMIC_ARCH NO_AFFINITY Zen SINGLE_THREADED
        Core in use  :  Zen
   Copyright (c) 2011-2014, The OpenBLAS Project


Your calculation utilizes the atom-pairwise dispersion correction
with the Becke-Johnson damping scheme (D3BJ)


Warning: RI is on but no J-basis has been assigned. Assigning Def2/J (nothing to worry about!)
================================================================================

----- Orbital basis set information -----
Your calculation utilizes the basis: def2-TZVPPD
   F. Weigend and R. Ahlrichs, Phys. Chem. Chem. Phys. 7, 3297 (2005).
   D. Rappoport and F. Furche, J. Chem. Phys. 133, 134105 (2010)
   D. Rappoport, J. Chem. Phys. 155, 124102 (2021).

----- AuxJ basis set information -----
Your calculation utilizes the auxiliary basis: def2/J
   F. Weigend, Phys. Chem. Chem. Phys. 8, 1057 (2006).

================================================================================
                                        WARNINGS
                       Please study these warnings very carefully!
================================================================================

Using LibXC functional ID 531 : wB97M-V exchange-correlation functional
[ 1]  N. Mardirossian and M. Head-Gordon.,  J. Chem. Phys. 144, 214110 (2016)
Using LibXC functional ID 531 : wB97M-V exchange-correlation functional
[ 1]  N. Mardirossian and M. Head-Gordon.,  J. Chem. Phys. 144, 214110 (2016)

WARNING: B97M-V or wB97M-V functional requested.
  ===> : libXC variant has now been activated.
         Any manually given DFX/HFX/RangeSep scaling parameters are IGNORED!

Your calculation utilizes LibXC
 by S Lehtola, C Steigemann, MJT Oliveira & MAL Marques
Please cite in your paper:
 S Lehtola, C Steigemann, MJT Oliveira & MAL Marques, SoftwareX, 7, (2018), 1.
   


WARNING: your system is open-shell and RHF/RKS was chosen
  ===> : WILL SWITCH to UHF/UKS

INFO   : Checking CIS options ...

WARNING: CIS/ROCIS methods need fully converged wavefunctions
  ===> : Setting SCFConvForced true
         You can overwrite this default with %scf ConvForced false 


================================================================================
                                       INPUT FILE
================================================================================
NAME = orca.inp
|  1> ! Engrad def2-TZVPPD wB97M-D3BJ 
|  2> %pal nprocs 8 end%pal nprocs 32 end 
|  3> %tddft Nroots 2 Iroot 2 
|  4> sf true 
|  5> end 
|  6> *xyz 0 3 
|  7> O   0.96927518 0.78423805 -0.33075483
|  8> C   0.23363343 0.13130615 0.594485
|  9> C   -0.83487325 -0.73685855 0.05581971
| 10> H   -0.25235971 0.82597737 1.31981003
| 11> H   0.7868181 -0.46511718 1.25659056
| 12> H   -1.18098326 -1.67608296 0.46804137
| 13> H   -1.28073112 -0.50317191 -0.94473482
| 14> *
| 15> 
| 16>                          ****END OF INPUT****
================================================================================

                     *******************************
                     * Energy+Gradient Calculation *
                     *******************************

---------------------------------
CARTESIAN COORDINATES (ANGSTROEM)
---------------------------------
  O      0.969275    0.784238   -0.330755
  C      0.233633    0.131306    0.594485
  C     -0.834873   -0.736859    0.055820
  H     -0.252360    0.825977    1.319810
  H      0.786818   -0.465117    1.256591
  H     -1.180983   -1.676083    0.468041
  H     -1.280731   -0.503172   -0.944735

----------------------------
CARTESIAN COORDINATES (A.U.)
----------------------------
  NO LB      ZA    FRAG     MASS         X           Y           Z
   0 O     8.0000    0    15.999    1.831665    1.481995   -0.625036
   1 C     6.0000    0    12.011    0.441503    0.248133    1.123414
   2 C     6.0000    0    12.011   -1.577682   -1.392461    0.105484
   3 H     1.0000    0     1.008   -0.476891    1.560871    2.494080
   4 H     1.0000    0     1.008    1.486871   -0.878944    2.374612
   5 H     1.0000    0     1.008   -2.231735   -3.167338    0.884470
   6 H     1.0000    0     1.008   -2.420231   -0.950857   -1.785290

--------------------------------
INTERNAL COORDINATES (ANGSTROEM)
--------------------------------
 O      0   0   0     0.000000000000     0.00000000     0.00000000
 C      1   0   0     1.350391644450     0.00000000     0.00000000
 C      2   1   0     1.478369631108   115.34216862     0.00000000
 H      2   1   3     1.115730180271   112.43682232   237.32077887
 H      2   1   3     1.048865024812   114.84374864   123.87309923
 H      3   2   1     1.082525440041   127.00199404   145.80434765
 H      3   2   1     1.120048237113   119.38518436   333.72316982

---------------------------
INTERNAL COORDINATES (A.U.)
---------------------------
 O      0   0   0     0.000000000000     0.00000000     0.00000000
 C      1   0   0     2.551870381545     0.00000000     0.00000000
 C      2   1   0     2.793713727500   115.34216862     0.00000000
 H      2   1   3     2.108424480063   112.43682232   237.32077887
 H      2   1   3     1.982067648343   114.84374864   123.87309923
 H      3   2   1     2.045676614679   127.00199404   145.80434765
 H      3   2   1     2.116584424924   119.38518436   333.72316982

---------------------
BASIS SET INFORMATION
---------------------
There are 3 groups of distinct atoms

 Group   1 Type O   : 12s7p3d1f contracted to 6s4p3d1f pattern {621111/4111/111/1}
 Group   2 Type C   : 12s6p3d1f contracted to 6s3p3d1f pattern {621111/411/111/1}
 Group   3 Type H   : 5s3p1d contracted to 3s3p1d pattern {311/111/1}

Atom   0O    basis set group =>   1
Atom   1C    basis set group =>   2
Atom   2C    basis set group =>   2
Atom   3H    basis set group =>   3
Atom   4H    basis set group =>   3
Atom   5H    basis set group =>   3
Atom   6H    basis set group =>   3
---------------------------------
AUXILIARY/J BASIS SET INFORMATION
---------------------------------
There are 3 groups of distinct atoms

 Group   1 Type O   : 12s5p4d2f1g contracted to 6s4p3d1f1g pattern {711111/2111/211/2/1}
 Group   2 Type C   : 12s5p4d2f1g contracted to 6s4p3d1f1g pattern {711111/2111/211/2/1}
 Group   3 Type H   : 5s2p1d contracted to 3s1p1d pattern {311/2/1}

Atom   0O    basis set group =>   1
Atom   1C    basis set group =>   2
Atom   2C    basis set group =>   2
Atom   3H    basis set group =>   3
Atom   4H    basis set group =>   3
Atom   5H    basis set group =>   3
Atom   6H    basis set group =>   3
[1741043521.610591] [ohm:321293:0]        ib_iface.c:1059 UCX  ERROR ibv_create_cq(cqe=256) failed: Connection timed out
[1741043521.610591] [ohm:321290:0]        ib_iface.c:1059 UCX  ERROR ibv_create_cq(cqe=256) failed: Connection timed out
[1741043521.610945] [ohm:321289:0]        ib_iface.c:1059 UCX  ERROR ibv_create_cq(cqe=256) failed: Connection timed out
[1741043521.611138] [ohm:321281:0]        ib_iface.c:1059 UCX  ERROR ibv_create_cq(cqe=256) failed: Connection timed out
[1741043521.612531] [ohm:321282:0]        ib_iface.c:1059 UCX  ERROR ibv_create_cq(cqe=256) failed: Connection timed out
[1741043521.613299] [ohm:321294:0]        ib_iface.c:1059 UCX  ERROR ibv_create_cq(cqe=256) failed: Connection timed out
[1741043521.633406] [ohm:321287:0]        ib_iface.c:1059 UCX  ERROR ibv_create_cq(cqe=256) failed: Connection timed out
[1741043521.633472] [ohm:321292:0]        ib_iface.c:1059 UCX  ERROR ibv_create_cq(cqe=256) failed: Connection timed out
[1741043521.633793] [ohm:321301:0]        ib_iface.c:1059 UCX  ERROR ibv_create_cq(cqe=256) failed: Connection timed out
[1741043521.673140] [ohm:321303:0]        ib_iface.c:1059 UCX  ERROR ibv_create_cq(cqe=256) failed: Connection timed out
[1741043521.674261] [ohm:321297:0]        ib_iface.c:1059 UCX  ERROR ibv_create_cq(cqe=256) failed: Connection timed out
[1741043521.674376] [ohm:321298:0]        ib_iface.c:1059 UCX  ERROR ibv_create_cq(cqe=256) failed: Connection timed out
[1741043521.674742] [ohm:321299:0]        ib_iface.c:1059 UCX  ERROR ibv_create_cq(cqe=256) failed: Connection timed out
[1741043521.674757] [ohm:321300:0]        ib_iface.c:1059 UCX  ERROR ibv_create_cq(cqe=256) failed: Connection timed out
[1741043521.676399] [ohm:321311:0]        ib_iface.c:1059 UCX  ERROR ibv_create_cq(cqe=256) failed: Connection timed out
[1741043521.681074] [ohm:321312:0]        ib_iface.c:1059 UCX  ERROR ibv_create_cq(cqe=256) failed: Connection timed out
[1741043521.681109] [ohm:321329:0]        ib_iface.c:1059 UCX  ERROR ibv_create_cq(cqe=256) failed: Connection timed out
[1741043521.682925] [ohm:321304:0]        ib_iface.c:1059 UCX  ERROR ibv_create_cq(cqe=256) failed: Connection timed out
[1741043521.683202] [ohm:321326:0]        ib_iface.c:1059 UCX  ERROR ibv_create_cq(cqe=256) failed: Connection timed out
[1741043521.685027] [ohm:321322:0]        ib_iface.c:1059 UCX  ERROR ibv_create_cq(cqe=256) failed: Connection timed out
[1741043521.685259] [ohm:321295:0]        ib_iface.c:1059 UCX  ERROR ibv_create_cq(cqe=256) failed: Connection timed out
[1741043521.686952] [ohm:321320:0]        ib_iface.c:1059 UCX  ERROR ibv_create_cq(cqe=256) failed: Connection timed out
[1741043521.687166] [ohm:321285:0]        ib_iface.c:1059 UCX  ERROR ibv_create_cq(cqe=256) failed: Connection timed out
[1741043521.687363] [ohm:321302:0]        ib_iface.c:1059 UCX  ERROR ibv_create_cq(cqe=256) failed: Connection timed out
[1741043521.688819] [ohm:321283:0]        ib_iface.c:1059 UCX  ERROR ibv_create_cq(cqe=256) failed: Connection timed out
[1741043521.689791] [ohm:321296:0]        ib_iface.c:1059 UCX  ERROR ibv_create_cq(cqe=256) failed: Connection timed out
[1741043521.689870] [ohm:321286:0]        ib_iface.c:1059 UCX  ERROR ibv_create_cq(cqe=256) failed: Connection timed out
[1741043521.690230] [ohm:321291:0]        ib_iface.c:1059 UCX  ERROR ibv_create_cq(cqe=256) failed: Connection timed out
[1741043521.691242] [ohm:321327:0]        ib_iface.c:1059 UCX  ERROR ibv_create_cq(cqe=256) failed: Connection timed out
[1741043521.691254] [ohm:321284:0]        ib_iface.c:1059 UCX  ERROR ibv_create_cq(cqe=256) failed: Connection timed out
[1741043521.691302] [ohm:321288:0]        ib_iface.c:1059 UCX  ERROR ibv_create_cq(cqe=256) failed: Connection timed out
[1741043521.691442] [ohm:321325:0]        ib_iface.c:1059 UCX  ERROR ibv_create_cq(cqe=256) failed: Connection timed out


           ************************************************************
           *        Program running with 32 parallel MPI-processes    *
           *              working on a common directory               *
           ************************************************************
------------------------------------------------------------------------------
                             ORCA STARTUP CALCULATIONS
                           -- RI-GTO INTEGRALS CHOSEN --
------------------------------------------------------------------------------
------------------------------------------------------------------------------
                   ___                                                        
                  /   \      - P O W E R E D   B Y -                         
                 /     \                                                     
                 |  |  |   _    _      __       _____    __    __             
                 |  |  |  | |  | |    /  \     |  _  \  |  |  /  |          
                  \  \/   | |  | |   /    \    | | | |  |  | /  /          
                 / \  \   | |__| |  /  /\  \   | |_| |  |  |/  /          
                |  |  |   |  __  | /  /__\  \  |    /   |      \           
                |  |  |   | |  | | |   __   |  |    \   |  |\   \          
                \     /   | |  | | |  |  |  |  | |\  \  |  | \   \       
                 \___/    |_|  |_| |__|  |__|  |_| \__\ |__|  \__/        
                                                                              
                      - O R C A' S   B I G   F R I E N D -                    
                                      &                                       
                       - I N T E G R A L  F E E D E R -                       
                                                                              
 v1 FN, 2020, v2 2021, v3 2022-2024                                           
------------------------------------------------------------------------------


----------------------
SHARK INTEGRAL PACKAGE
----------------------

Number of atoms                             ...      7
Number of basis functions                   ...    182
Number of shells                            ...     68
Maximum angular momentum                    ...      3
Integral batch strategy                     ... SHARK/LIBINT Hybrid
RI-J (if used) integral strategy            ... SPLIT-RIJ (Revised 2003 algorithm where possible)
Printlevel                                  ...      1
Contraction scheme used                     ... SEGMENTED contraction
Prescreening option                         ... SCHWARTZ
   Thresh                                   ... 2.500e-11
   Tcut                                     ... 2.500e-12
   Tpresel                                  ... 2.500e-12 
Coulomb Range Separation                    ... NOT USED
Exchange Range Separation                   ... Long Range
   Mu parameter                             ... 3.000e-01
   Scaling (regular/separated)              ... 1.500e-01 8.500e-01
Multipole approximations                    ... NOT USED
Finite Nucleus Model                        ... NOT USED
CABS basis                                  ... NOT available
Auxiliary Coulomb fitting basis             ... AVAILABLE
   # of basis functions in Aux-J            ...    191
   # of shells in Aux-J                     ...     65
   Maximum angular momentum in Aux-J        ...      4
Auxiliary J/K fitting basis                 ... NOT available
Auxiliary Correlation fitting basis         ... NOT available
Auxiliary 'external' fitting basis          ... NOT available

Checking pre-screening integrals            ... done (  0.0 sec) Dimension = 68
Check shell pair data                       ... done (  0.0 sec)
Shell pair information
Shell pair cut-off parameter TPreSel        ...   2.5e-12
Total number of shell pairs                 ...      2346
Shell pairs after pre-screening             ...      2328
Total number of primitive shell pairs       ...      5434
Primitive shell pairs kept                  ...      4820
          la=0 lb=0:    456 shell pairs
          la=1 lb=0:    656 shell pairs
          la=1 lb=1:    253 shell pairs
          la=2 lb=0:    386 shell pairs
          la=2 lb=1:    285 shell pairs
          la=2 lb=2:     91 shell pairs
          la=3 lb=0:     90 shell pairs
          la=3 lb=1:     66 shell pairs
          la=3 lb=2:     39 shell pairs
          la=3 lb=3:      6 shell pairs

Calculating one electron integrals          ... done (  0.0 sec)
Calculating RI/J V-Matrix + Cholesky decomp.... done (  0.0 sec)
Calculating Nuclear repulsion               ... done (  0.0 sec) ENN=     68.198697423319 Eh

Diagonalization of the overlap matrix:
Smallest eigenvalue                        ... 1.443e-05
Time for diagonalization                   ...    0.003 sec
Threshold for overlap eigenvalues          ... 1.000e-07
Number of eigenvalues below threshold      ... 0
Time for construction of square roots      ...    0.002 sec
Total time needed                          ...    0.006 sec

-------------------
DFT GRID GENERATION
-------------------

General Integration Accuracy     IntAcc      ... 4.388
Radial Grid Type                 RadialGrid  ... OptM3 with GC (2021)
Angular Grid (max. ang.)         AngularGrid ... 4 (Lebedev-302)
Angular grid pruning method      GridPruning ... 4 (adaptive)
Weight generation scheme         WeightScheme... mBecke (2022)
Basis function cutoff            BFCut       ... 1.0000e-11
Integration weight cutoff        WCut        ... 1.0000e-14
Partially contracted basis set               ... off
Rotationally invariant grid construction     ... off
Angular grids for H and He will be reduced by one unit
Diffuse basis detected: some atoms will have their outermost
                        angular grid increased by 1.

Total number of grid points                  ...    33154
Total number of batches                      ...      522
Average number of points per batch           ...       63
Average number of grid points per atom       ...     4736

--------------------
COSX GRID GENERATION
--------------------

GRIDX 1
-------
General Integration Accuracy     IntAcc      ... 3.816
Radial Grid Type                 RadialGrid  ... OptM3 with GC (2021)
Angular Grid (max. ang.)         AngularGrid ... 1 (Lebedev-50)
Angular grid pruning method      GridPruning ... 4 (adaptive)
Weight generation scheme         WeightScheme... mBecke (2022)
Basis function cutoff            BFCut       ... 1.0000e-11
Integration weight cutoff        WCut        ... 1.0000e-14
Partially contracted basis set               ... on
Rotationally invariant grid construction     ... off
Angular grids for H and He will be reduced by one unit
Diffuse basis detected: some atoms will have their outermost
                        angular grid increased by 1.

Total number of grid points                  ...     4156
Total number of batches                      ...       36
Average number of points per batch           ...      115
Average number of grid points per atom       ...      594
UseSFitting                                  ... on

GRIDX 2
-------
General Integration Accuracy     IntAcc      ... 4.020
Radial Grid Type                 RadialGrid  ... OptM3 with GC (2021)
Angular Grid (max. ang.)         AngularGrid ... 2 (Lebedev-110)
Angular grid pruning method      GridPruning ... 4 (adaptive)
Weight generation scheme         WeightScheme... mBecke (2022)
Basis function cutoff            BFCut       ... 1.0000e-11
Integration weight cutoff        WCut        ... 1.0000e-14
Partially contracted basis set               ... on
Rotationally invariant grid construction     ... off
Angular grids for H and He will be reduced by one unit
Diffuse basis detected: some atoms will have their outermost
                        angular grid increased by 1.

Total number of grid points                  ...    10291
Total number of batches                      ...       83
Average number of points per batch           ...      123
Average number of grid points per atom       ...     1470
UseSFitting                                  ... on

GRIDX 3
-------
General Integration Accuracy     IntAcc      ... 4.338
Radial Grid Type                 RadialGrid  ... OptM3 with GC (2021)
Angular Grid (max. ang.)         AngularGrid ... 3 (Lebedev-194)
Angular grid pruning method      GridPruning ... 4 (adaptive)
Weight generation scheme         WeightScheme... mBecke (2022)
Basis function cutoff            BFCut       ... 1.0000e-11
Integration weight cutoff        WCut        ... 1.0000e-14
Partially contracted basis set               ... on
Rotationally invariant grid construction     ... off
Angular grids for H and He will be reduced by one unit
Diffuse basis detected: some atoms will have their outermost
                        angular grid increased by 1.

Total number of grid points                  ...    23184
Total number of batches                      ...      185
Average number of points per batch           ...      125
Average number of grid points per atom       ...     3312
UseSFitting                                  ... on
Initializing property integral containers    ... done (  0.0 sec)

SHARK setup successfully completed in   0.3 seconds

Maximum memory used throughout the entire STARTUP-calculation: 13.8 MB
[1741043522.782054] [ohm:321449:0]        ib_iface.c:1059 UCX  ERROR ibv_create_cq(cqe=256) failed: Connection timed out
[1741043522.782052] [ohm:321453:0]        ib_iface.c:1059 UCX  ERROR ibv_create_cq(cqe=256) failed: Connection timed out
[1741043522.809220] [ohm:321466:0]        ib_iface.c:1059 UCX  ERROR ibv_create_cq(cqe=256) failed: Connection timed out
[1741043522.809220] [ohm:321459:0]        ib_iface.c:1059 UCX  ERROR ibv_create_cq(cqe=256) failed: Connection timed out
[1741043522.809289] [ohm:321450:0]        ib_iface.c:1059 UCX  ERROR ibv_create_cq(cqe=256) failed: Connection timed out
[1741043522.809290] [ohm:321456:0]        ib_iface.c:1059 UCX  ERROR ibv_create_cq(cqe=256) failed: Connection timed out
[1741043522.829210] [ohm:321462:0]        ib_iface.c:1059 UCX  ERROR ibv_create_cq(cqe=256) failed: Connection timed out
[1741043522.830118] [ohm:321455:0]        ib_iface.c:1059 UCX  ERROR ibv_create_cq(cqe=256) failed: Connection timed out
[1741043522.849940] [ohm:321486:0]        ib_iface.c:1059 UCX  ERROR ibv_create_cq(cqe=256) failed: Connection timed out
[1741043522.850229] [ohm:321495:0]        ib_iface.c:1059 UCX  ERROR ibv_create_cq(cqe=256) failed: Connection timed out
[1741043522.858549] [ohm:321458:0]        ib_iface.c:1059 UCX  ERROR ibv_create_cq(cqe=256) failed: Connection timed out
[1741043522.858583] [ohm:321451:0]        ib_iface.c:1059 UCX  ERROR ibv_create_cq(cqe=256) failed: Connection timed out
[1741043522.867006] [ohm:321470:0]        ib_iface.c:1059 UCX  ERROR ibv_create_cq(cqe=256) failed: Connection timed out
[1741043522.869464] [ohm:321503:0]        ib_iface.c:1059 UCX  ERROR ibv_create_cq(cqe=256) failed: Connection timed out
[1741043522.874302] [ohm:321499:0]        ib_iface.c:1059 UCX  ERROR ibv_create_cq(cqe=256) failed: Connection timed out
[1741043522.875363] [ohm:321465:0]        ib_iface.c:1059 UCX  ERROR ibv_create_cq(cqe=256) failed: Connection timed out
[1741043522.876832] [ohm:321473:0]        ib_iface.c:1059 UCX  ERROR ibv_create_cq(cqe=256) failed: Connection timed out
[1741043522.877537] [ohm:321504:0]        ib_iface.c:1059 UCX  ERROR ibv_create_cq(cqe=256) failed: Connection timed out
[1741043522.878957] [ohm:321480:0]        ib_iface.c:1059 UCX  ERROR ibv_create_cq(cqe=256) failed: Connection timed out
[1741043522.879012] [ohm:321471:0]        ib_iface.c:1059 UCX  ERROR ibv_create_cq(cqe=256) failed: Connection timed out
[1741043522.879609] [ohm:321457:0]        ib_iface.c:1059 UCX  ERROR ibv_create_cq(cqe=256) failed: Connection timed out
[1741043522.880452] [ohm:321469:0]        ib_iface.c:1059 UCX  ERROR ibv_create_cq(cqe=256) failed: Connection timed out
[1741043522.881991] [ohm:321460:0]        ib_iface.c:1059 UCX  ERROR ibv_create_cq(cqe=256) failed: Connection timed out
[1741043522.883036] [ohm:321461:0]        ib_iface.c:1059 UCX  ERROR ibv_create_cq(cqe=256) failed: Connection timed out
[1741043522.883351] [ohm:321468:0]        ib_iface.c:1059 UCX  ERROR ibv_create_cq(cqe=256) failed: Connection timed out
[1741043522.883922] [ohm:321452:0]        ib_iface.c:1059 UCX  ERROR ibv_create_cq(cqe=256) failed: Connection timed out
[1741043522.883983] [ohm:321463:0]        ib_iface.c:1059 UCX  ERROR ibv_create_cq(cqe=256) failed: Connection timed out
[1741043522.884797] [ohm:321464:0]        ib_iface.c:1059 UCX  ERROR ibv_create_cq(cqe=256) failed: Connection timed out
[1741043522.884799] [ohm:321472:0]        ib_iface.c:1059 UCX  ERROR ibv_create_cq(cqe=256) failed: Connection timed out
[1741043522.884877] [ohm:321488:0]        ib_iface.c:1059 UCX  ERROR ibv_create_cq(cqe=256) failed: Connection timed out
[1741043522.885184] [ohm:321454:0]        ib_iface.c:1059 UCX  ERROR ibv_create_cq(cqe=256) failed: Connection timed out
[1741043522.885352] [ohm:321467:0]        ib_iface.c:1059 UCX  ERROR ibv_create_cq(cqe=256) failed: Connection timed out


           ************************************************************
           *        Program running with 32 parallel MPI-processes    *
           *              working on a common directory               *
           ************************************************************
-------------------------------------------------------------------------------
                                 ORCA GUESS
                   Start orbitals & Density for SCF / CASSCF
-------------------------------------------------------------------------------

------------
SCF SETTINGS
------------
Hamiltonian:
 Density Functional     Method          .... DFT(GTOs)
  Functional kind                       .... Exchange-Correlation
  Functional name                       .... wB97M-V exchange-correlation functional
  Functional family                     .... Hybrid MGGA
  Functional refs                              
    [ 0] N. Mardirossian and M. Head-Gordon.,  J. Chem. Phys. 144, 214110 (2016), doi: 10.1063/1.4952647
  Fraction of HF Exchange (short range) .... 0.1500
  Fraction of HF Exchange (long range)  .... 1.0000
  Range separation parameter mu         .... 0.3000
  Functional external parameters        .... 17
    Parameter  0 _cx00      =  8.500000e-01 : u^00 coefficient for exchange
    Parameter  1 _cx01      =  1.007000e+00 : u^01 coefficient for exchange
    Parameter  2 _cx10      =  2.590000e-01 : u^10 coefficient for exchange
    Parameter  3 _css00     =  4.430000e-01 : u^00 coefficient for same-spin correlation
    Parameter  4 _css04     = -1.437000e+00 : u^04 coefficient for same-spin correlation
    Parameter  5 _css10     = -4.535000e+00 : u^10 coefficient for same-spin correlation
    Parameter  6 _css20     = -3.390000e+00 : u^20 coefficient for same-spin correlation
    Parameter  7 _css43     =  4.278000e+00 : u^43 coefficient for same-spin correlation
    Parameter  8 _cos00     =  1.000000e+00 : u^00 coefficient for opposite-spin correlation
    Parameter  9 _cos10     =  1.358000e+00 : u^10 coefficient for opposite-spin correlation
    Parameter 10 _cos20     =  2.924000e+00 : u^20 coefficient for opposite-spin correlation
    Parameter 11 _cos21     = -8.812000e+00 : u^21 coefficient for opposite-spin correlation
    Parameter 12 _cos60     = -1.390000e+00 : u^60 coefficient for opposite-spin correlation
    Parameter 13 _cos61     =  9.142000e+00 : u^61 coefficient for opposite-spin correlation
    Parameter 14 _alpha     =  1.000000e+00 : fraction of HF exchange
    Parameter 15 _beta      = -8.500000e-01 : fraction of short-range exchange
    Parameter 16 _omega     =  3.000000e-01 : range-separation constant
 Long-range corrected/Screened/Range-Separated Hybrid DFT is turned on
   Amount of maximum screened exact exchange              ....  0.850000
   Range separation parameter mu (erf(mu*r12)/r12)        ....  0.300000
 RI-approximation to the Coulomb term is turned on
   Number of AuxJ basis functions       .... 191
   RIJ-COSX (HFX calculated with COS-X)).... on


General Settings:
 Integral files         IntName         .... orca
 Hartree-Fock type      HFTyp           .... UHF
 Total Charge           Charge          ....    0
 Multiplicity           Mult            ....    3
 Number of Electrons    NEL             ....   24
 Basis Dimension        Dim             ....  182
 Nuclear Repulsion      ENuc            ....     68.1986974233 Eh

Convergence Acceleration:
 AO-DIIS                CNVDIIS         .... on
   Start iteration      DIISMaxIt       ....    12
   Startup error        DIISStart       ....  0.200000
   # of expansion vecs  DIISMaxEq       ....     5
   Bias factor          DIISBfac        ....   1.050
   Max. coefficient     DIISMaxC        ....  10.000
 MO-DIIS                CNVKDIIS        .... off
 Trust-Rad. Augm. Hess. CNVTRAH         .... auto
   Auto Start mean grad. ratio tolernc. ....  1.125000
   Auto Start start iteration           ....    50
   Auto Start num. interpolation iter.  ....    10
   Max. Number of Micro iterations      ....    24
   Max. Number of Macro iterations      .... Maxiter - #DIIS iter
   Number of Davidson start vectors     ....     2
   Converg. threshold    (grad. norm)   ....   1.000e-05
   Grad. Scal. Fac. for Micro threshold ....   0.100
   Minimum threshold for Micro iter.    ....   1.000e-02
   NR start threshold (gradient norm)   ....   1.000e-04
   Initial trust radius                 ....   0.400
   Minimum AH scaling param. (alpha)    ....   1.000
   Maximum AH scaling param. (alpha)    .... 1000.000
   Quad. conv. algorithm                .... NR
   White noise on init. David. guess    .... on
   Maximum white noise                  ....   0.010
   Pseudo random numbers                .... off
   Inactive MOs                         .... canonical
   Orbital update algorithm             .... Taylor
   Preconditioner                       .... Diag
   Full preconditioner red. dimension   ....   250
 SOSCF                  CNVSOSCF        .... on
   Start iteration      SOSCFMaxIt      ....   150
   Startup grad/error   SOSCFStart      ....  0.003300
   Hessian update       SOSCFHessUp     .... L-BFGS
 Level Shifting         CNVShift        .... on
   Level shift para.    LevelShift      ....    0.2500
   Turn off err/grad.   ShiftErr        ....    0.0010
 Zerner damping         CNVZerner       .... off
 Static damping         CNVDamp         .... on
   Fraction old density DampFac         ....    0.7000
   Max. Damping (<1)    DampMax         ....    0.9800
   Min. Damping (>=0)   DampMin         ....    0.0000
   Turn off err/grad.   DampErr         ....    0.1000

SCF Procedure:
 Maximum # iterations   MaxIter         ....   125
 SCF integral mode      SCFMode         .... Direct
   Integral package                     .... SHARK and LIBINT hybrid scheme
 Reset frequency        DirectResetFreq ....    20
 Integral Threshold     Thresh          ....  2.500e-11 Eh
 Primitive CutOff       TCut            ....  2.500e-12 Eh

Convergence Tolerance:
 Convergence Check Mode ConvCheckMode   .... Total+1el-Energy
 Convergence forced     ConvForced      .... 1
 Energy Change          TolE            ....  1.000e-08 Eh
 1-El. energy change                    ....  1.000e-05 Eh
 Orbital Gradient       TolG            ....  1.000e-05
 Orbital Rotation angle TolX            ....  1.000e-05
 DIIS Error             TolErr          ....  5.000e-07

------------------------------
INITIAL GUESS: MODEL POTENTIAL
------------------------------
Loading Hartree-Fock densities                     ... done
Calculating cut-offs                               ... done
Initializing the effective Hamiltonian             ... done
Setting up the integral package (SHARK)            ... done
Starting the Coulomb interaction                   ... done (   0.0 sec)
Making the grid                                    ... done (   0.0 sec)
Mapping shells                                     ... done
Starting the XC term evaluation                    ... done (   0.0 sec)
  promolecular density results
     # of electrons  =     23.998467868
     EX              =    -19.470339883
     EC              =     -0.766404676
     EX+EC           =    -20.236744558
Transforming the Hamiltonian                       ... done (   0.0 sec)
Diagonalizing the Hamiltonian                      ... done (   0.0 sec)
Back transforming the eigenvectors                 ... done (   0.0 sec)
Now organizing SCF variables                       ... done
                      ------------------
                      INITIAL GUESS DONE (   0.1 sec)
                      ------------------
             **** ENERGY FILE WAS UPDATED (orca.en.tmp) ****
Finished Guess after   0.7 sec
Maximum memory used throughout the entire GUESS-calculation: 9.6 MB
[1741043523.787229] [ohm:321631:0]        ib_iface.c:1059 UCX  ERROR ibv_create_cq(cqe=256) failed: Connection timed out
[1741043523.787246] [ohm:321635:0]        ib_iface.c:1059 UCX  ERROR ibv_create_cq(cqe=256) failed: Connection timed out
[1741043523.792612] [ohm:321638:0]        ib_iface.c:1059 UCX  ERROR ibv_create_cq(cqe=256) failed: Connection timed out
[1741043523.795149] [ohm:321628:0]        ib_iface.c:1059 UCX  ERROR ibv_create_cq(cqe=256) failed: Connection timed out
[1741043523.806759] [ohm:321650:0]        ib_iface.c:1059 UCX  ERROR ibv_create_cq(cqe=256) failed: Connection timed out
[1741043523.829512] [ohm:321643:0]        ib_iface.c:1059 UCX  ERROR ibv_create_cq(cqe=256) failed: Connection timed out
[1741043523.832624] [ohm:321629:0]        ib_iface.c:1059 UCX  ERROR ibv_create_cq(cqe=256) failed: Connection timed out
[1741043523.832628] [ohm:321636:0]        ib_iface.c:1059 UCX  ERROR ibv_create_cq(cqe=256) failed: Connection timed out
[1741043523.833171] [ohm:321630:0]        ib_iface.c:1059 UCX  ERROR ibv_create_cq(cqe=256) failed: Connection timed out
[1741043523.835919] [ohm:321646:0]        ib_iface.c:1059 UCX  ERROR ibv_create_cq(cqe=256) failed: Connection timed out
[1741043523.847472] [ohm:321632:0]        ib_iface.c:1059 UCX  ERROR ibv_create_cq(cqe=256) failed: Connection timed out
[1741043523.849458] [ohm:321639:0]        ib_iface.c:1059 UCX  ERROR ibv_create_cq(cqe=256) failed: Connection timed out
[1741043523.855021] [ohm:321647:0]        ib_iface.c:1059 UCX  ERROR ibv_create_cq(cqe=256) failed: Connection timed out
[1741043523.855061] [ohm:321671:0]        ib_iface.c:1059 UCX  ERROR ibv_create_cq(cqe=256) failed: Connection timed out
[1741043523.855275] [ohm:321674:0]        ib_iface.c:1059 UCX  ERROR ibv_create_cq(cqe=256) failed: Connection timed out
[1741043523.855743] [ohm:321676:0]        ib_iface.c:1059 UCX  ERROR ibv_create_cq(cqe=256) failed: Connection timed out
[1741043523.855748] [ohm:321682:0]        ib_iface.c:1059 UCX  ERROR ibv_create_cq(cqe=256) failed: Connection timed out
[1741043523.855979] [ohm:321660:0]        ib_iface.c:1059 UCX  ERROR ibv_create_cq(cqe=256) failed: Connection timed out
[1741043523.857701] [ohm:321654:0]        ib_iface.c:1059 UCX  ERROR ibv_create_cq(cqe=256) failed: Connection timed out
[1741043523.863665] [ohm:321642:0]        ib_iface.c:1059 UCX  ERROR ibv_create_cq(cqe=256) failed: Connection timed out
[1741043523.865673] [ohm:321664:0]        ib_iface.c:1059 UCX  ERROR ibv_create_cq(cqe=256) failed: Connection timed out
[1741043523.866416] [ohm:321637:0]        ib_iface.c:1059 UCX  ERROR ibv_create_cq(cqe=256) failed: Connection timed out
[1741043523.867304] [ohm:321640:0]        ib_iface.c:1059 UCX  ERROR ibv_create_cq(cqe=256) failed: Connection timed out
[1741043523.867937] [ohm:321633:0]        ib_iface.c:1059 UCX  ERROR ibv_create_cq(cqe=256) failed: Connection timed out
[1741043523.867951] [ohm:321645:0]        ib_iface.c:1059 UCX  ERROR ibv_create_cq(cqe=256) failed: Connection timed out
[1741043523.868080] [ohm:321644:0]        ib_iface.c:1059 UCX  ERROR ibv_create_cq(cqe=256) failed: Connection timed out
[1741043523.868107] [ohm:321649:0]        ib_iface.c:1059 UCX  ERROR ibv_create_cq(cqe=256) failed: Connection timed out
[1741043523.868480] [ohm:321651:0]        ib_iface.c:1059 UCX  ERROR ibv_create_cq(cqe=256) failed: Connection timed out
[1741043523.868555] [ohm:321652:0]        ib_iface.c:1059 UCX  ERROR ibv_create_cq(cqe=256) failed: Connection timed out
[1741043523.868912] [ohm:321641:0]        ib_iface.c:1059 UCX  ERROR ibv_create_cq(cqe=256) failed: Connection timed out
[1741043523.869058] [ohm:321634:0]        ib_iface.c:1059 UCX  ERROR ibv_create_cq(cqe=256) failed: Connection timed out
[1741043523.869245] [ohm:321648:0]        ib_iface.c:1059 UCX  ERROR ibv_create_cq(cqe=256) failed: Connection timed out


           ************************************************************
           *        Program running with 32 parallel MPI-processes    *
           *              working on a common directory               *
           ************************************************************

-------------------------------------------------------------------------------------------
                                      ORCA LEAN-SCF
                              memory conserving SCF solver
-------------------------------------------------------------------------------------------

----------------------------------------D-I-I-S--------------------------------------------
Iteration    Energy (Eh)           Delta-E    RMSDP     MaxDP     DIISErr   Damp  Time(sec)
-------------------------------------------------------------------------------------------
               ***  Starting incremental Fock matrix formation  ***
    1    -153.7106227986616602     0.00e+00  8.49e-04  2.43e-02  6.27e-02  0.700   0.3
    2    -153.7352041436781178    -2.46e-02  7.50e-04  2.02e-02  3.62e-02  0.700   0.3
                               ***Turning on AO-DIIS***
    3    -153.7490894269377861    -1.39e-02  6.01e-04  1.75e-02  2.15e-02  0.700   0.2
    4    -153.7577660391147276    -8.68e-03  1.49e-03  4.54e-02  1.76e-02  0.000   0.2
    5    -153.7781209573304579    -2.04e-02  1.43e-04  4.87e-03  6.40e-03  0.000   0.2
    6    -153.7785690459117802    -4.48e-04  8.86e-05  1.99e-03  3.78e-03  0.000   0.2
                              *** Initializing SOSCF ***
---------------------------------------S-O-S-C-F--------------------------------------
Iteration    Energy (Eh)           Delta-E    RMSDP     MaxDP     MaxGrad    Time(sec)
--------------------------------------------------------------------------------------
    7    -153.7787723919981602    -2.03e-04  4.72e-05  1.00e-03  2.59e-03     0.3
               *** Restarting incremental Fock matrix formation ***
    8    -153.7788596106331056    -8.72e-05  2.40e-05  6.11e-04  1.56e-03     0.3
    9    -153.7788807600536245    -2.11e-05  3.16e-05  6.25e-04  9.13e-04     0.2
   10    -153.7788903729550327    -9.61e-06  1.12e-05  3.98e-04  4.36e-04     0.2
   11    -153.7788921870825902    -1.81e-06  5.64e-06  1.67e-04  3.07e-04     0.2
   12    -153.7788932130639523    -1.03e-06  3.19e-05  1.10e-03  3.01e-04     0.2
   13    -153.7788975879677480    -4.37e-06  5.56e-05  2.04e-03  2.68e-04     0.2
   14    -153.7789031340819577    -5.55e-06  8.28e-05  2.97e-03  2.77e-04     0.2
   15    -153.7789094966219920    -6.36e-06  6.24e-05  2.13e-03  3.50e-04     0.2
   16    -153.7789133135023860    -3.82e-06  1.97e-05  6.06e-04  2.34e-04     0.2
   17    -153.7789144989667136    -1.19e-06  4.47e-06  1.48e-04  1.24e-04     0.2
   18    -153.7789147187284868    -2.20e-07  3.25e-06  1.19e-04  5.33e-05     0.2
   19    -153.7789147692490701    -5.05e-08  1.04e-06  2.48e-05  2.07e-05     0.2
   20    -153.7789147778456993    -8.60e-09  6.84e-07  2.49e-05  6.60e-06     0.2
                 **** Energy Check signals convergence ****

               *****************************************************
               *                     SUCCESS                       *
               *           SCF CONVERGED AFTER  20 CYCLES          *
               *****************************************************

Recomputing exchange energy using gridx3       ... done (    0.259 sec)
Old exchange energy                            :     -6.200334046 Eh
New exchange energy                            :     -6.200337368 Eh
Exchange energy change after final integration :     -0.000003322 Eh
Total energy after final integration           :   -153.778918100 Eh
             **** ENERGY FILE WAS UPDATED (orca.en.tmp) ****

----------------
TOTAL SCF ENERGY
----------------

Total Energy       :       -153.77891810033458 Eh           -4184.53710 eV

Components:
Nuclear Repulsion  :         68.19869742331863 Eh            1855.78090 eV
Electronic Energy  :       -221.97761220116433 Eh           -6040.31791 eV
One Electron Energy:       -342.88883747585527 Eh           -9330.47962 eV
Two Electron Energy:        120.91122527469093 Eh            3290.16171 eV

Virial components:
Potential Energy   :       -307.11938983542217 Eh           -8357.14347 eV
Kinetic Energy     :        153.34047173508759 Eh            4172.60637 eV
Virial Ratio       :          2.00285929970272

DFT components:
N(Alpha)           :       12.999997261686 electrons
N(Beta)            :       10.999985382559 electrons
N(Total)           :       23.999982644246 electrons
E(XC)              :      -14.705836189128 Eh       

---------------
SCF CONVERGENCE
---------------

  Last Energy change         ...    8.5966e-09  Tolerance :   1.0000e-08
  Last MAX-Density change    ...    2.4881e-05  Tolerance :   1.0000e-07
  Last RMS-Density change    ...    6.8377e-07  Tolerance :   5.0000e-09
  Last DIIS Error            ...    2.5875e-03  Tolerance :   5.0000e-07
  Last Orbital Gradient      ...    6.6025e-06  Tolerance :   1.0000e-05
  Last Orbital Rotation      ...    1.6110e-04  Tolerance :   1.0000e-05


----------------------
UHF SPIN CONTAMINATION
----------------------

Warning: in a DFT calculation there is little theoretical justification to 
         calculate <S**2> as in Hartree-Fock theory. We will do it anyways
         but you should keep in mind that the values have only limited relevance

Expectation value of <S**2>     :     2.008038
Ideal value S*(S+1) for S=1.0   :     2.000000
Deviation                       :     0.008038

----------------
ORBITAL ENERGIES
----------------
                 SPIN UP ORBITALS
  NO   OCC          E(Eh)            E(eV) 
   0   1.0000     -19.394232      -527.7439 
   1   1.0000     -10.410642      -283.2880 
   2   1.0000     -10.365448      -282.0582 
   3   1.0000      -1.178368       -32.0650 
   4   1.0000      -0.881230       -23.9795 
   5   1.0000      -0.738217       -20.0879 
   6   1.0000      -0.614658       -16.7257 
   7   1.0000      -0.598298       -16.2805 
   8   1.0000      -0.561852       -15.2888 
   9   1.0000      -0.502687       -13.6788 
  10   1.0000      -0.450345       -12.2545 
  11   1.0000      -0.417816       -11.3693 
  12   1.0000      -0.315782        -8.5929 
  13   0.0000       0.040230         1.0947 
  14   0.0000       0.060031         1.6335 
  15   0.0000       0.080218         2.1829 
  16   0.0000       0.084683         2.3043 
  17   0.0000       0.109100         2.9688 
  18   0.0000       0.126837         3.4514 
  19   0.0000       0.134011         3.6466 
  20   0.0000       0.142515         3.8780 
  21   0.0000       0.174987         4.7616 
  22   0.0000       0.193563         5.2671 
  23   0.0000       0.201531         5.4839 

                 SPIN DOWN ORBITALS
  NO   OCC          E(Eh)            E(eV) 
   0   1.0000     -19.371118      -527.1149 
   1   1.0000     -10.412037      -283.3259 
   2   1.0000     -10.352090      -281.6947 
   3   1.0000      -1.126081       -30.6422 
   4   1.0000      -0.849896       -23.1268 
   5   1.0000      -0.710311       -19.3285 
   6   1.0000      -0.586331       -15.9549 
   7   1.0000      -0.550944       -14.9920 
   8   1.0000      -0.537531       -14.6270 
   9   1.0000      -0.485388       -13.2081 
  10   1.0000      -0.388582       -10.5739 
  11   0.0000      -0.061729        -1.6797 
  12   0.0000       0.005973         0.1625 
  13   0.0000       0.039375         1.0715 
  14   0.0000       0.059993         1.6325 
  15   0.0000       0.080248         2.1836 
  16   0.0000       0.085783         2.3343 
  17   0.0000       0.110400         3.0041 
  18   0.0000       0.128072         3.4850 
  19   0.0000       0.137898         3.7524 
  20   0.0000       0.143849         3.9143 
  21   0.0000       0.178657         4.8615 
*Only the first 10 virtual orbitals were printed.

                    ********************************
                    * MULLIKEN POPULATION ANALYSIS *
                    ********************************

--------------------------------------------
MULLIKEN ATOMIC CHARGES AND SPIN POPULATIONS
--------------------------------------------
   0 O :   -0.342025    0.896717
   1 C :    0.061848    0.015567
   2 C :   -0.629282    0.878226
   3 H :    0.196595    0.123831
   4 H :    0.202911    0.053352
   5 H :    0.260987    0.017071
   6 H :    0.248966    0.015236
Sum of atomic charges         :    0.0000000
Sum of atomic spin populations:    2.0000000

-----------------------------------------------------
MULLIKEN REDUCED ORBITAL CHARGES AND SPIN POPULATIONS
-----------------------------------------------------
CHARGE
  0 O s       :     4.014039  s :     4.014039
      pz      :     1.546943  p :     4.304086
      px      :     1.628413
      py      :     1.128731
      dz2     :     0.003944  d :     0.022598
      dxz     :     0.006208
      dyz     :     0.004929
      dx2y2   :     0.004353
      dxy     :     0.003163
      f0      :     0.000152  f :     0.001302
      f+1     :     0.000289
      f-1     :     0.000153
      f+2     :     0.000230
      f-2     :     0.000314
      f+3     :     0.000095
      f-3     :     0.000070

  1 C s       :     3.182512  s :     3.182512
      pz      :     0.809600  p :     2.566242
      px      :     0.847731
      py      :     0.908911
      dz2     :     0.030424  d :     0.178596
      dxz     :     0.023834
      dyz     :     0.060437
      dx2y2   :     0.036410
      dxy     :     0.027491
      f0      :     0.001471  f :     0.010802
      f+1     :     0.001816
      f-1     :     0.001527
      f+2     :     0.001751
      f-2     :     0.002148
      f+3     :     0.001048
      f-3     :     0.001041

  2 C s       :     3.583186  s :     3.583186
      pz      :     1.087235  p :     3.018047
      px      :     0.910610
      py      :     1.020202
      dz2     :     0.004673  d :     0.024120
      dxz     :    -0.001450
      dyz     :     0.002104
      dx2y2   :     0.008404
      dxy     :     0.010389
      f0      :     0.000308  f :     0.003929
      f+1     :     0.000647
      f-1     :     0.000338
      f+2     :     0.000488
      f-2     :     0.000619
      f+3     :     0.000891
      f-3     :     0.000637

  3 H s       :     0.773676  s :     0.773676
      pz      :     0.005993  p :     0.027132
      px      :     0.008989
      py      :     0.012149
      dz2     :     0.000582  d :     0.002598
      dxz     :     0.000579
      dyz     :     0.000461
      dx2y2   :     0.000438
      dxy     :     0.000538

  4 H s       :     0.754005  s :     0.754005
      pz      :     0.009794  p :     0.040171
      px      :     0.014055
      py      :     0.016322
      dz2     :     0.000652  d :     0.002912
      dxz     :     0.000491
      dyz     :     0.000615
      dx2y2   :     0.000620
      dxy     :     0.000535

  5 H s       :     0.695246  s :     0.695246
      pz      :     0.012847  p :     0.041637
      px      :     0.013656
      py      :     0.015133
      dz2     :     0.000318  d :     0.002130
      dxz     :     0.000192
      dyz     :     0.000508
      dx2y2   :     0.000559
      dxy     :     0.000554

  6 H s       :     0.713579  s :     0.713579
      pz      :     0.012124  p :     0.035213
      px      :     0.010832
      py      :     0.012258
      dz2     :     0.000736  d :     0.002242
      dxz     :     0.000635
      dyz     :     0.000558
      dx2y2   :     0.000151
      dxy     :     0.000162


SPIN
  0 O s       :    -0.000377  s :    -0.000377
      pz      :     0.102433  p :     0.901476
      px      :     0.126358
      py      :     0.672686
      dz2     :    -0.000382  d :    -0.004189
      dxz     :    -0.001278
      dyz     :    -0.001351
      dx2y2   :    -0.000900
      dxy     :    -0.000276
      f0      :    -0.000004  f :    -0.000194
      f+1     :     0.000017
      f-1     :    -0.000060
      f+2     :    -0.000013
      f-2     :    -0.000075
      f+3     :    -0.000024
      f-3     :    -0.000034

  1 C s       :     0.006834  s :     0.006834
      pz      :    -0.032831  p :    -0.081737
      px      :    -0.027408
      py      :    -0.021498
      dz2     :     0.002242  d :     0.087781
      dxz     :     0.014809
      dyz     :     0.040321
      dx2y2   :     0.027147
      dxy     :     0.003262
      f0      :     0.000118  f :     0.002689
      f+1     :     0.000522
      f-1     :     0.000051
      f+2     :     0.000869
      f-2     :     0.000192
      f+3     :     0.000731
      f-3     :     0.000206

  2 C s       :    -0.021929  s :    -0.021929
      pz      :     0.213052  p :     0.910822
      px      :     0.460135
      py      :     0.237634
      dz2     :    -0.000705  d :    -0.009616
      dxz     :    -0.003576
      dyz     :    -0.004781
      dx2y2   :     0.002255
      dxy     :    -0.002809
      f0      :    -0.000053  f :    -0.001051
      f+1     :    -0.000264
      f-1     :    -0.000083
      f+2     :    -0.000091
      f-2     :    -0.000129
      f+3     :    -0.000279
      f-3     :    -0.000153

  3 H s       :     0.114788  s :     0.114788
      pz      :     0.002625  p :     0.008903
      px      :     0.004599
      py      :     0.001680
      dz2     :     0.000004  d :     0.000139
      dxz     :     0.000040
      dyz     :     0.000051
      dx2y2   :     0.000003
      dxy     :     0.000042

  4 H s       :     0.049766  s :     0.049766
      pz      :     0.001350  p :     0.003589
      px      :     0.001044
      py      :     0.001194
      dz2     :    -0.000043  d :    -0.000003
      dxz     :     0.000019
      dyz     :     0.000033
      dx2y2   :    -0.000014
      dxy     :     0.000002

  5 H s       :    -0.009343  s :    -0.009343
      pz      :     0.007559  p :     0.025397
      px      :     0.011291
      py      :     0.006546
      dz2     :     0.000122  d :     0.001017
      dxz     :     0.000176
      dyz     :     0.000121
      dx2y2   :     0.000365
      dxy     :     0.000233

  6 H s       :    -0.006658  s :    -0.006658
      pz      :     0.004739  p :     0.020943
      px      :     0.007536
      py      :     0.008667
      dz2     :     0.000385  d :     0.000951
      dxz     :     0.000213
      dyz     :     0.000188
      dx2y2   :     0.000050
      dxy     :     0.000115



                     *******************************
                     * LOEWDIN POPULATION ANALYSIS *
                     *******************************

-------------------------------------------
LOEWDIN ATOMIC CHARGES AND SPIN POPULATIONS
-------------------------------------------
   0 O :    0.081530    0.829387
   1 C :   -0.269479    0.225210
   2 C :    0.238899    0.677693
   3 H :    0.055149    0.090222
   4 H :   -0.018270    0.025312
   5 H :   -0.061516    0.084041
   6 H :   -0.026313    0.068134

----------------------------------------------------
LOEWDIN REDUCED ORBITAL CHARGES AND SPIN POPULATIONS
----------------------------------------------------
CHARGE
  0 O s       :     3.462242  s :     3.462242
      pz      :     1.521983  p :     4.193597
      px      :     1.562454
      py      :     1.109160
      dz2     :     0.062896  d :     0.258405
      dxz     :     0.056353
      dyz     :     0.054195
      dx2y2   :     0.038354
      dxy     :     0.046606
      f0      :     0.000499  f :     0.004226
      f+1     :     0.000774
      f-1     :     0.000613
      f+2     :     0.000841
      f-2     :     0.000827
      f+3     :     0.000335
      f-3     :     0.000337

  1 C s       :     2.636593  s :     2.636593
      pz      :     0.851104  p :     2.611824
      px      :     0.880651
      py      :     0.880069
      dz2     :     0.165755  d :     0.932525
      dxz     :     0.204822
      dyz     :     0.213089
      dx2y2   :     0.138369
      dxy     :     0.210489
      f0      :     0.014604  f :     0.088538
      f+1     :     0.014840
      f-1     :     0.013162
      f+2     :     0.011777
      f-2     :     0.015254
      f+3     :     0.009410
      f-3     :     0.009491

  2 C s       :     2.738378  s :     2.738378
      pz      :     0.901264  p :     2.605300
      px      :     0.809863
      py      :     0.894174
      dz2     :     0.060615  d :     0.394508
      dxz     :     0.086359
      dyz     :     0.072037
      dx2y2   :     0.096393
      dxy     :     0.079104
      f0      :     0.002041  f :     0.022915
      f+1     :     0.003683
      f-1     :     0.002026
      f+2     :     0.003309
      f-2     :     0.003535
      f+3     :     0.004880
      f-3     :     0.003442

  3 H s       :     0.658522  s :     0.658522
      pz      :     0.085545  p :     0.257488
      px      :     0.079471
      py      :     0.092472
      dz2     :     0.006601  d :     0.028841
      dxz     :     0.005497
      dyz     :     0.006906
      dx2y2   :     0.004037
      dxy     :     0.005801

  4 H s       :     0.690109  s :     0.690109
      pz      :     0.097262  p :     0.291866
      px      :     0.092886
      py      :     0.101718
      dz2     :     0.007971  d :     0.036295
      dxz     :     0.007425
      dyz     :     0.007865
      dx2y2   :     0.006319
      dxy     :     0.006714

  5 H s       :     0.733451  s :     0.733451
      pz      :     0.093375  p :     0.297032
      px      :     0.080753
      py      :     0.122904
      dz2     :     0.004662  d :     0.031033
      dxz     :     0.002455
      dyz     :     0.007851
      dx2y2   :     0.008153
      dxy     :     0.007912

  6 H s       :     0.721346  s :     0.721346
      pz      :     0.122850  p :     0.277486
      px      :     0.079202
      py      :     0.075435
      dz2     :     0.009481  d :     0.027481
      dxz     :     0.007993
      dyz     :     0.006684
      dx2y2   :     0.001621
      dxy     :     0.001702


SPIN
  0 O s       :     0.010989  s :     0.010989
      pz      :     0.090681  p :     0.806416
      px      :     0.115152
      py      :     0.600582
      dz2     :     0.000706  d :     0.012003
      dxz     :     0.002512
      dyz     :     0.003965
      dx2y2   :     0.002856
      dxy     :     0.001964
      f0      :     0.000013  f :    -0.000020
      f+1     :     0.000019
      f-1     :    -0.000029
      f+2     :     0.000071
      f-2     :    -0.000114
      f+3     :     0.000035
      f-3     :    -0.000016

  1 C s       :    -0.005069  s :    -0.005069
      pz      :    -0.012358  p :    -0.021575
      px      :    -0.007597
      py      :    -0.001620
      dz2     :     0.012099  d :     0.228923
      dxz     :     0.038222
      dyz     :     0.088002
      dx2y2   :     0.079286
      dxy     :     0.011314
      f0      :     0.001629  f :     0.022931
      f+1     :     0.004034
      f-1     :     0.000692
      f+2     :     0.006749
      f-2     :     0.001465
      f+3     :     0.006243
      f-3     :     0.002119

  2 C s       :     0.013523  s :     0.013523
      pz      :     0.151348  p :     0.663079
      px      :     0.337832
      py      :     0.173898
      dz2     :    -0.002747  d :     0.001386
      dxz     :     0.000383
      dyz     :     0.001072
      dx2y2   :     0.004733
      dxy     :    -0.002054
      f0      :    -0.000097  f :    -0.000296
      f+1     :    -0.000400
      f-1     :    -0.000130
      f+2     :     0.000241
      f-2     :     0.000304
      f+3     :    -0.000269
      f-3     :     0.000055

  3 H s       :     0.078792  s :     0.078792
      pz      :     0.000609  p :     0.011841
      px      :     0.004540
      py      :     0.006692
      dz2     :    -0.000068  d :    -0.000411
      dxz     :    -0.000109
      dyz     :    -0.000075
      dx2y2   :    -0.000112
      dxy     :    -0.000047

  4 H s       :     0.024985  s :     0.024985
      pz      :     0.000420  p :     0.000644
      px      :    -0.000475
      py      :     0.000699
      dz2     :    -0.000253  d :    -0.000317
      dxz     :     0.000127
      dyz     :    -0.000002
      dx2y2   :    -0.000157
      dxy     :    -0.000032

  5 H s       :    -0.010978  s :    -0.010978
      pz      :     0.019567  p :     0.084162
      px      :     0.040238
      py      :     0.024356
      dz2     :     0.001233  d :     0.010857
      dxz     :     0.001954
      dyz     :     0.000941
      dx2y2   :     0.004258
      dxy     :     0.002471

  6 H s       :    -0.014085  s :    -0.014085
      pz      :     0.017423  p :     0.072958
      px      :     0.036794
      py      :     0.018740
      dz2     :     0.004192  d :     0.009261
      dxz     :     0.002212
      dyz     :     0.001380
      dx2y2   :     0.000340
      dxy     :     0.001137



                      *****************************
                      * MAYER POPULATION ANALYSIS *
                      *****************************

  NA   - Mulliken gross atomic population
  ZA   - Total nuclear charge
  QA   - Mulliken gross atomic charge
  VA   - Mayer's total valence
  BVA  - Mayer's bonded valence
  FA   - Mayer's free valence

  ATOM       NA         ZA         QA         VA         BVA        FA
  0 O      8.3420     8.0000    -0.3420     1.8056     1.0489     0.7566
  1 C      5.9382     6.0000     0.0618     3.5696     3.5531     0.0165
  2 C      6.6293     6.0000    -0.6293     3.5171     2.7513     0.7657
  3 H      0.8034     1.0000     0.1966     0.9845     0.9700     0.0145
  4 H      0.7971     1.0000     0.2029     1.0202     1.0184     0.0018
  5 H      0.7390     1.0000     0.2610     0.9347     0.9346     0.0002
  6 H      0.7510     1.0000     0.2490     0.9471     0.9471     0.0001

  Mayer bond orders larger than 0.100000
B(  0-O ,  1-C ) :   0.9191 B(  1-C ,  2-C ) :   0.7870 B(  1-C ,  3-H ) :   0.9178 
B(  1-C ,  4-H ) :   0.9876 B(  2-C ,  5-H ) :   0.9679 B(  2-C ,  6-H ) :   0.9555 


-------
TIMINGS
-------

Total SCF time: 0 days 0 hours 0 min 5 sec 

Total time                  ....       5.779 sec
Sum of individual times     ....       5.759 sec  ( 99.6%)

SCF preparation             ....       0.603 sec  ( 10.4%)
Fock matrix formation       ....       4.356 sec  ( 75.4%)
  Startup                   ....       0.047 sec  (  1.1% of F)
  Split-RI-J                ....       0.272 sec  (  6.3% of F)
  Chain of spheres X        ....       2.779 sec  ( 63.8% of F)
  XC integration            ....       1.096 sec  ( 25.2% of F)
    XC Preparation          ....       0.000 sec  (  0.0% of XC)
    Basis function eval.    ....       0.071 sec  (  6.5% of XC)
    Density eval.           ....       0.304 sec  ( 27.8% of XC)
    XC-Functional eval.     ....       0.027 sec  (  2.5% of XC)
    XC-Potential eval.      ....       0.491 sec  ( 44.8% of XC)
Diagonalization             ....       0.000 sec  (  0.0%)
Density matrix formation    ....       0.101 sec  (  1.8%)
Total Energy calculation    ....       0.076 sec  (  1.3%)
Population analysis         ....       0.029 sec  (  0.5%)
Orbital Transformation      ....       0.054 sec  (  0.9%)
Orbital Orthonormalization  ....       0.000 sec  (  0.0%)
DIIS solution               ....       0.304 sec  (  5.3%)
SOSCF solution              ....       0.231 sec  (  4.0%)
Finished LeanSCF after   5.8 sec

Maximum memory used throughout the entire LEANSCF-calculation: 14.6 MB
[1741043529.893900] [ohm:321835:0]        ib_iface.c:1059 UCX  ERROR ibv_create_cq(cqe=256) failed: Connection timed out
[1741043529.895801] [ohm:321832:0]        ib_iface.c:1059 UCX  ERROR ibv_create_cq(cqe=256) failed: Connection timed out
[1741043529.897091] [ohm:321836:0]        ib_iface.c:1059 UCX  ERROR ibv_create_cq(cqe=256) failed: Connection timed out
[1741043529.899583] [ohm:321831:0]        ib_iface.c:1059 UCX  ERROR ibv_create_cq(cqe=256) failed: Connection timed out
[1741043529.899579] [ohm:321828:0]        ib_iface.c:1059 UCX  ERROR ibv_create_cq(cqe=256) failed: Connection timed out
[1741043529.912979] [ohm:321849:0]        ib_iface.c:1059 UCX  ERROR ibv_create_cq(cqe=256) failed: Connection timed out
[1741043529.913004] [ohm:321841:0]        ib_iface.c:1059 UCX  ERROR ibv_create_cq(cqe=256) failed: Connection timed out
[1741043529.913131] [ohm:321844:0]        ib_iface.c:1059 UCX  ERROR ibv_create_cq(cqe=256) failed: Connection timed out
[1741043529.917672] [ohm:321840:0]        ib_iface.c:1059 UCX  ERROR ibv_create_cq(cqe=256) failed: Connection timed out
[1741043529.929143] [ohm:321834:0]        ib_iface.c:1059 UCX  ERROR ibv_create_cq(cqe=256) failed: Connection timed out
[1741043529.932348] [ohm:321845:0]        ib_iface.c:1059 UCX  ERROR ibv_create_cq(cqe=256) failed: Connection timed out
[1741043529.943242] [ohm:321839:0]        ib_iface.c:1059 UCX  ERROR ibv_create_cq(cqe=256) failed: Connection timed out
[1741043529.949455] [ohm:321851:0]        ib_iface.c:1059 UCX  ERROR ibv_create_cq(cqe=256) failed: Connection timed out
[1741043529.951417] [ohm:321854:0]        ib_iface.c:1059 UCX  ERROR ibv_create_cq(cqe=256) failed: Connection timed out
[1741043529.954861] [ohm:321853:0]        ib_iface.c:1059 UCX  ERROR ibv_create_cq(cqe=256) failed: Connection timed out
[1741043529.956036] [ohm:321856:0]        ib_iface.c:1059 UCX  ERROR ibv_create_cq(cqe=256) failed: Connection timed out
[1741043529.956032] [ohm:321868:0]        ib_iface.c:1059 UCX  ERROR ibv_create_cq(cqe=256) failed: Connection timed out
[1741043529.956094] [ohm:321837:0]        ib_iface.c:1059 UCX  ERROR ibv_create_cq(cqe=256) failed: Connection timed out
[1741043529.962877] [ohm:321848:0]        ib_iface.c:1059 UCX  ERROR ibv_create_cq(cqe=256) failed: Connection timed out
[1741043529.964069] [ohm:321847:0]        ib_iface.c:1059 UCX  ERROR ibv_create_cq(cqe=256) failed: Connection timed out
[1741043529.965917] [ohm:321842:0]        ib_iface.c:1059 UCX  ERROR ibv_create_cq(cqe=256) failed: Connection timed out
[1741043529.965961] [ohm:321843:0]        ib_iface.c:1059 UCX  ERROR ibv_create_cq(cqe=256) failed: Connection timed out
[1741043529.967130] [ohm:321830:0]        ib_iface.c:1059 UCX  ERROR ibv_create_cq(cqe=256) failed: Connection timed out
[1741043529.968640] [ohm:321829:0]        ib_iface.c:1059 UCX  ERROR ibv_create_cq(cqe=256) failed: Connection timed out
[1741043529.969533] [ohm:321852:0]        ib_iface.c:1059 UCX  ERROR ibv_create_cq(cqe=256) failed: Connection timed out
[1741043529.970784] [ohm:321838:0]        ib_iface.c:1059 UCX  ERROR ibv_create_cq(cqe=256) failed: Connection timed out
[1741043529.970891] [ohm:321846:0]        ib_iface.c:1059 UCX  ERROR ibv_create_cq(cqe=256) failed: Connection timed out
[1741043529.971325] [ohm:321870:0]        ib_iface.c:1059 UCX  ERROR ibv_create_cq(cqe=256) failed: Connection timed out
[1741043529.971645] [ohm:321850:0]        ib_iface.c:1059 UCX  ERROR ibv_create_cq(cqe=256) failed: Connection timed out
[1741043529.972023] [ohm:321858:0]        ib_iface.c:1059 UCX  ERROR ibv_create_cq(cqe=256) failed: Connection timed out
[1741043529.972469] [ohm:321857:0]        ib_iface.c:1059 UCX  ERROR ibv_create_cq(cqe=256) failed: Connection timed out
[1741043529.973854] [ohm:321833:0]        ib_iface.c:1059 UCX  ERROR ibv_create_cq(cqe=256) failed: Connection timed out


           ************************************************************
           *        Program running with 32 parallel MPI-processes    *
           *              working on a common directory               *
           ************************************************************

------------------------------------------------------------------------------
                         ORCA PROPERTY INTEGRAL CALCULATIONS
------------------------------------------------------------------------------

GBWName                                   ... orca.gbw
Number of atoms                           ...      7
Number of basis functions                 ...    182
Max core memory                           ...   1024 MB

Dipole integrals                          ... YES
Quadrupole integrals                      ...  NO
Linear momentum integrals                 ... YES
Angular momentum integrals                ... YES
Higher moments length integrals           ...  NO
Higher moments velocity integrals         ...  NO
Kinetic energy integrals                  ...  NO
GIAO right hand sides                     ...  NO
GIAO dipole derivative integrals          ...  NO
SOC integrals                             ...  NO
EPR diamagnetic integrals (GIAO)          ...  NO
EPR gauge integrals                       ...  NO
Field gradient integrals                  ...  NO (   0 nuclei)
Spin-dipole/Fermi contact integrals       ...  NO (   0 nuclei)
Contact density integrals                 ...  NO (   0 nuclei)
Nucleus-orbit integrals                   ...  NO (   0 nuclei)
Geometric perturbations                   ...  NO (   7 nuclei)

Choice of electric origin   ... Center of mass
Position of electric origin ... (  0.2721,  0.1476,  0.1989) 
Choice of magnetic origin   ... GIAO
Position of magnetic origin ... (  0.0000,  0.0000,  0.0000) 

Calculating integrals                     ... Electric Dipole (Length)     done (  0.0 sec)
Calculating integrals                     ... Linear Momentum              done (  0.0 sec)
Calculating integrals                     ... Angular Momentum  (ElOri)    done (  0.0 sec)

Property integrals calculated in   0.0 sec

Maximum memory used throughout the entire PROPINT-calculation: 10.2 MB
[1741043530.816637] [ohm:321998:0]        ib_iface.c:1059 UCX  ERROR ibv_create_cq(cqe=256) failed: Connection timed out
[1741043530.816637] [ohm:322002:0]        ib_iface.c:1059 UCX  ERROR ibv_create_cq(cqe=256) failed: Connection timed out
[1741043530.816638] [ohm:322000:0]        ib_iface.c:1059 UCX  ERROR ibv_create_cq(cqe=256) failed: Connection timed out
[1741043530.816637] [ohm:322008:0]        ib_iface.c:1059 UCX  ERROR ibv_create_cq(cqe=256) failed: Connection timed out
[1741043530.817473] [ohm:322010:0]        ib_iface.c:1059 UCX  ERROR ibv_create_cq(cqe=256) failed: Connection timed out
[1741043530.817632] [ohm:322004:0]        ib_iface.c:1059 UCX  ERROR ibv_create_cq(cqe=256) failed: Connection timed out
[1741043530.817655] [ohm:321996:0]        ib_iface.c:1059 UCX  ERROR ibv_create_cq(cqe=256) failed: Connection timed out
[1741043530.817747] [ohm:322007:0]        ib_iface.c:1059 UCX  ERROR ibv_create_cq(cqe=256) failed: Connection timed out
[1741043530.832785] [ohm:321997:0]        ib_iface.c:1059 UCX  ERROR ibv_create_cq(cqe=256) failed: Connection timed out
[1741043530.833259] [ohm:321995:0]        ib_iface.c:1059 UCX  ERROR ibv_create_cq(cqe=256) failed: Connection timed out
[1741043530.835944] [ohm:322006:0]        ib_iface.c:1059 UCX  ERROR ibv_create_cq(cqe=256) failed: Connection timed out
[1741043530.863042] [ohm:322015:0]        ib_iface.c:1059 UCX  ERROR ibv_create_cq(cqe=256) failed: Connection timed out
[1741043530.870731] [ohm:322025:0]        ib_iface.c:1059 UCX  ERROR ibv_create_cq(cqe=256) failed: Connection timed out
[1741043530.870731] [ohm:322039:0]        ib_iface.c:1059 UCX  ERROR ibv_create_cq(cqe=256) failed: Connection timed out
[1741043530.872228] [ohm:322035:0]        ib_iface.c:1059 UCX  ERROR ibv_create_cq(cqe=256) failed: Connection timed out
[1741043530.872779] [ohm:322018:0]        ib_iface.c:1059 UCX  ERROR ibv_create_cq(cqe=256) failed: Connection timed out
[1741043530.872767] [ohm:322023:0]        ib_iface.c:1059 UCX  ERROR ibv_create_cq(cqe=256) failed: Connection timed out
[1741043530.874099] [ohm:322014:0]        ib_iface.c:1059 UCX  ERROR ibv_create_cq(cqe=256) failed: Connection timed out
[1741043530.877080] [ohm:322012:0]        ib_iface.c:1059 UCX  ERROR ibv_create_cq(cqe=256) failed: Connection timed out
[1741043530.878428] [ohm:322003:0]        ib_iface.c:1059 UCX  ERROR ibv_create_cq(cqe=256) failed: Connection timed out
[1741043530.883987] [ohm:322005:0]        ib_iface.c:1059 UCX  ERROR ibv_create_cq(cqe=256) failed: Connection timed out
[1741043530.884885] [ohm:321999:0]        ib_iface.c:1059 UCX  ERROR ibv_create_cq(cqe=256) failed: Connection timed out
[1741043530.885007] [ohm:322022:0]        ib_iface.c:1059 UCX  ERROR ibv_create_cq(cqe=256) failed: Connection timed out
[1741043530.887875] [ohm:322011:0]        ib_iface.c:1059 UCX  ERROR ibv_create_cq(cqe=256) failed: Connection timed out
[1741043530.888982] [ohm:322016:0]        ib_iface.c:1059 UCX  ERROR ibv_create_cq(cqe=256) failed: Connection timed out
[1741043530.889009] [ohm:322013:0]        ib_iface.c:1059 UCX  ERROR ibv_create_cq(cqe=256) failed: Connection timed out
[1741043530.888982] [ohm:322017:0]        ib_iface.c:1059 UCX  ERROR ibv_create_cq(cqe=256) failed: Connection timed out
[1741043530.888982] [ohm:322030:0]        ib_iface.c:1059 UCX  ERROR ibv_create_cq(cqe=256) failed: Connection timed out
[1741043530.889118] [ohm:322001:0]        ib_iface.c:1059 UCX  ERROR ibv_create_cq(cqe=256) failed: Connection timed out
[1741043530.889260] [ohm:322045:0]        ib_iface.c:1059 UCX  ERROR ibv_create_cq(cqe=256) failed: Connection timed out
[1741043530.889219] [ohm:322009:0]        ib_iface.c:1059 UCX  ERROR ibv_create_cq(cqe=256) failed: Connection timed out
[1741043530.889236] [ohm:322019:0]        ib_iface.c:1059 UCX  ERROR ibv_create_cq(cqe=256) failed: Connection timed out


           ************************************************************
           *        Program running with 32 parallel MPI-processes    *
           *              working on a common directory               *
           ************************************************************
------------------------------------------------------------------------------
                        ORCA TD-DFT/TDA CALCULATION
------------------------------------------------------------------------------

Input orbitals are from        ... orca.gbw
CI-vector output               ... orca.cis
Solver                         ... FN-2001
Tamm-Dancoff approximation     ... operative
CIS-Integral strategy          ... AO-integrals
Integral handling              ... AO integral Direct
Max. core memory used          ... 512 MB
Reference state                ... UHF
Follow IRoot                   ... off
Number of operators            ... 2
Orbital ranges used for CIS calculation:
 Operator 0:  Orbitals   3... 12  to  11...181

-------------------
XC-INTEGRATION GRID
-------------------

General Integration Accuracy     IntAcc      ... 3.467
Radial Grid Type                 RadialGrid  ... OptM3 with GC (2021)
Angular Grid (max. ang.)         AngularGrid ... 1 (Lebedev-50)
Angular grid pruning method      GridPruning ... 4 (adaptive)
Weight generation scheme         WeightScheme... mBecke (2022)
Basis function cutoff            BFCut       ... 1.0000e-11
Integration weight cutoff        WCut        ... 1.0000e-14
Partially contracted basis set               ... off
[...]
=> NOW LEAVING ORCA_CIS


-------------------------------------------------------------------------------
                          DFT DISPERSION CORRECTION                            
                                                                               
                              DFTD3 V3.1  Rev 1                                
                          USING Becke-Johnson damping                          
-------------------------------------------------------------------------------
The WB97M functional is recognized
Active option DFTDOPT                   ...         4   

molecular C6(AA) [au] = 394.983346 


            DFT-D V3
 parameters
 s6 scaling factor         :     1.0000 
 a1 scaling factor         :     0.5660 
 s8 scaling factor         :     0.3908 
 a2 scaling factor         :     3.1280 
 ad hoc parameters k1-k3   :    16.0000     1.3333    -4.0000 

 Edisp/kcal,au: -3.459032203175  -0.005512318104 
 E6   /kcal   :  -2.787060459 
 E8   /kcal   :  -0.671971745 
 % E8         :  19.426582496 

-------------------------   ----------------
Dispersion correction           -0.005512318
-------------------------   ----------------


-------------------------   --------------------
FINAL SINGLE POINT ENERGY      -153.746035153757
-------------------------   --------------------

[1741043537.283345] [ohm:322200:0]        ib_iface.c:1059 UCX  ERROR ibv_create_cq(cqe=256) failed: Connection timed out
[1741043537.290211] [ohm:322190:0]        ib_iface.c:1059 UCX  ERROR ibv_create_cq(cqe=256) failed: Connection timed out
[1741043537.312701] [ohm:322207:0]        ib_iface.c:1059 UCX  ERROR ibv_create_cq(cqe=256) failed: Connection timed out
[1741043537.316190] [ohm:322204:0]        ib_iface.c:1059 UCX  ERROR ibv_create_cq(cqe=256) failed: Connection timed out
[1741043537.319080] [ohm:322197:0]        ib_iface.c:1059 UCX  ERROR ibv_create_cq(cqe=256) failed: Connection timed out
[1741043537.320261] [ohm:322205:0]        ib_iface.c:1059 UCX  ERROR ibv_create_cq(cqe=256) failed: Connection timed out
[1741043537.321459] [ohm:322209:0]        ib_iface.c:1059 UCX  ERROR ibv_create_cq(cqe=256) failed: Connection timed out
[1741043537.322594] [ohm:322202:0]        ib_iface.c:1059 UCX  ERROR ibv_create_cq(cqe=256) failed: Connection timed out
[1741043537.324299] [ohm:322226:0]        ib_iface.c:1059 UCX  ERROR ibv_create_cq(cqe=256) failed: Connection timed out
[1741043537.324301] [ohm:322199:0]        ib_iface.c:1059 UCX  ERROR ibv_create_cq(cqe=256) failed: Connection timed out
[1741043537.324339] [ohm:322214:0]        ib_iface.c:1059 UCX  ERROR ibv_create_cq(cqe=256) failed: Connection timed out
[1741043537.324435] [ohm:322194:0]        ib_iface.c:1059 UCX  ERROR ibv_create_cq(cqe=256) failed: Connection timed out
[1741043537.326301] [ohm:322198:0]        ib_iface.c:1059 UCX  ERROR ibv_create_cq(cqe=256) failed: Connection timed out
[1741043537.345420] [ohm:322196:0]        ib_iface.c:1059 UCX  ERROR ibv_create_cq(cqe=256) failed: Connection timed out
[1741043537.346315] [ohm:322237:0]        ib_iface.c:1059 UCX  ERROR ibv_create_cq(cqe=256) failed: Connection timed out
[1741043537.346678] [ohm:322195:0]        ib_iface.c:1059 UCX  ERROR ibv_create_cq(cqe=256) failed: Connection timed out
[1741043537.347068] [ohm:322221:0]        ib_iface.c:1059 UCX  ERROR ibv_create_cq(cqe=256) failed: Connection timed out
[1741043537.347370] [ohm:322192:0]        ib_iface.c:1059 UCX  ERROR ibv_create_cq(cqe=256) failed: Connection timed out
[1741043537.347374] [ohm:322210:0]        ib_iface.c:1059 UCX  ERROR ibv_create_cq(cqe=256) failed: Connection timed out
[1741043537.347581] [ohm:322215:0]        ib_iface.c:1059 UCX  ERROR ibv_create_cq(cqe=256) failed: Connection timed out
[1741043537.347603] [ohm:322203:0]        ib_iface.c:1059 UCX  ERROR ibv_create_cq(cqe=256) failed: Connection timed out
[1741043537.348633] [ohm:322201:0]        ib_iface.c:1059 UCX  ERROR ibv_create_cq(cqe=256) failed: Connection timed out
[1741043537.349201] [ohm:322213:0]        ib_iface.c:1059 UCX  ERROR ibv_create_cq(cqe=256) failed: Connection timed out
[1741043537.349256] [ohm:322206:0]        ib_iface.c:1059 UCX  ERROR ibv_create_cq(cqe=256) failed: Connection timed out
[1741043537.349271] [ohm:322191:0]        ib_iface.c:1059 UCX  ERROR ibv_create_cq(cqe=256) failed: Connection timed out
[1741043537.349464] [ohm:322216:0]        ib_iface.c:1059 UCX  ERROR ibv_create_cq(cqe=256) failed: Connection timed out
[1741043537.349502] [ohm:322229:0]        ib_iface.c:1059 UCX  ERROR ibv_create_cq(cqe=256) failed: Connection timed out
[1741043537.349812] [ohm:322211:0]        ib_iface.c:1059 UCX  ERROR ibv_create_cq(cqe=256) failed: Connection timed out
[1741043537.350736] [ohm:322208:0]        ib_iface.c:1059 UCX  ERROR ibv_create_cq(cqe=256) failed: Connection timed out
[1741043537.352059] [ohm:322212:0]        ib_iface.c:1059 UCX  ERROR ibv_create_cq(cqe=256) failed: Connection timed out
[1741043537.352332] [ohm:322193:0]        ib_iface.c:1059 UCX  ERROR ibv_create_cq(cqe=256) failed: Connection timed out
[1741043537.352359] [ohm:322236:0]        ib_iface.c:1059 UCX  ERROR ibv_create_cq(cqe=256) failed: Connection timed out


           ************************************************************
           *        Program running with 32 parallel MPI-processes    *
           *              working on a common directory               *
           ************************************************************

------------------------------------------------------------------------------
                              ORCA PROPERTY CALCULATIONS
------------------------------------------------------------------------------

GBWName                                 ... orca.gbw
Number of atoms                         ...      7
Number of basis functions               ...    182
Max core memory                         ...   1024 MB

Electric properties:
Dipole moment                           ... YES
Quadrupole moment                       ...  NO
Static polarizability (Dipole/Dipole)   ...  NO
Static polarizability (Dipole/Quad.)    ...  NO
Static polarizability (Quad./Quad.)     ...  NO
Static polarizability (Velocity)        ...  NO

Atomic electric properties:
Dipole moment                           ...  NO
Quadrupole moment                       ...  NO
Static polarizability                   ...  NO

Choice of electric origin               ... Center of mass
Position of electric origin             ...     0.272105     0.147598     0.198850

General magnetic properties:
Magnetizability                         ...  NO

EPR properties:
g-Tensor (aka g-matrix)                 ...  NO
Zero-Field splitting spin-orbit         ...  NO
Zero-field splitting spin-spin          ...  NO
Hyperfine couplings                     ...  NO (   0 nuclei)
Quadrupole couplings                    ...  NO (   0 nuclei)
Contact density                         ...  NO (   0 nuclei)

NMR properties:
Chemical shifts                         ...  NO (   0 nuclei)
Spin-rotation constants                 ...  NO (   0 nuclei)
Spin-spin couplings                     ...  NO (   0 nuclei,    0 pairs)

Choice of magnetic origin               ... GIAO
Position of magnetic origin             ...     0.000000     0.000000     0.000000

Properties with geometric perturbations:
SCF Hessian                             ...  NO
IR spectrum                             ...  NO
VCD spectrum                            ...  NO
X-ray spectroscopy properties:
SCF XES/XAS/RIXS spectra                ...  NO


-------------
DIPOLE MOMENT
-------------

Method             : SCF
Type of density    : Electron Density
Multiplicity       :   3
Irrep              :   0
Energy             :  -153.7789181003345789 Eh
Relativity type    : 
Basis              : AO
                                X                 Y                 Z
Electronic contribution:      1.937278528       1.657803141      -0.981544074
Nuclear contribution   :     -2.336259371      -1.988639715       1.568561630
                        -----------------------------------------
Total Dipole Moment    :     -0.398980843      -0.330836573       0.587017556
                        -----------------------------------------
Magnitude (a.u.)       :      0.783088860
Magnitude (Debye)      :      1.990453697



--------------------
Rotational spectrum 
--------------------
 
Rotational constants in cm-1:             1.512003             0.352473             0.304184 
Rotational constants in MHz :         45328.719966         10566.860050          9119.208261 

Dipole components along the rotational axes: 
x,y,z [a.u.] :    -0.595017     0.505567     0.059870 
x,y,z [Debye]:    -1.512413     1.285050     0.152178 

 

-------------
DIPOLE MOMENT
-------------

Method             : TDA/CIS
Type of density    : Electron Density
Level              : Relaxed density
State              :   2
Multiplicity       :   3
Irrep              :   0
Energy             :     0.0000000000000000 Eh
Relativity type    : 
Basis              : AO
                                X                 Y                 Z
Electronic contribution:      1.944181429       1.672347686      -0.990875739
Nuclear contribution   :     -2.336259371      -1.988639715       1.568561630
                        -----------------------------------------
Total Dipole Moment    :     -0.392077942      -0.316292029       0.577685890
                        -----------------------------------------
Magnitude (a.u.)       :      0.766476841
Magnitude (Debye)      :      1.948229302



--------------------
Rotational spectrum 
--------------------
 
Rotational constants in cm-1:             1.512003             0.352473             0.304184 
Rotational constants in MHz :         45328.719966         10566.860050          9119.208261 

Dipole components along the rotational axes: 
x,y,z [a.u.] :    -0.579134     0.497777     0.065641 
x,y,z [Debye]:    -1.472041     1.265249     0.166846 

 

Dipole moment calculation done in   0.0 sec 

Maximum memory used throughout the entire PROP-calculation: 7.4 MB
[1741043538.144032] [ohm:322377:0]        ib_iface.c:1059 UCX  ERROR ibv_create_cq(cqe=256) failed: Connection timed out
[1741043538.144038] [ohm:322381:0]        ib_iface.c:1059 UCX  ERROR ibv_create_cq(cqe=256) failed: Connection timed out
[1741043538.144032] [ohm:322376:0]        ib_iface.c:1059 UCX  ERROR ibv_create_cq(cqe=256) failed: Connection timed out
[1741043538.144035] [ohm:322385:0]        ib_iface.c:1059 UCX  ERROR ibv_create_cq(cqe=256) failed: Connection timed out
[1741043538.144039] [ohm:322380:0]        ib_iface.c:1059 UCX  ERROR ibv_create_cq(cqe=256) failed: Connection timed out
[1741043538.144468] [ohm:322369:0]        ib_iface.c:1059 UCX  ERROR ibv_create_cq(cqe=256) failed: Connection timed out
[1741043538.144865] [ohm:322372:0]        ib_iface.c:1059 UCX  ERROR ibv_create_cq(cqe=256) failed: Connection timed out
[1741043538.144716] [ohm:322373:0]        ib_iface.c:1059 UCX  ERROR ibv_create_cq(cqe=256) failed: Connection timed out
[1741043538.144785] [ohm:322384:0]        ib_iface.c:1059 UCX  ERROR ibv_create_cq(cqe=256) failed: Connection timed out
[1741043538.178843] [ohm:322388:0]        ib_iface.c:1059 UCX  ERROR ibv_create_cq(cqe=256) failed: Connection timed out
[1741043538.179408] [ohm:322414:0]        ib_iface.c:1059 UCX  ERROR ibv_create_cq(cqe=256) failed: Connection timed out
[1741043538.182083] [ohm:322389:0]        ib_iface.c:1059 UCX  ERROR ibv_create_cq(cqe=256) failed: Connection timed out
[1741043538.182171] [ohm:322405:0]        ib_iface.c:1059 UCX  ERROR ibv_create_cq(cqe=256) failed: Connection timed out
[1741043538.187026] [ohm:322394:0]        ib_iface.c:1059 UCX  ERROR ibv_create_cq(cqe=256) failed: Connection timed out
[1741043538.191072] [ohm:322390:0]        ib_iface.c:1059 UCX  ERROR ibv_create_cq(cqe=256) failed: Connection timed out
[1741043538.191217] [ohm:322386:0]        ib_iface.c:1059 UCX  ERROR ibv_create_cq(cqe=256) failed: Connection timed out
[1741043538.199004] [ohm:322396:0]        ib_iface.c:1059 UCX  ERROR ibv_create_cq(cqe=256) failed: Connection timed out
[1741043538.199037] [ohm:322392:0]        ib_iface.c:1059 UCX  ERROR ibv_create_cq(cqe=256) failed: Connection timed out
[1741043538.200467] [ohm:322371:0]        ib_iface.c:1059 UCX  ERROR ibv_create_cq(cqe=256) failed: Connection timed out
[1741043538.203974] [ohm:322378:0]        ib_iface.c:1059 UCX  ERROR ibv_create_cq(cqe=256) failed: Connection timed out
[1741043538.207006] [ohm:322391:0]        ib_iface.c:1059 UCX  ERROR ibv_create_cq(cqe=256) failed: Connection timed out
[1741043538.207338] [ohm:322393:0]        ib_iface.c:1059 UCX  ERROR ibv_create_cq(cqe=256) failed: Connection timed out
[1741043538.207469] [ohm:322408:0]        ib_iface.c:1059 UCX  ERROR ibv_create_cq(cqe=256) failed: Connection timed out
[1741043538.208649] [ohm:322400:0]        ib_iface.c:1059 UCX  ERROR ibv_create_cq(cqe=256) failed: Connection timed out
[1741043538.209299] [ohm:322383:0]        ib_iface.c:1059 UCX  ERROR ibv_create_cq(cqe=256) failed: Connection timed out
[1741043538.209989] [ohm:322375:0]        ib_iface.c:1059 UCX  ERROR ibv_create_cq(cqe=256) failed: Connection timed out
[1741043538.210004] [ohm:322387:0]        ib_iface.c:1059 UCX  ERROR ibv_create_cq(cqe=256) failed: Connection timed out
[1741043538.210253] [ohm:322395:0]        ib_iface.c:1059 UCX  ERROR ibv_create_cq(cqe=256) failed: Connection timed out
[1741043538.210378] [ohm:322382:0]        ib_iface.c:1059 UCX  ERROR ibv_create_cq(cqe=256) failed: Connection timed out
[1741043538.210683] [ohm:322374:0]        ib_iface.c:1059 UCX  ERROR ibv_create_cq(cqe=256) failed: Connection timed out
[1741043538.210770] [ohm:322370:0]        ib_iface.c:1059 UCX  ERROR ibv_create_cq(cqe=256) failed: Connection timed out
[1741043538.210808] [ohm:322379:0]        ib_iface.c:1059 UCX  ERROR ibv_create_cq(cqe=256) failed: Connection timed out

--------------------------------
SUGGESTED CITATIONS FOR THIS RUN
--------------------------------

Below you find a list of papers that are relevant to this ORCA run
We neither can nor want to force you to cite these papers, but we appreciate if you do
You receive ORCA, which is the product of decades of hard work by many enthusiastic individuals, for free
The only thing we kindly ask in return is that you cite our papers,
We deeply appreciate it, if you show your appreciation for ORCA by not just citing the generic ORCA reference.

Please note that relegating all ORCA citations to the supporting information does *not* help us.
SI sections are not indexed - citations you put there will not count into any citation statistics
But we need these citations in order to attract the funding resources that allow us to do what we are doing

Therefore, if you are a happy ORCA user, please consider citing a few of the papers listed below in the main body of your paper

In addition to the list printed below, the program has created the file orca.bibtex that contains the list in bibtex format
You can import this file easily into all common literature databanks and citation aid programs


List of essential papers. We consider these as the minimum necessary citations

  1. Neese,F.
     Software update: the ORCA program system, version 5.0
     WIRES Comput. Molec. Sci., 2022 12(1)e1606
     doi.org/10.1002/wcms.1606

List of papers to cite with high priority. The work reported in these papers was absolutely
necessary for this run to complete.
Our perspective: the developers of density functionals and basis sets usually get cited in chemistry papers
Good! But without the algorithms to do something with them, the functionals or basis sets would not do anything.
Hence, in our opinion, the algorithm design and method developments papers are equally worthy of getting cited

  1. Neese,F.; Olbrich,G.
     Efficient use of the resolution of the identity approximation in time-dependent density functional calculations with hybrid density functionals
     Chem. Phys. Lett., 2002 362 170-178
     doi.org/10.1016/s0009-2614(02)01053-9
  2. Neese,F.
     An improvement of the resolution of the identity approximation for the formation of the Coulomb matrix
     J. Comp. Chem., 2003 24(14)1740-1747
     doi.org/10.1002/jcc.10318
  3. Neese,F.; Wennmohs,F.; Hansen,A.; Becker,U.
     Efficient, approximate and parallel Hartree-Fock and hybrid DFT calculations. A 'chain-of-spheres' algorithm for the Hartree-Fock exchange
     Chem. Phys., 2009 356(1-3)98-109
     doi.org/10.1016/j.chemphys.2008.10.036
  4. Petrenko,T.; Kossmann,S.; Neese,F.
     Efficient time-dependent density functional theory approximations for hybrid density functionals: Analytical gradients and parallelization
     J. Chem. Phys., 2011 134 054116
     doi.org/10.1063/1.3533441
  5. Helmich-Paris,B.; de Souza,B.; Neese,F.; Izsák,R.
     An improved chain of spheres for exchange algorithm
     J. Chem. Phys., 2021 155 104109
     doi.org/doi: 10.1063/5.0058766.
  6. Neese,F.
     The SHARK Integral Generation and Digestion System
     J. Comp. Chem., 2022  1-16
     doi.org/10.1002/jcc.26942
  7. Lehtola,S.; Steigemann,C.; Oliveira,M.; Marques,M.
     Recent developments in Libxc - A comprehensive library of functionals for density functional theory
     Software X, 2018 7 
     doi.org/10.1016/j.softx.2017.11.002
  8. Grimme,S.; Antony,J.; Ehrlich,S.; Krieg,H.
     A consistent and accurate ab initio parametrization of density functional dispersion correction (DFT-D) for the 94 elements H-Pu
     J. Chem. Phys., 2010 132 154104-XXXX
     doi.org/10.1063/1.3382344
  9. Grimme,S.; Ehrlich,S.; Goerigk,L.
     Effect of the damping function in dispersion corrected density functional theory
     J. Comput. Chem., 2011 32(7)1456-1465
     doi.org/10.1002/jcc.21759

List of suggested additional citations. These are papers that are important in the 'surrounding' of 
of this run, or papers that preceded the highly important papers. If you like your results we are grateful for a citation.

  1. Izsak,R.; Neese,F.
     An overlap fitted chain of spheres exchange method
     J. Chem. Phys., 2011 135 144105
     doi.org/10.1063/1.3646921
  2. Izsak,R.; Hansen,A.; Neese,F.
     The resolution of identity and chain of spheres approximations for the LPNO-CCSD singles Fock term
     Molec. Phys., 2012 110 2413-2417
     doi.org/10.1080/00268976.2012.687466
  3. Neese,F.
     The ORCA program system
     WIRES Comput. Molec. Sci., 2012 2(1)73-78
     doi.org/10.1002/wcms.81
  4. Izsak,R.; Neese,F.; Klopper,W.
     Robust fitting techniques in the chain of spheres approximation to the Fock exchange: The role of the complementary space
     J. Chem. Phys., 2013 139 
     doi.org/10.1063/1.4819264
  5. Neese,F.
     Software update: the ORCA program system, version 4.0
     WIRES Comput. Molec. Sci., 2018 8(1)1-6
     doi.org/10.1002/wcms.1327
  6. Neese,F.; Wennmohs,F.; Becker,U.; Riplinger,C.
     The ORCA quantum chemistry program package
     J. Chem. Phys., 2020 152 Art. No. L224108
     doi.org/10.1063/5.0004608

List of optional additional citations

  1. Neese,F.
     Approximate second-order SCF convergence for spin unrestricted wavefunctions
     Chem. Phys. Lett., 2000 325(1-3)93-98
     doi.org/10.1016/s0009-2614(00)00662-x

Timings for individual modules:

Sum of individual times          ...       16.522 sec (=   0.275 min)
Startup calculation              ...        1.188 sec (=   0.020 min)   7.2 %
SCF iterations                   ...        7.109 sec (=   0.118 min)  43.0 %
Property integrals               ...        0.917 sec (=   0.015 min)   5.6 %
Property calculations            ...        0.892 sec (=   0.015 min)   5.4 %
CIS module                       ...        6.416 sec (=   0.107 min)  38.8 %
                             ****ORCA TERMINATED NORMALLY****
TOTAL RUN TIME: 0 days 0 hours 0 minutes 17 seconds 453 msec
