
                                 *****************
                                 * O   R   C   A *
                                 *****************

                                            #,                                       
                                            ###                                      
                                            ####                                     
                                            #####                                    
                                            ######                                   
                                           ########,                                 
                                     ,,################,,,,,                         
                               ,,#################################,,                 
                          ,,##########################################,,             
                       ,#########################################, ''#####,          
                    ,#############################################,,   '####,        
                  ,##################################################,,,,####,       
                ,###########''''           ''''###############################       
              ,#####''   ,,,,##########,,,,          '''####'''          '####       
            ,##' ,,,,###########################,,,                        '##       
           ' ,,###''''                  '''############,,,                           
         ,,##''                                '''############,,,,        ,,,,,,###''
      ,#''                                            '''#######################'''  
     '                                                          ''''####''''         
             ,#######,   #######,   ,#######,      ##                                
            ,#'     '#,  ##    ##  ,#'     '#,    #''#        ,####,   ,####,        
            ##       ##  ##   ,#'  ##            #'  '#       #'       #'  '#        
            ##       ##  #######   ##           ,######,      #####,   #    #        
            '#,     ,#'  ##    ##  '#,     ,#' ,#      #,     #,   #   #,  ,#        
             '#######'   ##     ##  '#######'  #'      '#     '####' # '####'        



                #########################################################
                #                        -***-                          #
                #          Department of theory and spectroscopy        #
                #                                                       #
                #                      Frank Neese                      #
                #                                                       #
                #     Directorship, Architecture, Infrastructure        #
                #                    SHARK, DRIVERS                     #
                #        Core code/Algorithms in most modules           #
                #                                                       #
                #        Max Planck Institute fuer Kohlenforschung      #
                #                Kaiser Wilhelm Platz 1                 #
                #                 D-45470 Muelheim/Ruhr                 #
                #                      Germany                          #
                #                                                       #
                #                  All rights reserved                  #
                #                        -***-                          #
                #########################################################


                         Program Version 6.0.0  -   RELEASE  -


 With contributions from (in alphabetic order):
   Daniel Aravena         : Magnetic Suceptibility
   Michael Atanasov       : Ab Initio Ligand Field Theory (pilot matlab implementation)
   Alexander A. Auer      : GIAO ZORA, VPT2 properties, NMR spectrum
   Ute Becker             : All parallelization in ORCA, NUMFREQ, NUMCALC
   Giovanni Bistoni       : ED, misc. LED, open-shell LED, HFLD
   Martin Brehm           : Molecular dynamics
   Dmytro Bykov           : pre 5.0 version of the SCF Hessian
   Marcos Casanova-Páez   : Triplet and SCS-CIS(D). UHF-(DLPNO)-IP/EA/STEOM-CCSD. UHF-CVS-IP/STEOM-CCSD
   Vijay G. Chilkuri      : MRCI spin determinant printing, contributions to CSF-ICE
   Pauline Colinet        : FMM embedding
   Dipayan Datta          : RHF DLPNO-CCSD density
   Achintya Kumar Dutta   : EOM-CC, STEOM-CC
   Nicolas Foglia         : Exact transition moments, OPA infrastructure, MCD improvements
   Dmitry Ganyushin       : Spin-Orbit,Spin-Spin,Magnetic field MRCI
   Miquel Garcia          : C-PCM and meta-GGA Hessian, CCSD/C-PCM, Gaussian charge scheme
   Tiago L. C. Gouveia    : GS-ROHF, GS-ROCIS
   Yang Guo               : DLPNO-NEVPT2, F12-NEVPT2, CIM, IAO-localization
   Andreas Hansen         : Spin unrestricted coupled pair/coupled cluster methods
   Ingolf Harden          : AUTO-CI MPn and infrastructure 
   Benjamin Helmich-Paris : MC-RPA, TRAH-(SCF,CASSCF), AVAS, COSX integrals, SCF dyn. polar.
   Lee Huntington         : MR-EOM, pCC
   Robert Izsak           : Overlap fitted RIJCOSX, COSX-SCS-MP3, EOM
   Riya Kayal             : Wick's Theorem for AUTO-CI, AUTO-CI UHF-CCSDT
   Emily Kempfer          : AUTO-CI, RHF CISDT and CCSDT
   Christian Kollmar      : KDIIS, OOCD, Brueckner-CCSD(T), CCSD density, CASPT2, CASPT2-K, improved NEVPT2
   Axel Koslowski         : Symmetry handling
   Simone Kossmann        : Meta GGA functionals, TD-DFT gradient, OOMP2, (MP2 Hessian; deprecated post 5.0)
   Lucas Lang             : DCDCAS
   Marvin Lechner         : AUTO-CI (C++ implementation), FIC-MRCC
   Spencer Leger          : CASSCF response
   Dagmar Lenk            : GEPOL surface, SMD, ORCA-2-JSON
   Dimitrios Liakos       : Extrapolation schemes; Compound Job, initial MDCI parallelization
   Dimitrios Manganas     : Further ROCIS development; embedding schemes. LFT, Crystal Embedding
   Dimitrios Pantazis     : SARC Basis sets
   Anastasios Papadopoulos: AUTO-CI, single reference methods and gradients
   Taras Petrenko         : pre 6.0 DFT Hessian and TD-DFT gradient, (ASA, deprecated), ECA, 1-Electron XAS/XES, NRVS
   Peter Pinski           : DLPNO-MP2, DLPNO-MP2 Gradient
   Christoph Reimann      : Effective Core Potentials
   Marius Retegan         : Local ZFS, SOC
   Christoph Riplinger    : Optimizer, TS searches, QM/MM, DLPNO-CCSD(T), (RO)-DLPNO pert. Triples
   Michael Roemelt        : Original ROCIS implementation
   Masaaki Saitow         : Open-shell DLPNO-CCSD energy and density
   Barbara Sandhoefer     : DKH picture change effects
   Kantharuban Sivalingam : CASSCF convergence/infrastructure, NEVPT2 and variants, FIC-MRCI
   Bernardo de Souza      : ESD, SOC TD-DFT
   Georgi Stoychev        : AutoAux, RI-MP2 NMR, DLPNO-MP2 response, X2C
   Van Anh Tran           : RI-MP2 g-tensors
   Willem Van den Heuvel  : Paramagnetic NMR
   Zikuan Wang            : NOTCH, Electric field optimization 
   Frank Wennmohs         : Technical directorship and infrastructure
   Hang Xu                : AUTO-CI-Response properties 


 We gratefully acknowledge several colleagues who have allowed us to
 interface, adapt or use parts of their codes:
   Stefan Grimme, W. Hujo, H. Kruse, P. Pracht,  : VdW corrections, initial TS optimization,
                  C. Bannwarth, S. Ehlert,         DFT functionals, gCP, sTDA/sTD-DF
                  L. Wittmann, M. Mueller
   Ed Valeev, F. Pavosevic, A. Kumar             : LibInt (2-el integral package), F12 methods
   Garnet Chan, S. Sharma, J. Yang, R. Olivares  : DMRG
   Ulf Ekstrom                                   : XCFun DFT Library
   Mihaly Kallay                                 : mrcc  (arbitrary order and MRCC methods)
   Frank Weinhold                                : gennbo (NPA and NBO analysis)
   Simon Mueller                                 : openCOSMO-RS
   Christopher J. Cramer and Donald G. Truhlar   : smd solvation model
   Lars Goerigk                                  : TD-DFT with DH, B97 family of functionals
   V. Asgeirsson, H. Jonsson                     : NEB implementation
   FAccTs GmbH                                   : IRC, NEB, NEB-TS, DLPNO-Multilevel, CI-OPT
                                                   MM, QMMM, 2- and 3-layer-ONIOM, Crystal-QMMM,
                                                   LR-CPCM, SF, NACMEs, symmetry and pop. for TD-DFT,
                                                   nearIR, NL-DFT gradient (VV10), updates on ESD,
                                                   ML-optimized integration grids, MBIS, APM,
                                                   GOAT, DOCKER, SOLVATOR, interface openCOSMO-RS
   S Lehtola, MJT Oliveira, MAL Marques          : LibXC Library
   Liviu Ungur et al                             : ANISO software


 Your calculation uses the libint2 library for the computation of 2-el integrals
 For citations please refer to: http://libint.valeyev.net

 Your ORCA version has been built with support for libXC version: 6.2.2
 For citations please refer to: https://libxc.gitlab.io

 This ORCA versions uses:
   CBLAS   interface :  Fast vector & matrix operations
   LAPACKE interface :  Fast linear algebra routines
   SCALAPACK package :  Parallel linear algebra routines
   Shared memory     :  Shared parallel matrices
   BLAS/LAPACK       :  OpenBLAS 0.3.27  USE64BITINT DYNAMIC_ARCH NO_AFFINITY Zen SINGLE_THREADED
        Core in use  :  Zen
   Copyright (c) 2011-2014, The OpenBLAS Project


Your calculation utilizes the atom-pairwise dispersion correction
with the Becke-Johnson damping scheme (D3BJ)


Warning: RI is on but no J-basis has been assigned. Assigning Def2/J (nothing to worry about!)
================================================================================

----- Orbital basis set information -----
Your calculation utilizes the basis: def2-TZVPPD
   F. Weigend and R. Ahlrichs, Phys. Chem. Chem. Phys. 7, 3297 (2005).
   D. Rappoport and F. Furche, J. Chem. Phys. 133, 134105 (2010)
   D. Rappoport, J. Chem. Phys. 155, 124102 (2021).

----- AuxJ basis set information -----
Your calculation utilizes the auxiliary basis: def2/J
   F. Weigend, Phys. Chem. Chem. Phys. 8, 1057 (2006).

================================================================================
                                        WARNINGS
                       Please study these warnings very carefully!
================================================================================

Using LibXC functional ID 531 : wB97M-V exchange-correlation functional
[ 1]  N. Mardirossian and M. Head-Gordon.,  J. Chem. Phys. 144, 214110 (2016)
Using LibXC functional ID 531 : wB97M-V exchange-correlation functional
[ 1]  N. Mardirossian and M. Head-Gordon.,  J. Chem. Phys. 144, 214110 (2016)

WARNING: B97M-V or wB97M-V functional requested.
  ===> : libXC variant has now been activated.
         Any manually given DFX/HFX/RangeSep scaling parameters are IGNORED!

Your calculation utilizes LibXC
 by S Lehtola, C Steigemann, MJT Oliveira & MAL Marques
Please cite in your paper:
 S Lehtola, C Steigemann, MJT Oliveira & MAL Marques, SoftwareX, 7, (2018), 1.
   


WARNING: your system is open-shell and RHF/RKS was chosen
  ===> : WILL SWITCH to UHF/UKS

INFO   : Checking CIS options ...

WARNING: CIS/ROCIS methods need fully converged wavefunctions
  ===> : Setting SCFConvForced true
         You can overwrite this default with %scf ConvForced false 


================================================================================
                                       INPUT FILE
================================================================================
NAME = orca.inp
|  1> ! Engrad def2-TZVPPD wB97M-D3BJ 
|  2> %pal nprocs 8 end%pal nprocs 64 end 
|  3>  %tddft nroots 2 Iroot 2 
|  4> sf true 
|  5> end 
|  6> *xyz 0 3 
|  7> O   2.52896902172922 1.20445469101394 -0.48926007499864
|  8> O   -0.64431791043253 0.83958772073713 -2.29167050394663
|  9> O   0.55262488048401 -2.74049468363431 -1.55763855528608
| 10> O   -2.42115829780018 -1.60697914880547 1.09991537876027
| 11> N   0.66408918540917 -2.13957311774477 0.63502065949345
| 12> N   -2.01731064649215 0.60779942668566 1.43878171233501
| 13> N   1.65899167654224 -0.83007056231605 -0.9797831628494
| 14> N   -1.60333355003349 -0.33883096035582 -0.6137321417722
| 15> C   1.53892398680629 -0.01894103386665 1.28418507882171
| 16> C   -0.93969515101448 1.94802809024345 -0.21163562191368
| 17> C   0.91457237047389 -1.1673973169989 1.57425723995716
| 18> C   -1.46179821707931 1.79407798211688 1.00972996517538
| 19> C   1.81816392299367 1.05637064578928 2.28288441652479
| 20> C   -0.28304748344292 3.20085803812594 -0.69289689606123
| 21> C   1.9659308312673 0.20392239463826 -0.097509387644
| 22> C   -1.03173230012357 0.82268842917071 -1.14498454862222
| 23> C   0.93254315352904 -1.96824116796617 -0.70569571126271
| 24> C   -2.0475867306131 -0.53382822951449 0.67248053984069
| 25> H   0.56096276779027 -1.39490998844297 2.56856550543381
| 26> H   -1.45591068682676 2.58821172315103 1.7408292492437
| 27> H   1.36891065329702 1.99531412887581 1.96277915815618
| 28> H   1.42407848894113 0.78890831663651 3.26095336075899
| 29> H   2.88789671919839 1.23539898509855 2.37262745019916
| 30> H   -0.76815984881418 3.56586625246227 -1.59571065755708
| 31> H   -0.32399942775371 3.97524643945824 0.0698580660828
| 32> H   0.75863073141465 3.00269542329503 -0.93897907528086
| 33> H   0.02851616021651 -2.88914415867745 0.8487144572881
| 34> H   -2.34999433329072 0.50355416124393 2.37982518975416
| 35> H   1.81695413074823 -0.64192226841024 -1.95823721758489
| 36> H   -1.62011409712398 -1.14765021200934 -1.21907387304577
| 37> *
| 38> 
| 39>                          ****END OF INPUT****
================================================================================

                     *******************************
                     * Energy+Gradient Calculation *
                     *******************************

---------------------------------
CARTESIAN COORDINATES (ANGSTROEM)
---------------------------------
  O      2.528969    1.204455   -0.489260
  O     -0.644318    0.839588   -2.291671
  O      0.552625   -2.740495   -1.557639
  O     -2.421158   -1.606979    1.099915
  N      0.664089   -2.139573    0.635021
  N     -2.017311    0.607799    1.438782
  N      1.658992   -0.830071   -0.979783
  N     -1.603334   -0.338831   -0.613732
  C      1.538924   -0.018941    1.284185
  C     -0.939695    1.948028   -0.211636
  C      0.914572   -1.167397    1.574257
  C     -1.461798    1.794078    1.009730
  C      1.818164    1.056371    2.282884
  C     -0.283047    3.200858   -0.692897
  C      1.965931    0.203922   -0.097509
  C     -1.031732    0.822688   -1.144985
  C      0.932543   -1.968241   -0.705696
  C     -2.047587   -0.533828    0.672481
  H      0.560963   -1.394910    2.568566
  H     -1.455911    2.588212    1.740829
  H      1.368911    1.995314    1.962779
  H      1.424078    0.788908    3.260953
  H      2.887897    1.235399    2.372627
  H     -0.768160    3.565866   -1.595711
  H     -0.323999    3.975246    0.069858
  H      0.758631    3.002695   -0.938979
  H      0.028516   -2.889144    0.848714
  H     -2.349994    0.503554    2.379825
  H      1.816954   -0.641922   -1.958237
  H     -1.620114   -1.147650   -1.219074

----------------------------
CARTESIAN COORDINATES (A.U.)
----------------------------
  NO LB      ZA    FRAG     MASS         X           Y           Z
   0 O     8.0000    0    15.999    4.779059    2.276090   -0.924568
   1 O     8.0000    0    15.999   -1.217584    1.586591   -4.330630
   2 O     8.0000    0    15.999    1.044310   -5.178784   -2.943510
   3 O     8.0000    0    15.999   -4.575326   -3.036750    2.078539
   4 N     7.0000    0    14.007    1.254947   -4.043207    1.200015
   5 N     7.0000    0    14.007   -3.812165    1.148574    2.718903
   6 N     7.0000    0    14.007    3.135040   -1.568606   -1.851522
   7 N     7.0000    0    14.007   -3.029861   -0.640298   -1.159786
   8 C     6.0000    0    12.011    2.908145   -0.035793    2.426758
   9 C     6.0000    0    12.011   -1.775766    3.681240   -0.399933
  10 C     6.0000    0    12.011    1.728291   -2.206061    2.974915
  11 C     6.0000    0    12.011   -2.762398    3.390316    1.908113
  12 C     6.0000    0    12.011    3.435832    1.996251    4.314026
  13 C     6.0000    0    12.011   -0.534882    6.048745   -1.309385
  14 C     6.0000    0    12.011    3.715071    0.385357   -0.184266
  15 C     6.0000    0    12.011   -1.949691    1.554656   -2.163707
  16 C     6.0000    0    12.011    1.762251   -3.719437   -1.333572
  17 C     6.0000    0    12.011   -3.869378   -1.008789    1.270804
  18 H     1.0000    0     1.008    1.060066   -2.635998    4.853885
  19 H     1.0000    0     1.008   -2.751272    4.891011    3.289691
  20 H     1.0000    0     1.008    2.586866    3.770597    3.709115
  21 H     1.0000    0     1.008    2.691118    1.490821    6.162309
  22 H     1.0000    0     1.008    5.457334    2.334566    4.483616
  23 H     1.0000    0     1.008   -1.451612    6.738511   -3.015456
  24 H     1.0000    0     1.008   -0.612270    7.512127    0.132013
  25 H     1.0000    0     1.008    1.433604    5.674272   -1.774413
  26 H     1.0000    0     1.008    0.053888   -5.459691    1.603838
  27 H     1.0000    0     1.008   -4.440846    0.951579    4.497218
  28 H     1.0000    0     1.008    3.433546   -1.213057   -3.700532
  29 H     1.0000    0     1.008   -3.061572   -2.168745   -2.303716

--------------------------------
INTERNAL COORDINATES (ANGSTROEM)
--------------------------------
 O      0   0   0     0.000000000000     0.00000000     0.00000000
 O      1   0   0     3.667637006876     0.00000000     0.00000000
 O      2   1   0     3.845577325769    74.30667523     0.00000000
 O      3   2   1     4.146183398200    69.18152482   101.68400383
 N      3   2   1     2.276243715374    87.32551980    54.77789405
 N      4   3   2     2.276657079130   103.54053560   324.39274007
 N      1   2   3     2.266443576904    58.14461785     0.63536726
 N      2   1   3     2.263594206611    93.09930662    58.03628440
 C      1   2   3     2.371074436714    87.41905929   301.69702080
 C      2   1   3     2.375380575293    68.33576266   116.97426357
 C      9   1   2     1.338995382273   143.06078711    54.77176951
 C     10   2   1     1.337170948201   142.62271808   249.91322315
 C      9   1   2     1.493877678224    92.89905522   235.56643943
 C     10   2   1     1.494115608523    93.12841513    72.09947900
 C      1   2   3     1.213072743512    71.03869414   328.09286264
 C      2   1   3     1.210480968679    79.20845139    87.36038326
 C      3   2   1     1.210999585523    68.79268130    29.84998502
 C      4   3   2     1.214046602445    78.18772990   341.39438478
 H     11   9   1     1.079560416824   122.20934525   181.21887660
 H     12  10   2     1.079439310395   122.12768096   183.56899782
 H     13   9   1     1.088995289797   110.30430637    57.00876820
 H     13   9   1     1.087868689927   110.87724045   177.94432426
 H     13   9   1     1.088316688122   110.93247456   298.96188840
 H     14  10   2     1.087951143901   110.64923467    55.15220890
 H     14  10   2     1.087726799401   110.76551258   176.20204177
 H     14  10   2     1.088539555623   109.92198236   296.61105283
 H      5   3   2     1.005721062210    88.68042080   122.50438757
 H      6   4   3     1.003547874903    88.83767749   213.00323147
 H      7   1   2     1.008823202879    88.99102721    66.99431784
 H      8   2   1     1.010400306922    88.83489335   247.03428724

---------------------------
INTERNAL COORDINATES (A.U.)
---------------------------
 O      0   0   0     0.000000000000     0.00000000     0.00000000
 O      1   0   0     6.930829501631     0.00000000     0.00000000
 O      2   1   0     7.267087972521    74.30667523     0.00000000
 O      3   2   1     7.835151123609    69.18152482   101.68400383
 N      3   2   1     4.301477236117    87.32551980    54.77789405
 N      4   3   2     4.302258380408   103.54053560   324.39274007
 N      1   2   3     4.282957658334    58.14461785     0.63536726
 N      2   1   3     4.277573128826    93.09930662    58.03628440
 C      1   2   3     4.480681328532    87.41905929   301.69702080
 C      2   1   3     4.488818751140    68.33576266   116.97426357
 C      9   1   2     2.530334567081   143.06078711    54.77176951
 C     10   2   1     2.526886886335   142.62271808   249.91322315
 C      9   1   2     2.823019689421    92.89905522   235.56643943
 C     10   2   1     2.823469312526    93.12841513    72.09947900
 C      1   2   3     2.292375265763    71.03869414   328.09286264
 C      2   1   3     2.287477521126    79.20845139    87.36038326
 C      3   2   1     2.288457564931    68.79268130    29.84998502
 C      4   3   2     2.294215592438    78.18772990   341.39438478
 H     11   9   1     2.040073532819   122.20934525   181.21887660
 H     12  10   2     2.039844674836   122.12768096   183.56899782
 H     13   9   1     2.057902858846   110.30430637    57.00876820
 H     13   9   1     2.055773893630   110.87724045   177.94432426
 H     13   9   1     2.056620487527   110.93247456   298.96188840
 H     14  10   2     2.055929709059   110.64923467    55.15220890
 H     14  10   2     2.055505759395   110.76551258   176.20204177
 H     14  10   2     2.057041646067   109.92198236   296.61105283
 H      5   3   2     1.900537374694    88.68042080   122.50438757
 H      6   4   3     1.896430645845    88.83767749   213.00323147
 H      7   1   2     1.906399570986    88.99102721    66.99431784
 H      8   2   1     1.909379865712    88.83489335   247.03428724

---------------------
BASIS SET INFORMATION
---------------------
There are 4 groups of distinct atoms

 Group   1 Type O   : 12s7p3d1f contracted to 6s4p3d1f pattern {621111/4111/111/1}
 Group   2 Type N   : 12s6p3d1f contracted to 6s3p3d1f pattern {621111/411/111/1}
 Group   3 Type C   : 12s6p3d1f contracted to 6s3p3d1f pattern {621111/411/111/1}
 Group   4 Type H   : 5s3p1d contracted to 3s3p1d pattern {311/111/1}

Atom   0O    basis set group =>   1
Atom   1O    basis set group =>   1
Atom   2O    basis set group =>   1
Atom   3O    basis set group =>   1
Atom   4N    basis set group =>   2
Atom   5N    basis set group =>   2
Atom   6N    basis set group =>   2
Atom   7N    basis set group =>   2
Atom   8C    basis set group =>   3
Atom   9C    basis set group =>   3
Atom  10C    basis set group =>   3
Atom  11C    basis set group =>   3
Atom  12C    basis set group =>   3
Atom  13C    basis set group =>   3
Atom  14C    basis set group =>   3
Atom  15C    basis set group =>   3
Atom  16C    basis set group =>   3
Atom  17C    basis set group =>   3
Atom  18H    basis set group =>   4
Atom  19H    basis set group =>   4
Atom  20H    basis set group =>   4
Atom  21H    basis set group =>   4
Atom  22H    basis set group =>   4
Atom  23H    basis set group =>   4
Atom  24H    basis set group =>   4
Atom  25H    basis set group =>   4
Atom  26H    basis set group =>   4
Atom  27H    basis set group =>   4
Atom  28H    basis set group =>   4
Atom  29H    basis set group =>   4
---------------------------------
AUXILIARY/J BASIS SET INFORMATION
---------------------------------
There are 4 groups of distinct atoms

 Group   1 Type O   : 12s5p4d2f1g contracted to 6s4p3d1f1g pattern {711111/2111/211/2/1}
 Group   2 Type N   : 12s5p4d2f1g contracted to 6s4p3d1f1g pattern {711111/2111/211/2/1}
 Group   3 Type C   : 12s5p4d2f1g contracted to 6s4p3d1f1g pattern {711111/2111/211/2/1}
 Group   4 Type H   : 5s2p1d contracted to 3s1p1d pattern {311/2/1}

Atom   0O    basis set group =>   1
Atom   1O    basis set group =>   1
Atom   2O    basis set group =>   1
Atom   3O    basis set group =>   1
Atom   4N    basis set group =>   2
Atom   5N    basis set group =>   2
Atom   6N    basis set group =>   2
Atom   7N    basis set group =>   2
Atom   8C    basis set group =>   3
Atom   9C    basis set group =>   3
Atom  10C    basis set group =>   3
Atom  11C    basis set group =>   3
Atom  12C    basis set group =>   3
Atom  13C    basis set group =>   3
Atom  14C    basis set group =>   3
Atom  15C    basis set group =>   3
Atom  16C    basis set group =>   3
Atom  17C    basis set group =>   3
Atom  18H    basis set group =>   4
Atom  19H    basis set group =>   4
Atom  20H    basis set group =>   4
Atom  21H    basis set group =>   4
Atom  22H    basis set group =>   4
Atom  23H    basis set group =>   4
Atom  24H    basis set group =>   4
Atom  25H    basis set group =>   4
Atom  26H    basis set group =>   4
Atom  27H    basis set group =>   4
Atom  28H    basis set group =>   4
Atom  29H    basis set group =>   4
[1738809168.393763] [ohm:3099753:0]        ib_iface.c:1059 UCX  ERROR ibv_create_cq(cqe=256) failed: Connection timed out
[1738809168.396623] [ohm:3099748:0]        ib_iface.c:1059 UCX  ERROR ibv_create_cq(cqe=256) failed: Connection timed out
[1738809168.415244] [ohm:3099757:0]        ib_iface.c:1059 UCX  ERROR ibv_create_cq(cqe=256) failed: Connection timed out
[1738809168.419759] [ohm:3099764:0]        ib_iface.c:1059 UCX  ERROR ibv_create_cq(cqe=256) failed: Connection timed out
[1738809168.422342] [ohm:3099755:0]        ib_iface.c:1059 UCX  ERROR ibv_create_cq(cqe=256) failed: Connection timed out
[1738809168.423612] [ohm:3099752:0]        ib_iface.c:1059 UCX  ERROR ibv_create_cq(cqe=256) failed: Connection timed out
[1738809168.424761] [ohm:3099766:0]        ib_iface.c:1059 UCX  ERROR ibv_create_cq(cqe=256) failed: Connection timed out
[1738809168.436162] [ohm:3099760:0]        ib_iface.c:1059 UCX  ERROR ibv_create_cq(cqe=256) failed: Connection timed out
[1738809168.438329] [ohm:3099747:0]        ib_iface.c:1059 UCX  ERROR ibv_create_cq(cqe=256) failed: Connection timed out
[1738809168.442138] [ohm:3099773:0]        ib_iface.c:1059 UCX  ERROR ibv_create_cq(cqe=256) failed: Connection timed out
[1738809168.446441] [ohm:3099769:0]        ib_iface.c:1059 UCX  ERROR ibv_create_cq(cqe=256) failed: Connection timed out
[1738809168.446526] [ohm:3099754:0]        ib_iface.c:1059 UCX  ERROR ibv_create_cq(cqe=256) failed: Connection timed out
[1738809168.450763] [ohm:3099772:0]        ib_iface.c:1059 UCX  ERROR ibv_create_cq(cqe=256) failed: Connection timed out
[1738809168.469438] [ohm:3099817:0]        ib_iface.c:1059 UCX  ERROR ibv_create_cq(cqe=256) failed: Connection timed out
[1738809168.473130] [ohm:3099784:0]        ib_iface.c:1059 UCX  ERROR ibv_create_cq(cqe=256) failed: Connection timed out
[1738809168.509126] [ohm:3099767:0]        ib_iface.c:1059 UCX  ERROR ibv_create_cq(cqe=256) failed: Connection timed out
[1738809168.517684] [ohm:3099840:0]        ib_iface.c:1059 UCX  ERROR ibv_create_cq(cqe=256) failed: Connection timed out
[1738809168.532549] [ohm:3099775:0]        ib_iface.c:1059 UCX  ERROR ibv_create_cq(cqe=256) failed: Connection timed out
[1738809168.565354] [ohm:3099749:0]        ib_iface.c:1059 UCX  ERROR ibv_create_cq(cqe=256) failed: Connection timed out
[1738809168.569440] [ohm:3099888:0]        ib_iface.c:1059 UCX  ERROR ibv_create_cq(cqe=256) failed: Connection timed out
[1738809168.579457] [ohm:3099821:0]        ib_iface.c:1059 UCX  ERROR ibv_create_cq(cqe=256) failed: Connection timed out
[1738809168.580194] [ohm:3099848:0]        ib_iface.c:1059 UCX  ERROR ibv_create_cq(cqe=256) failed: Connection timed out
[1738809168.581056] [ohm:3099834:0]        ib_iface.c:1059 UCX  ERROR ibv_create_cq(cqe=256) failed: Connection timed out
[1738809168.581843] [ohm:3099855:0]        ib_iface.c:1059 UCX  ERROR ibv_create_cq(cqe=256) failed: Connection timed out
[1738809168.590438] [ohm:3099783:0]        ib_iface.c:1059 UCX  ERROR ibv_create_cq(cqe=256) failed: Connection timed out
[1738809168.595161] [ohm:3099803:0]        ib_iface.c:1059 UCX  ERROR ibv_create_cq(cqe=256) failed: Connection timed out
[1738809168.596948] [ohm:3099862:0]        ib_iface.c:1059 UCX  ERROR ibv_create_cq(cqe=256) failed: Connection timed out
[1738809168.599586] [ohm:3099844:0]        ib_iface.c:1059 UCX  ERROR ibv_create_cq(cqe=256) failed: Connection timed out
[1738809168.601071] [ohm:3099884:0]        ib_iface.c:1059 UCX  ERROR ibv_create_cq(cqe=256) failed: Connection timed out
[1738809168.604116] [ohm:3099850:0]        ib_iface.c:1059 UCX  ERROR ibv_create_cq(cqe=256) failed: Connection timed out
[1738809168.605035] [ohm:3099880:0]        ib_iface.c:1059 UCX  ERROR ibv_create_cq(cqe=256) failed: Connection timed out
[1738809168.607750] [ohm:3099771:0]        ib_iface.c:1059 UCX  ERROR ibv_create_cq(cqe=256) failed: Connection timed out
[1738809168.610964] [ohm:3099798:0]        ib_iface.c:1059 UCX  ERROR ibv_create_cq(cqe=256) failed: Connection timed out
[1738809168.614648] [ohm:3099876:0]        ib_iface.c:1059 UCX  ERROR ibv_create_cq(cqe=256) failed: Connection timed out
[1738809168.621405] [ohm:3099852:0]        ib_iface.c:1059 UCX  ERROR ibv_create_cq(cqe=256) failed: Connection timed out
[1738809168.623094] [ohm:3099878:0]        ib_iface.c:1059 UCX  ERROR ibv_create_cq(cqe=256) failed: Connection timed out
[1738809168.628207] [ohm:3099824:0]        ib_iface.c:1059 UCX  ERROR ibv_create_cq(cqe=256) failed: Connection timed out
[1738809168.632010] [ohm:3099886:0]        ib_iface.c:1059 UCX  ERROR ibv_create_cq(cqe=256) failed: Connection timed out
[1738809168.654783] [ohm:3099836:0]        ib_iface.c:1059 UCX  ERROR ibv_create_cq(cqe=256) failed: Connection timed out
[1738809168.657105] [ohm:3099759:0]        ib_iface.c:1059 UCX  ERROR ibv_create_cq(cqe=256) failed: Connection timed out
[1738809168.658592] [ohm:3099770:0]        ib_iface.c:1059 UCX  ERROR ibv_create_cq(cqe=256) failed: Connection timed out
[1738809168.658790] [ohm:3099825:0]        ib_iface.c:1059 UCX  ERROR ibv_create_cq(cqe=256) failed: Connection timed out
[1738809168.661783] [ohm:3099778:0]        ib_iface.c:1059 UCX  ERROR ibv_create_cq(cqe=256) failed: Connection timed out
[1738809168.663775] [ohm:3099793:0]        ib_iface.c:1059 UCX  ERROR ibv_create_cq(cqe=256) failed: Connection timed out
[1738809168.663834] [ohm:3099812:0]        ib_iface.c:1059 UCX  ERROR ibv_create_cq(cqe=256) failed: Connection timed out
[1738809168.668944] [ohm:3099758:0]        ib_iface.c:1059 UCX  ERROR ibv_create_cq(cqe=256) failed: Connection timed out
[1738809168.672449] [ohm:3099777:0]        ib_iface.c:1059 UCX  ERROR ibv_create_cq(cqe=256) failed: Connection timed out
[1738809168.683546] [ohm:3099872:0]        ib_iface.c:1059 UCX  ERROR ibv_create_cq(cqe=256) failed: Connection timed out
[1738809168.684849] [ohm:3099768:0]        ib_iface.c:1059 UCX  ERROR ibv_create_cq(cqe=256) failed: Connection timed out
[1738809168.686360] [ohm:3099765:0]        ib_iface.c:1059 UCX  ERROR ibv_create_cq(cqe=256) failed: Connection timed out
[1738809168.689550] [ohm:3099774:0]        ib_iface.c:1059 UCX  ERROR ibv_create_cq(cqe=256) failed: Connection timed out
[1738809168.691744] [ohm:3099859:0]        ib_iface.c:1059 UCX  ERROR ibv_create_cq(cqe=256) failed: Connection timed out
[1738809168.692716] [ohm:3099756:0]        ib_iface.c:1059 UCX  ERROR ibv_create_cq(cqe=256) failed: Connection timed out
[1738809168.692851] [ohm:3099750:0]        ib_iface.c:1059 UCX  ERROR ibv_create_cq(cqe=256) failed: Connection timed out
[1738809168.694260] [ohm:3099790:0]        ib_iface.c:1059 UCX  ERROR ibv_create_cq(cqe=256) failed: Connection timed out
[1738809168.696155] [ohm:3099830:0]        ib_iface.c:1059 UCX  ERROR ibv_create_cq(cqe=256) failed: Connection timed out
[1738809168.696399] [ohm:3099829:0]        ib_iface.c:1059 UCX  ERROR ibv_create_cq(cqe=256) failed: Connection timed out
[1738809168.696973] [ohm:3099870:0]        ib_iface.c:1059 UCX  ERROR ibv_create_cq(cqe=256) failed: Connection timed out
[1738809168.698097] [ohm:3099865:0]        ib_iface.c:1059 UCX  ERROR ibv_create_cq(cqe=256) failed: Connection timed out
[1738809168.700260] [ohm:3099763:0]        ib_iface.c:1059 UCX  ERROR ibv_create_cq(cqe=256) failed: Connection timed out
[1738809168.700371] [ohm:3099751:0]        ib_iface.c:1059 UCX  ERROR ibv_create_cq(cqe=256) failed: Connection timed out
[1738809168.700376] [ohm:3099762:0]        ib_iface.c:1059 UCX  ERROR ibv_create_cq(cqe=256) failed: Connection timed out
[1738809168.701423] [ohm:3099761:0]        ib_iface.c:1059 UCX  ERROR ibv_create_cq(cqe=256) failed: Connection timed out
[1738809168.702685] [ohm:3099808:0]        ib_iface.c:1059 UCX  ERROR ibv_create_cq(cqe=256) failed: Connection timed out


           ************************************************************
           *        Program running with 64 parallel MPI-processes    *
           *              working on a common directory               *
           ************************************************************
------------------------------------------------------------------------------
                             ORCA STARTUP CALCULATIONS
                           -- RI-GTO INTEGRALS CHOSEN --
------------------------------------------------------------------------------
------------------------------------------------------------------------------
                   ___                                                        
                  /   \      - P O W E R E D   B Y -                         
                 /     \                                                     
                 |  |  |   _    _      __       _____    __    __             
                 |  |  |  | |  | |    /  \     |  _  \  |  |  /  |          
                  \  \/   | |  | |   /    \    | | | |  |  | /  /          
                 / \  \   | |__| |  /  /\  \   | |_| |  |  |/  /          
                |  |  |   |  __  | /  /__\  \  |    /   |      \           
                |  |  |   | |  | | |   __   |  |    \   |  |\   \          
                \     /   | |  | | |  |  |  |  | |\  \  |  | \   \       
                 \___/    |_|  |_| |__|  |__|  |_| \__\ |__|  \__/        
                                                                              
                      - O R C A' S   B I G   F R I E N D -                    
                                      &                                       
                       - I N T E G R A L  F E E D E R -                       
                                                                              
 v1 FN, 2020, v2 2021, v3 2022-2024                                           
------------------------------------------------------------------------------


----------------------
SHARK INTEGRAL PACKAGE
----------------------

Number of atoms                             ...     30
Number of basis functions                   ...    882
Number of shells                            ...    322
Maximum angular momentum                    ...      3
Integral batch strategy                     ... SHARK/LIBINT Hybrid
RI-J (if used) integral strategy            ... SPLIT-RIJ (Revised 2003 algorithm where possible)
Printlevel                                  ...      1
Contraction scheme used                     ... SEGMENTED contraction
Prescreening option                         ... SCHWARTZ
   Thresh                                   ... 2.500e-11
   Tcut                                     ... 2.500e-12
   Tpresel                                  ... 2.500e-12 
Coulomb Range Separation                    ... NOT USED
Exchange Range Separation                   ... Long Range
   Mu parameter                             ... 3.000e-01
   Scaling (regular/separated)              ... 1.500e-01 8.500e-01
Multipole approximations                    ... NOT USED
Finite Nucleus Model                        ... NOT USED
CABS basis                                  ... NOT available
Auxiliary Coulomb fitting basis             ... AVAILABLE
   # of basis functions in Aux-J            ...   1014
   # of shells in Aux-J                     ...    330
   Maximum angular momentum in Aux-J        ...      4
Auxiliary J/K fitting basis                 ... NOT available
Auxiliary Correlation fitting basis         ... NOT available
Auxiliary 'external' fitting basis          ... NOT available

Checking pre-screening integrals            ... done (  0.0 sec) Dimension = 322
Check shell pair data                       ... done (  0.0 sec)
Shell pair information
Shell pair cut-off parameter TPreSel        ...   2.5e-12
Total number of shell pairs                 ...     52003
Shell pairs after pre-screening             ...     45146
Total number of primitive shell pairs       ...    129718
Primitive shell pairs kept                  ...     83947
          la=0 lb=0:   8732 shell pairs
          la=1 lb=0:  11921 shell pairs
          la=1 lb=1:   4124 shell pairs
          la=2 lb=0:   8123 shell pairs
          la=2 lb=1:   5606 shell pairs
          la=2 lb=2:   1932 shell pairs
          la=3 lb=0:   2057 shell pairs
          la=3 lb=1:   1484 shell pairs
          la=3 lb=2:   1019 shell pairs
          la=3 lb=3:    148 shell pairs

Calculating one electron integrals          ... done (  0.2 sec)
Calculating RI/J V-Matrix + Cholesky decomp.... done (  0.1 sec)
Calculating Nuclear repulsion               ... done (  0.0 sec) ENN=   1448.133478455837 Eh

Diagonalization of the overlap matrix:
Smallest eigenvalue                        ... 5.470e-07
Time for diagonalization                   ...    0.125 sec
Threshold for overlap eigenvalues          ... 1.000e-07
Number of eigenvalues below threshold      ... 0

IMPORTANT:
Smallest eigenvalue of S below the DiffSThresh (1.000e-06) while
Thresh>1e-12 and/or TCut>1e-13! In order to avoid SCF convergence issues,
Thresh will be set to at least 1e-12 and TCut to at least 1e-13.
This can be turned off by adding %SCF DiffSThresh -1 END to the input.

Time for construction of square roots      ...    0.128 sec
Total time needed                          ...    0.269 sec

-------------------
DFT GRID GENERATION
-------------------

General Integration Accuracy     IntAcc      ... 4.388
Radial Grid Type                 RadialGrid  ... OptM3 with GC (2021)
Angular Grid (max. ang.)         AngularGrid ... 4 (Lebedev-302)
Angular grid pruning method      GridPruning ... 4 (adaptive)
Weight generation scheme         WeightScheme... mBecke (2022)
Basis function cutoff            BFCut       ... 1.0000e-11
Integration weight cutoff        WCut        ... 1.0000e-14
Partially contracted basis set               ... off
Rotationally invariant grid construction     ... off
Angular grids for H and He will be reduced by one unit
Diffuse basis detected: some atoms will have their outermost
                        angular grid increased by 1.

Total number of grid points                  ...   152234
Total number of batches                      ...     2392
Average number of points per batch           ...       63
Average number of grid points per atom       ...     5074

--------------------
COSX GRID GENERATION
--------------------

GRIDX 1
-------
General Integration Accuracy     IntAcc      ... 3.816
Radial Grid Type                 RadialGrid  ... OptM3 with GC (2021)
Angular Grid (max. ang.)         AngularGrid ... 1 (Lebedev-50)
Angular grid pruning method      GridPruning ... 4 (adaptive)
Weight generation scheme         WeightScheme... mBecke (2022)
Basis function cutoff            BFCut       ... 1.0000e-11
Integration weight cutoff        WCut        ... 1.0000e-14
Partially contracted basis set               ... on
Rotationally invariant grid construction     ... off
Angular grids for H and He will be reduced by one unit
Diffuse basis detected: some atoms will have their outermost
                        angular grid increased by 1.

Total number of grid points                  ...    19055
Total number of batches                      ...      166
Average number of points per batch           ...      114
Average number of grid points per atom       ...      635
UseSFitting                                  ... on

GRIDX 2
-------
General Integration Accuracy     IntAcc      ... 4.020
Radial Grid Type                 RadialGrid  ... OptM3 with GC (2021)
Angular Grid (max. ang.)         AngularGrid ... 2 (Lebedev-110)
Angular grid pruning method      GridPruning ... 4 (adaptive)
Weight generation scheme         WeightScheme... mBecke (2022)
Basis function cutoff            BFCut       ... 1.0000e-11
Integration weight cutoff        WCut        ... 1.0000e-14
Partially contracted basis set               ... on
Rotationally invariant grid construction     ... off
Angular grids for H and He will be reduced by one unit
Diffuse basis detected: some atoms will have their outermost
                        angular grid increased by 1.

Total number of grid points                  ...    45903
Total number of batches                      ...      374
Average number of points per batch           ...      122
Average number of grid points per atom       ...     1530
UseSFitting                                  ... on

GRIDX 3
-------
General Integration Accuracy     IntAcc      ... 4.338
Radial Grid Type                 RadialGrid  ... OptM3 with GC (2021)
Angular Grid (max. ang.)         AngularGrid ... 3 (Lebedev-194)
Angular grid pruning method      GridPruning ... 4 (adaptive)
Weight generation scheme         WeightScheme... mBecke (2022)
Basis function cutoff            BFCut       ... 1.0000e-11
Integration weight cutoff        WCut        ... 1.0000e-14
Partially contracted basis set               ... on
Rotationally invariant grid construction     ... off
Angular grids for H and He will be reduced by one unit
Diffuse basis detected: some atoms will have their outermost
                        angular grid increased by 1.

Total number of grid points                  ...   101143
Total number of batches                      ...      804
Average number of points per batch           ...      125
Average number of grid points per atom       ...     3371
UseSFitting                                  ... on
Initializing property integral containers    ... done (  0.0 sec)

SHARK setup successfully completed in   4.1 seconds

Maximum memory used throughout the entire STARTUP-calculation: 80.2 MB
[1738809174.718367] [ohm:3100089:0]        ib_iface.c:1059 UCX  ERROR ibv_create_cq(cqe=256) failed: Connection timed out
[1738809174.744531] [ohm:3100088:0]        ib_iface.c:1059 UCX  ERROR ibv_create_cq(cqe=256) failed: Connection timed out
[1738809174.745115] [ohm:3100087:0]        ib_iface.c:1059 UCX  ERROR ibv_create_cq(cqe=256) failed: Connection timed out
[1738809174.755173] [ohm:3100086:0]        ib_iface.c:1059 UCX  ERROR ibv_create_cq(cqe=256) failed: Connection timed out
[1738809174.759997] [ohm:3100103:0]        ib_iface.c:1059 UCX  ERROR ibv_create_cq(cqe=256) failed: Connection timed out
[1738809174.775991] [ohm:3100084:0]        ib_iface.c:1059 UCX  ERROR ibv_create_cq(cqe=256) failed: Connection timed out
[1738809174.777338] [ohm:3100095:0]        ib_iface.c:1059 UCX  ERROR ibv_create_cq(cqe=256) failed: Connection timed out
[1738809174.837179] [ohm:3100110:0]        ib_iface.c:1059 UCX  ERROR ibv_create_cq(cqe=256) failed: Connection timed out
[1738809174.855398] [ohm:3100159:0]        ib_iface.c:1059 UCX  ERROR ibv_create_cq(cqe=256) failed: Connection timed out
[1738809174.877878] [ohm:3100093:0]        ib_iface.c:1059 UCX  ERROR ibv_create_cq(cqe=256) failed: Connection timed out
[1738809174.898759] [ohm:3100205:0]        ib_iface.c:1059 UCX  ERROR ibv_create_cq(cqe=256) failed: Connection timed out
[1738809174.898863] [ohm:3100181:0]        ib_iface.c:1059 UCX  ERROR ibv_create_cq(cqe=256) failed: Connection timed out
[1738809174.908638] [ohm:3100210:0]        ib_iface.c:1059 UCX  ERROR ibv_create_cq(cqe=256) failed: Connection timed out
[1738809174.908823] [ohm:3100104:0]        ib_iface.c:1059 UCX  ERROR ibv_create_cq(cqe=256) failed: Connection timed out
[1738809174.911839] [ohm:3100207:0]        ib_iface.c:1059 UCX  ERROR ibv_create_cq(cqe=256) failed: Connection timed out
[1738809174.922515] [ohm:3100131:0]        ib_iface.c:1059 UCX  ERROR ibv_create_cq(cqe=256) failed: Connection timed out
[1738809174.924075] [ohm:3100092:0]        ib_iface.c:1059 UCX  ERROR ibv_create_cq(cqe=256) failed: Connection timed out
[1738809174.929558] [ohm:3100186:0]        ib_iface.c:1059 UCX  ERROR ibv_create_cq(cqe=256) failed: Connection timed out
[1738809174.950237] [ohm:3100115:0]        ib_iface.c:1059 UCX  ERROR ibv_create_cq(cqe=256) failed: Connection timed out
[1738809174.952425] [ohm:3100173:0]        ib_iface.c:1059 UCX  ERROR ibv_create_cq(cqe=256) failed: Connection timed out
[1738809174.966550] [ohm:3100102:0]        ib_iface.c:1059 UCX  ERROR ibv_create_cq(cqe=256) failed: Connection timed out
[1738809174.969513] [ohm:3100156:0]        ib_iface.c:1059 UCX  ERROR ibv_create_cq(cqe=256) failed: Connection timed out
[1738809174.971272] [ohm:3100213:0]        ib_iface.c:1059 UCX  ERROR ibv_create_cq(cqe=256) failed: Connection timed out
[1738809174.972297] [ohm:3100165:0]        ib_iface.c:1059 UCX  ERROR ibv_create_cq(cqe=256) failed: Connection timed out
[1738809174.972985] [ohm:3100106:0]        ib_iface.c:1059 UCX  ERROR ibv_create_cq(cqe=256) failed: Connection timed out
[1738809174.976210] [ohm:3100109:0]        ib_iface.c:1059 UCX  ERROR ibv_create_cq(cqe=256) failed: Connection timed out
[1738809174.981060] [ohm:3100127:0]        ib_iface.c:1059 UCX  ERROR ibv_create_cq(cqe=256) failed: Connection timed out
[1738809174.982335] [ohm:3100138:0]        ib_iface.c:1059 UCX  ERROR ibv_create_cq(cqe=256) failed: Connection timed out
[1738809174.983812] [ohm:3100168:0]        ib_iface.c:1059 UCX  ERROR ibv_create_cq(cqe=256) failed: Connection timed out
[1738809175.001417] [ohm:3100146:0]        ib_iface.c:1059 UCX  ERROR ibv_create_cq(cqe=256) failed: Connection timed out
[1738809175.003130] [ohm:3100113:0]        ib_iface.c:1059 UCX  ERROR ibv_create_cq(cqe=256) failed: Connection timed out
[1738809175.006722] [ohm:3100150:0]        ib_iface.c:1059 UCX  ERROR ibv_create_cq(cqe=256) failed: Connection timed out
[1738809175.015398] [ohm:3100216:0]        ib_iface.c:1059 UCX  ERROR ibv_create_cq(cqe=256) failed: Connection timed out
[1738809175.019471] [ohm:3100117:0]        ib_iface.c:1059 UCX  ERROR ibv_create_cq(cqe=256) failed: Connection timed out
[1738809175.021808] [ohm:3100179:0]        ib_iface.c:1059 UCX  ERROR ibv_create_cq(cqe=256) failed: Connection timed out
[1738809175.025691] [ohm:3100105:0]        ib_iface.c:1059 UCX  ERROR ibv_create_cq(cqe=256) failed: Connection timed out
[1738809175.032387] [ohm:3100094:0]        ib_iface.c:1059 UCX  ERROR ibv_create_cq(cqe=256) failed: Connection timed out
[1738809175.033112] [ohm:3100185:0]        ib_iface.c:1059 UCX  ERROR ibv_create_cq(cqe=256) failed: Connection timed out
[1738809175.035195] [ohm:3100136:0]        ib_iface.c:1059 UCX  ERROR ibv_create_cq(cqe=256) failed: Connection timed out
[1738809175.037853] [ohm:3100101:0]        ib_iface.c:1059 UCX  ERROR ibv_create_cq(cqe=256) failed: Connection timed out
[1738809175.040772] [ohm:3100122:0]        ib_iface.c:1059 UCX  ERROR ibv_create_cq(cqe=256) failed: Connection timed out
[1738809175.043142] [ohm:3100099:0]        ib_iface.c:1059 UCX  ERROR ibv_create_cq(cqe=256) failed: Connection timed out
[1738809175.059741] [ohm:3100111:0]        ib_iface.c:1059 UCX  ERROR ibv_create_cq(cqe=256) failed: Connection timed out
[1738809175.071084] [ohm:3100202:0]        ib_iface.c:1059 UCX  ERROR ibv_create_cq(cqe=256) failed: Connection timed out
[1738809175.073111] [ohm:3100221:0]        ib_iface.c:1059 UCX  ERROR ibv_create_cq(cqe=256) failed: Connection timed out
[1738809175.074242] [ohm:3100090:0]        ib_iface.c:1059 UCX  ERROR ibv_create_cq(cqe=256) failed: Connection timed out
[1738809175.075590] [ohm:3100107:0]        ib_iface.c:1059 UCX  ERROR ibv_create_cq(cqe=256) failed: Connection timed out
[1738809175.077697] [ohm:3100091:0]        ib_iface.c:1059 UCX  ERROR ibv_create_cq(cqe=256) failed: Connection timed out
[1738809175.078069] [ohm:3100108:0]        ib_iface.c:1059 UCX  ERROR ibv_create_cq(cqe=256) failed: Connection timed out
[1738809175.079081] [ohm:3100193:0]        ib_iface.c:1059 UCX  ERROR ibv_create_cq(cqe=256) failed: Connection timed out
[1738809175.079659] [ohm:3100098:0]        ib_iface.c:1059 UCX  ERROR ibv_create_cq(cqe=256) failed: Connection timed out
[1738809175.081549] [ohm:3100096:0]        ib_iface.c:1059 UCX  ERROR ibv_create_cq(cqe=256) failed: Connection timed out
[1738809175.082118] [ohm:3100200:0]        ib_iface.c:1059 UCX  ERROR ibv_create_cq(cqe=256) failed: Connection timed out
[1738809175.082459] [ohm:3100100:0]        ib_iface.c:1059 UCX  ERROR ibv_create_cq(cqe=256) failed: Connection timed out
[1738809175.084559] [ohm:3100225:0]        ib_iface.c:1059 UCX  ERROR ibv_create_cq(cqe=256) failed: Connection timed out
[1738809175.087694] [ohm:3100134:0]        ib_iface.c:1059 UCX  ERROR ibv_create_cq(cqe=256) failed: Connection timed out
[1738809175.088806] [ohm:3100142:0]        ib_iface.c:1059 UCX  ERROR ibv_create_cq(cqe=256) failed: Connection timed out
[1738809175.089698] [ohm:3100232:0]        ib_iface.c:1059 UCX  ERROR ibv_create_cq(cqe=256) failed: Connection timed out
[1738809175.089842] [ohm:3100097:0]        ib_iface.c:1059 UCX  ERROR ibv_create_cq(cqe=256) failed: Connection timed out
[1738809175.090403] [ohm:3100164:0]        ib_iface.c:1059 UCX  ERROR ibv_create_cq(cqe=256) failed: Connection timed out
[1738809175.091406] [ohm:3100139:0]        ib_iface.c:1059 UCX  ERROR ibv_create_cq(cqe=256) failed: Connection timed out
[1738809175.092816] [ohm:3100175:0]        ib_iface.c:1059 UCX  ERROR ibv_create_cq(cqe=256) failed: Connection timed out
[1738809175.093145] [ohm:3100085:0]        ib_iface.c:1059 UCX  ERROR ibv_create_cq(cqe=256) failed: Connection timed out
[1738809175.094904] [ohm:3100195:0]        ib_iface.c:1059 UCX  ERROR ibv_create_cq(cqe=256) failed: Connection timed out


           ************************************************************
           *        Program running with 64 parallel MPI-processes    *
           *              working on a common directory               *
           ************************************************************
-------------------------------------------------------------------------------
                                 ORCA GUESS
                   Start orbitals & Density for SCF / CASSCF
-------------------------------------------------------------------------------

------------
SCF SETTINGS
------------
Hamiltonian:
 Density Functional     Method          .... DFT(GTOs)
  Functional kind                       .... Exchange-Correlation
  Functional name                       .... wB97M-V exchange-correlation functional
  Functional family                     .... Hybrid MGGA
  Functional refs                              
    [ 0] N. Mardirossian and M. Head-Gordon.,  J. Chem. Phys. 144, 214110 (2016), doi: 10.1063/1.4952647
  Fraction of HF Exchange (short range) .... 0.1500
  Fraction of HF Exchange (long range)  .... 1.0000
  Range separation parameter mu         .... 0.3000
  Functional external parameters        .... 17
    Parameter  0 _cx00      =  8.500000e-01 : u^00 coefficient for exchange
    Parameter  1 _cx01      =  1.007000e+00 : u^01 coefficient for exchange
    Parameter  2 _cx10      =  2.590000e-01 : u^10 coefficient for exchange
    Parameter  3 _css00     =  4.430000e-01 : u^00 coefficient for same-spin correlation
    Parameter  4 _css04     = -1.437000e+00 : u^04 coefficient for same-spin correlation
    Parameter  5 _css10     = -4.535000e+00 : u^10 coefficient for same-spin correlation
    Parameter  6 _css20     = -3.390000e+00 : u^20 coefficient for same-spin correlation
    Parameter  7 _css43     =  4.278000e+00 : u^43 coefficient for same-spin correlation
    Parameter  8 _cos00     =  1.000000e+00 : u^00 coefficient for opposite-spin correlation
    Parameter  9 _cos10     =  1.358000e+00 : u^10 coefficient for opposite-spin correlation
    Parameter 10 _cos20     =  2.924000e+00 : u^20 coefficient for opposite-spin correlation
    Parameter 11 _cos21     = -8.812000e+00 : u^21 coefficient for opposite-spin correlation
    Parameter 12 _cos60     = -1.390000e+00 : u^60 coefficient for opposite-spin correlation
    Parameter 13 _cos61     =  9.142000e+00 : u^61 coefficient for opposite-spin correlation
    Parameter 14 _alpha     =  1.000000e+00 : fraction of HF exchange
    Parameter 15 _beta      = -8.500000e-01 : fraction of short-range exchange
    Parameter 16 _omega     =  3.000000e-01 : range-separation constant
 Long-range corrected/Screened/Range-Separated Hybrid DFT is turned on
   Amount of maximum screened exact exchange              ....  0.850000
   Range separation parameter mu (erf(mu*r12)/r12)        ....  0.300000
 RI-approximation to the Coulomb term is turned on
   Number of AuxJ basis functions       .... 1014
   RIJ-COSX (HFX calculated with COS-X)).... on


General Settings:
 Integral files         IntName         .... orca
 Hartree-Fock type      HFTyp           .... UHF
 Total Charge           Charge          ....    0
 Multiplicity           Mult            ....    3
 Number of Electrons    NEL             ....  132
 Basis Dimension        Dim             ....  882
 Nuclear Repulsion      ENuc            ....   1448.1334784558 Eh

Convergence Acceleration:
 AO-DIIS                CNVDIIS         .... on
   Start iteration      DIISMaxIt       ....    12
   Startup error        DIISStart       ....  0.200000
   # of expansion vecs  DIISMaxEq       ....     5
   Bias factor          DIISBfac        ....   1.050
   Max. coefficient     DIISMaxC        ....  10.000
 MO-DIIS                CNVKDIIS        .... off
 Trust-Rad. Augm. Hess. CNVTRAH         .... auto
   Auto Start mean grad. ratio tolernc. ....  1.125000
   Auto Start start iteration           ....    50
   Auto Start num. interpolation iter.  ....    10
   Max. Number of Micro iterations      ....    24
   Max. Number of Macro iterations      .... Maxiter - #DIIS iter
   Number of Davidson start vectors     ....     2
   Converg. threshold    (grad. norm)   ....   1.000e-05
   Grad. Scal. Fac. for Micro threshold ....   0.100
   Minimum threshold for Micro iter.    ....   1.000e-02
   NR start threshold (gradient norm)   ....   1.000e-04
   Initial trust radius                 ....   0.400
   Minimum AH scaling param. (alpha)    ....   1.000
   Maximum AH scaling param. (alpha)    .... 1000.000
   Quad. conv. algorithm                .... NR
   White noise on init. David. guess    .... on
   Maximum white noise                  ....   0.010
   Pseudo random numbers                .... off
   Inactive MOs                         .... canonical
   Orbital update algorithm             .... Taylor
   Preconditioner                       .... Diag
   Full preconditioner red. dimension   ....   250
 SOSCF                  CNVSOSCF        .... on
   Start iteration      SOSCFMaxIt      ....   150
   Startup grad/error   SOSCFStart      ....  0.003300
   Hessian update       SOSCFHessUp     .... L-BFGS
 Level Shifting         CNVShift        .... on
   Level shift para.    LevelShift      ....    0.2500
   Turn off err/grad.   ShiftErr        ....    0.0010
 Zerner damping         CNVZerner       .... off
 Static damping         CNVDamp         .... on
   Fraction old density DampFac         ....    0.7000
   Max. Damping (<1)    DampMax         ....    0.9800
   Min. Damping (>=0)   DampMin         ....    0.0000
   Turn off err/grad.   DampErr         ....    0.1000

SCF Procedure:
 Maximum # iterations   MaxIter         ....   125
 SCF integral mode      SCFMode         .... Direct
   Integral package                     .... SHARK and LIBINT hybrid scheme
 Reset frequency        DirectResetFreq ....    20
 Integral Threshold     Thresh          ....  1.000e-12 Eh
 Primitive CutOff       TCut            ....  1.000e-13 Eh

Convergence Tolerance:
 Convergence Check Mode ConvCheckMode   .... Total+1el-Energy
 Convergence forced     ConvForced      .... 1
 Energy Change          TolE            ....  1.000e-08 Eh
 1-El. energy change                    ....  1.000e-05 Eh
 Orbital Gradient       TolG            ....  1.000e-05
 Orbital Rotation angle TolX            ....  1.000e-05
 DIIS Error             TolErr          ....  5.000e-07

------------------------------
INITIAL GUESS: MODEL POTENTIAL
------------------------------
Loading Hartree-Fock densities                     ... done
Calculating cut-offs                               ... done
Initializing the effective Hamiltonian             ... done
Setting up the integral package (SHARK)            ... done
Starting the Coulomb interaction                   ... done (   0.1 sec)
Making the grid                                    ... done (   0.3 sec)
Mapping shells                                     ... done
Starting the XC term evaluation                    ... done (   0.1 sec)
  promolecular density results
     # of electrons  =    132.000332580
     EX              =   -113.588659016
     EC              =     -4.476466965
     EX+EC           =   -118.065125981
Transforming the Hamiltonian                       ... done (   0.1 sec)
Diagonalizing the Hamiltonian                      ... done (   0.1 sec)
Back transforming the eigenvectors                 ... done (   0.2 sec)
Now organizing SCF variables                       ... done
                      ------------------
                      INITIAL GUESS DONE (   1.2 sec)
                      ------------------
             **** ENERGY FILE WAS UPDATED (orca.en.tmp) ****
Finished Guess after   3.7 sec
Maximum memory used throughout the entire GUESS-calculation: 72.5 MB
[1738809179.021561] [ohm:3100422:0]        ib_iface.c:1059 UCX  ERROR ibv_create_cq(cqe=256) failed: Connection timed out
[1738809179.033342] [ohm:3100419:0]        ib_iface.c:1059 UCX  ERROR ibv_create_cq(cqe=256) failed: Connection timed out
[1738809179.034986] [ohm:3100413:0]        ib_iface.c:1059 UCX  ERROR ibv_create_cq(cqe=256) failed: Connection timed out
[1738809179.039980] [ohm:3100442:0]        ib_iface.c:1059 UCX  ERROR ibv_create_cq(cqe=256) failed: Connection timed out
[1738809179.046120] [ohm:3100415:0]        ib_iface.c:1059 UCX  ERROR ibv_create_cq(cqe=256) failed: Connection timed out
[1738809179.047593] [ohm:3100423:0]        ib_iface.c:1059 UCX  ERROR ibv_create_cq(cqe=256) failed: Connection timed out
[1738809179.051001] [ohm:3100412:0]        ib_iface.c:1059 UCX  ERROR ibv_create_cq(cqe=256) failed: Connection timed out
[1738809179.051656] [ohm:3100420:0]        ib_iface.c:1059 UCX  ERROR ibv_create_cq(cqe=256) failed: Connection timed out
[1738809179.066895] [ohm:3100414:0]        ib_iface.c:1059 UCX  ERROR ibv_create_cq(cqe=256) failed: Connection timed out
[1738809179.079977] [ohm:3100435:0]        ib_iface.c:1059 UCX  ERROR ibv_create_cq(cqe=256) failed: Connection timed out
[1738809179.088456] [ohm:3100473:0]        ib_iface.c:1059 UCX  ERROR ibv_create_cq(cqe=256) failed: Connection timed out
[1738809179.090184] [ohm:3100544:0]        ib_iface.c:1059 UCX  ERROR ibv_create_cq(cqe=256) failed: Connection timed out
[1738809179.090867] [ohm:3100479:0]        ib_iface.c:1059 UCX  ERROR ibv_create_cq(cqe=256) failed: Connection timed out
[1738809179.106491] [ohm:3100510:0]        ib_iface.c:1059 UCX  ERROR ibv_create_cq(cqe=256) failed: Connection timed out
[1738809179.119167] [ohm:3100438:0]        ib_iface.c:1059 UCX  ERROR ibv_create_cq(cqe=256) failed: Connection timed out
[1738809179.144455] [ohm:3100426:0]        ib_iface.c:1059 UCX  ERROR ibv_create_cq(cqe=256) failed: Connection timed out
[1738809179.160342] [ohm:3100427:0]        ib_iface.c:1059 UCX  ERROR ibv_create_cq(cqe=256) failed: Connection timed out
[1738809179.170024] [ohm:3100453:0]        ib_iface.c:1059 UCX  ERROR ibv_create_cq(cqe=256) failed: Connection timed out
[1738809179.174358] [ohm:3100523:0]        ib_iface.c:1059 UCX  ERROR ibv_create_cq(cqe=256) failed: Connection timed out
[1738809179.179708] [ohm:3100418:0]        ib_iface.c:1059 UCX  ERROR ibv_create_cq(cqe=256) failed: Connection timed out
[1738809179.182034] [ohm:3100499:0]        ib_iface.c:1059 UCX  ERROR ibv_create_cq(cqe=256) failed: Connection timed out
[1738809179.184044] [ohm:3100431:0]        ib_iface.c:1059 UCX  ERROR ibv_create_cq(cqe=256) failed: Connection timed out
[1738809179.184673] [ohm:3100483:0]        ib_iface.c:1059 UCX  ERROR ibv_create_cq(cqe=256) failed: Connection timed out
[1738809179.187621] [ohm:3100552:0]        ib_iface.c:1059 UCX  ERROR ibv_create_cq(cqe=256) failed: Connection timed out
[1738809179.200913] [ohm:3100425:0]        ib_iface.c:1059 UCX  ERROR ibv_create_cq(cqe=256) failed: Connection timed out
[1738809179.215284] [ohm:3100494:0]        ib_iface.c:1059 UCX  ERROR ibv_create_cq(cqe=256) failed: Connection timed out
[1738809179.226627] [ohm:3100436:0]        ib_iface.c:1059 UCX  ERROR ibv_create_cq(cqe=256) failed: Connection timed out
[1738809179.227595] [ohm:3100540:0]        ib_iface.c:1059 UCX  ERROR ibv_create_cq(cqe=256) failed: Connection timed out
[1738809179.232684] [ohm:3100559:0]        ib_iface.c:1059 UCX  ERROR ibv_create_cq(cqe=256) failed: Connection timed out
[1738809179.234377] [ohm:3100491:0]        ib_iface.c:1059 UCX  ERROR ibv_create_cq(cqe=256) failed: Connection timed out
[1738809179.235555] [ohm:3100503:0]        ib_iface.c:1059 UCX  ERROR ibv_create_cq(cqe=256) failed: Connection timed out
[1738809179.239975] [ohm:3100430:0]        ib_iface.c:1059 UCX  ERROR ibv_create_cq(cqe=256) failed: Connection timed out
[1738809179.246170] [ohm:3100519:0]        ib_iface.c:1059 UCX  ERROR ibv_create_cq(cqe=256) failed: Connection timed out
[1738809179.253401] [ohm:3100432:0]        ib_iface.c:1059 UCX  ERROR ibv_create_cq(cqe=256) failed: Connection timed out
[1738809179.260144] [ohm:3100555:0]        ib_iface.c:1059 UCX  ERROR ibv_create_cq(cqe=256) failed: Connection timed out
[1738809179.262096] [ohm:3100459:0]        ib_iface.c:1059 UCX  ERROR ibv_create_cq(cqe=256) failed: Connection timed out
[1738809179.268017] [ohm:3100530:0]        ib_iface.c:1059 UCX  ERROR ibv_create_cq(cqe=256) failed: Connection timed out
[1738809179.274613] [ohm:3100515:0]        ib_iface.c:1059 UCX  ERROR ibv_create_cq(cqe=256) failed: Connection timed out
[1738809179.281460] [ohm:3100496:0]        ib_iface.c:1059 UCX  ERROR ibv_create_cq(cqe=256) failed: Connection timed out
[1738809179.281460] [ohm:3100487:0]        ib_iface.c:1059 UCX  ERROR ibv_create_cq(cqe=256) failed: Connection timed out
[1738809179.282844] [ohm:3100451:0]        ib_iface.c:1059 UCX  ERROR ibv_create_cq(cqe=256) failed: Connection timed out
[1738809179.284965] [ohm:3100433:0]        ib_iface.c:1059 UCX  ERROR ibv_create_cq(cqe=256) failed: Connection timed out
[1738809179.289619] [ohm:3100462:0]        ib_iface.c:1059 UCX  ERROR ibv_create_cq(cqe=256) failed: Connection timed out
[1738809179.290453] [ohm:3100526:0]        ib_iface.c:1059 UCX  ERROR ibv_create_cq(cqe=256) failed: Connection timed out
[1738809179.293880] [ohm:3100513:0]        ib_iface.c:1059 UCX  ERROR ibv_create_cq(cqe=256) failed: Connection timed out
[1738809179.294752] [ohm:3100458:0]        ib_iface.c:1059 UCX  ERROR ibv_create_cq(cqe=256) failed: Connection timed out
[1738809179.297868] [ohm:3100417:0]        ib_iface.c:1059 UCX  ERROR ibv_create_cq(cqe=256) failed: Connection timed out
[1738809179.298281] [ohm:3100428:0]        ib_iface.c:1059 UCX  ERROR ibv_create_cq(cqe=256) failed: Connection timed out
[1738809179.301546] [ohm:3100429:0]        ib_iface.c:1059 UCX  ERROR ibv_create_cq(cqe=256) failed: Connection timed out
[1738809179.306194] [ohm:3100468:0]        ib_iface.c:1059 UCX  ERROR ibv_create_cq(cqe=256) failed: Connection timed out
[1738809179.307407] [ohm:3100466:0]        ib_iface.c:1059 UCX  ERROR ibv_create_cq(cqe=256) failed: Connection timed out
[1738809179.310336] [ohm:3100444:0]        ib_iface.c:1059 UCX  ERROR ibv_create_cq(cqe=256) failed: Connection timed out
[1738809179.310385] [ohm:3100424:0]        ib_iface.c:1059 UCX  ERROR ibv_create_cq(cqe=256) failed: Connection timed out
[1738809179.311473] [ohm:3100533:0]        ib_iface.c:1059 UCX  ERROR ibv_create_cq(cqe=256) failed: Connection timed out
[1738809179.320534] [ohm:3100464:0]        ib_iface.c:1059 UCX  ERROR ibv_create_cq(cqe=256) failed: Connection timed out
[1738809179.321293] [ohm:3100536:0]        ib_iface.c:1059 UCX  ERROR ibv_create_cq(cqe=256) failed: Connection timed out
[1738809179.321982] [ohm:3100546:0]        ib_iface.c:1059 UCX  ERROR ibv_create_cq(cqe=256) failed: Connection timed out
[1738809179.323176] [ohm:3100521:0]        ib_iface.c:1059 UCX  ERROR ibv_create_cq(cqe=256) failed: Connection timed out
[1738809179.325004] [ohm:3100439:0]        ib_iface.c:1059 UCX  ERROR ibv_create_cq(cqe=256) failed: Connection timed out
[1738809179.326028] [ohm:3100506:0]        ib_iface.c:1059 UCX  ERROR ibv_create_cq(cqe=256) failed: Connection timed out
[1738809179.328822] [ohm:3100416:0]        ib_iface.c:1059 UCX  ERROR ibv_create_cq(cqe=256) failed: Connection timed out
[1738809179.328985] [ohm:3100434:0]        ib_iface.c:1059 UCX  ERROR ibv_create_cq(cqe=256) failed: Connection timed out
[1738809179.331694] [ohm:3100437:0]        ib_iface.c:1059 UCX  ERROR ibv_create_cq(cqe=256) failed: Connection timed out
[1738809179.331753] [ohm:3100421:0]        ib_iface.c:1059 UCX  ERROR ibv_create_cq(cqe=256) failed: Connection timed out


           ************************************************************
           *        Program running with 64 parallel MPI-processes    *
           *              working on a common directory               *
           ************************************************************

-------------------------------------------------------------------------------------------
                                      ORCA LEAN-SCF
                              memory conserving SCF solver
-------------------------------------------------------------------------------------------

----------------------------------------D-I-I-S--------------------------------------------
Iteration    Energy (Eh)           Delta-E    RMSDP     MaxDP     DIISErr   Damp  Time(sec)
-------------------------------------------------------------------------------------------
               ***  Starting incremental Fock matrix formation  ***
    1    -908.0767921613410181     0.00e+00  1.33e-03  2.11e-01  1.48e-01  0.700   7.8
    2    -908.3415084344264869    -2.65e-01  1.15e-03  1.34e-01  7.04e-02  0.700   6.5
                               ***Turning on AO-DIIS***
    3    -908.4604475525429734    -1.19e-01  8.81e-04  8.68e-02  2.72e-02  0.700   5.8
    4    -908.5329259482723501    -7.25e-02  2.19e-03  2.04e-01  1.92e-02  0.000   5.7
    5    -908.6939198230566035    -1.61e-01  3.19e-04  4.34e-02  4.14e-03  0.000   5.8
                              *** Initializing SOSCF ***
---------------------------------------S-O-S-C-F--------------------------------------
Iteration    Energy (Eh)           Delta-E    RMSDP     MaxDP     MaxGrad    Time(sec)
--------------------------------------------------------------------------------------
    6    -908.6948099245623780    -8.90e-04  2.47e-04  3.03e-02  1.80e-03     6.5
               *** Restarting incremental Fock matrix formation ***
    7    -908.6951920121723560    -3.82e-04  4.73e-04  5.55e-02  3.93e-03     7.4
Curvature condition for BFGS not met. Restarting diagonal Hessian.
    8    -908.6959301151300679    -7.38e-04  7.40e-03  1.32e+00  5.86e-03     7.5
    9    -908.6936417515635185     2.29e-03  5.99e-03  1.22e+00  7.25e-03     7.0
               *** Scaled step length from 0.272017 to 0.200000 ***
   10    -908.6970596581195423    -3.42e-03  9.95e-03  1.37e+00  1.12e-02     7.0
               *** Scaled step length from 5.399658 to 0.200000 ***
   11    -908.7033008180446814    -6.24e-03  1.67e-02  3.54e+00  1.73e-02     7.1
               *** Scaled step length from 0.625631 to 0.200000 ***
   12    -908.7087632258944723    -5.46e-03  1.76e-02  4.21e+00  2.07e-02     7.1
   13    -908.7130364987697249    -4.27e-03  3.21e-03  6.85e-01  1.92e-02     7.0
               *** Scaled step length from 0.215351 to 0.200000 ***
   14    -908.7185725078979885    -5.54e-03  2.43e-02  5.20e+00  1.32e-02     6.9
   15    -908.7296484522948958    -1.11e-02  1.87e-02  4.10e+00  9.75e-03     7.0
   16    -908.7370578333316189    -7.41e-03  1.69e-03  2.15e-01  3.06e-03     7.1
   17    -908.7378362630161064    -7.78e-04  4.26e-04  6.69e-02  1.84e-03     6.9
   18    -908.7381126849745669    -2.76e-04  3.06e-04  3.48e-02  9.65e-04     6.7
   19    -908.7381677350390419    -5.51e-05  8.82e-05  1.10e-02  4.06e-04     6.5
   20    -908.7381799237791711    -1.22e-05  3.75e-05  5.10e-03  3.38e-04     6.5
   21    -908.7381856929328023    -5.77e-06  3.89e-05  5.69e-03  1.65e-04     6.3
   22    -908.7381881696023811    -2.48e-06  1.76e-05  2.06e-03  7.93e-05     6.3
   23    -908.7381888928030094    -7.23e-07  1.45e-05  1.83e-03  3.65e-05     6.1
   24    -908.7381890592132550    -1.66e-07  5.58e-06  8.59e-04  3.12e-05     6.0
   25    -908.7381890814967846    -2.23e-08  2.66e-06  3.75e-04  2.17e-05     5.8
   26    -908.7381890874626151    -5.97e-09  1.08e-06  1.51e-04  6.98e-06     5.7
                 **** Energy Check signals convergence ****

               *****************************************************
               *                     SUCCESS                       *
               *           SCF CONVERGED AFTER  26 CYCLES          *
               *****************************************************

Recomputing exchange energy using gridx3       ... done (    7.842 sec)
Old exchange energy                            :    -35.040555759 Eh
New exchange energy                            :    -35.040553750 Eh
Exchange energy change after final integration :      0.000002009 Eh
Total energy after final integration           :   -908.738187078 Eh
             **** ENERGY FILE WAS UPDATED (orca.en.tmp) ****

----------------
TOTAL SCF ENERGY
----------------

Total Energy       :       -908.73818707804287 Eh          -24728.02322 eV

Components:
Nuclear Repulsion  :       1448.13347845583667 Eh           39405.71530 eV
Electronic Energy  :      -2356.87166754329883 Eh          -64133.73857 eV
One Electron Energy:      -4113.76771213103348 Eh         -111941.31043 eV
Two Electron Energy:       1756.89604458773442 Eh           47807.57186 eV

Virial components:
Potential Energy   :      -1814.99544706143388 Eh          -49388.53698 eV
Kinetic Energy     :        906.25725998339090 Eh           24660.51376 eV
Virial Ratio       :          2.00273755279455

DFT components:
N(Alpha)           :       67.000064598797 electrons
N(Beta)            :       65.000071235709 electrons
N(Total)           :      132.000135834506 electrons
E(XC)              :      -86.317531662856 Eh       

---------------
SCF CONVERGENCE
---------------

  Last Energy change         ...    5.9658e-09  Tolerance :   1.0000e-08
  Last MAX-Density change    ...    1.5125e-04  Tolerance :   1.0000e-07
  Last RMS-Density change    ...    1.0775e-06  Tolerance :   5.0000e-09
  Last DIIS Error            ...    1.7975e-03  Tolerance :   5.0000e-07
  Last Orbital Gradient      ...    6.9809e-06  Tolerance :   1.0000e-05
  Last Orbital Rotation      ...    4.7413e-05  Tolerance :   1.0000e-05


----------------------
UHF SPIN CONTAMINATION
----------------------

Warning: in a DFT calculation there is little theoretical justification to 
         calculate <S**2> as in Hartree-Fock theory. We will do it anyways
         but you should keep in mind that the values have only limited relevance

Expectation value of <S**2>     :     2.009934
Ideal value S*(S+1) for S=1.0   :     2.000000
Deviation                       :     0.009934

----------------
ORBITAL ENERGIES
----------------
                 SPIN UP ORBITALS
  NO   OCC          E(Eh)            E(eV) 
   0   1.0000     -19.331928      -526.0485 
   1   1.0000     -19.327712      -525.9338 
   2   1.0000     -19.322904      -525.8029 
   3   1.0000     -19.317951      -525.6682 
   4   1.0000     -14.592167      -397.0730 
   5   1.0000     -14.584181      -396.8557 
   6   1.0000     -14.570698      -396.4889 
   7   1.0000     -14.548265      -395.8784 
   8   1.0000     -10.514578      -286.1162 
   9   1.0000     -10.508818      -285.9595 
  10   1.0000     -10.478531      -285.1353 
  11   1.0000     -10.455684      -284.5136 
  12   1.0000     -10.431814      -283.8641 
  13   1.0000     -10.407817      -283.2111 
  14   1.0000     -10.395659      -282.8803 
  15   1.0000     -10.380180      -282.4591 
  16   1.0000     -10.371457      -282.2217 
  17   1.0000     -10.349076      -281.6127 
  18   1.0000      -1.228193       -33.4208 
  19   1.0000      -1.223872       -33.3033 
  20   1.0000      -1.193592       -32.4793 
  21   1.0000      -1.188490       -32.3405 
  22   1.0000      -1.124288       -30.5934 
  23   1.0000      -1.123057       -30.5599 
  24   1.0000      -1.070224       -29.1223 
  25   1.0000      -1.059463       -28.8295 
  26   1.0000      -0.974924       -26.5290 
  27   1.0000      -0.956119       -26.0173 
  28   1.0000      -0.857757       -23.3408 
  29   1.0000      -0.845963       -23.0198 
  30   1.0000      -0.810381       -22.0516 
  31   1.0000      -0.808401       -21.9977 
  32   1.0000      -0.794423       -21.6174 
  33   1.0000      -0.787766       -21.4362 
  34   1.0000      -0.700124       -19.0513 
  35   1.0000      -0.695253       -18.9188 
  36   1.0000      -0.691589       -18.8191 
  37   1.0000      -0.690307       -18.7842 
  38   1.0000      -0.644876       -17.5480 
  39   1.0000      -0.639248       -17.3948 
  40   1.0000      -0.627866       -17.0851 
  41   1.0000      -0.600737       -16.3469 
  42   1.0000      -0.597237       -16.2517 
  43   1.0000      -0.592910       -16.1339 
  44   1.0000      -0.572734       -15.5849 
  45   1.0000      -0.568688       -15.4748 
  46   1.0000      -0.567645       -15.4464 
  47   1.0000      -0.554690       -15.0939 
  48   1.0000      -0.549671       -14.9573 
  49   1.0000      -0.548960       -14.9380 
  50   1.0000      -0.531008       -14.4495 
  51   1.0000      -0.522030       -14.2052 
  52   1.0000      -0.516533       -14.0556 
  53   1.0000      -0.514123       -13.9900 
  54   1.0000      -0.509949       -13.8764 
  55   1.0000      -0.497477       -13.5370 
  56   1.0000      -0.493313       -13.4237 
  57   1.0000      -0.477348       -12.9893 
  58   1.0000      -0.420830       -11.4514 
  59   1.0000      -0.418751       -11.3948 
  60   1.0000      -0.405076       -11.0227 
  61   1.0000      -0.402861       -10.9624 
  62   1.0000      -0.389073       -10.5872 
  63   1.0000      -0.385570       -10.4919 
  64   1.0000      -0.385054       -10.4779 
  65   1.0000      -0.347667        -9.4605 
  66   1.0000      -0.207820        -5.6551 
  67   0.0000       0.011848         0.3224 
  68   0.0000       0.020319         0.5529 
  69   0.0000       0.033266         0.9052 
  70   0.0000       0.039168         1.0658 
  71   0.0000       0.042437         1.1548 
  72   0.0000       0.058059         1.5799 
  73   0.0000       0.058362         1.5881 
  74   0.0000       0.063939         1.7399 
  75   0.0000       0.067640         1.8406 
  76   0.0000       0.070122         1.9081 
  77   0.0000       0.073648         2.0041 

                 SPIN DOWN ORBITALS
  NO   OCC          E(Eh)            E(eV) 
   0   1.0000     -19.329976      -525.9954 
   1   1.0000     -19.327685      -525.9330 
   2   1.0000     -19.322936      -525.8038 
   3   1.0000     -19.311654      -525.4968 
   4   1.0000     -14.586814      -396.9274 
   5   1.0000     -14.583981      -396.8503 
   6   1.0000     -14.570695      -396.4888 
   7   1.0000     -14.547342      -395.8533 
   8   1.0000     -10.514587      -286.1165 
   9   1.0000     -10.509219      -285.9704 
  10   1.0000     -10.478521      -285.1351 
  11   1.0000     -10.455261      -284.5021 
  12   1.0000     -10.431686      -283.8606 
  13   1.0000     -10.398366      -282.9539 
  14   1.0000     -10.385459      -282.6027 
  15   1.0000     -10.380197      -282.4595 
  16   1.0000     -10.371935      -282.2347 
  17   1.0000     -10.349048      -281.6119 
  18   1.0000      -1.227222       -33.3944 
  19   1.0000      -1.220331       -33.2069 
  20   1.0000      -1.193515       -32.4772 
  21   1.0000      -1.179165       -32.0867 
  22   1.0000      -1.122854       -30.5544 
  23   1.0000      -1.113130       -30.2898 
  24   1.0000      -1.070120       -29.1195 
  25   1.0000      -1.053836       -28.6763 
  26   1.0000      -0.956464       -26.0267 
  27   1.0000      -0.950582       -25.8667 
  28   1.0000      -0.847058       -23.0496 
  29   1.0000      -0.845350       -23.0031 
  30   1.0000      -0.809835       -22.0367 
  31   1.0000      -0.797528       -21.7018 
  32   1.0000      -0.794222       -21.6119 
  33   1.0000      -0.780910       -21.2496 
  34   1.0000      -0.695107       -18.9148 
  35   1.0000      -0.691576       -18.8187 
  36   1.0000      -0.688271       -18.7288 
  37   1.0000      -0.682042       -18.5593 
  38   1.0000      -0.642849       -17.4928 
  39   1.0000      -0.630782       -17.1644 
  40   1.0000      -0.621780       -16.9195 
  41   1.0000      -0.597275       -16.2527 
  42   1.0000      -0.589726       -16.0473 
  43   1.0000      -0.584576       -15.9071 
  44   1.0000      -0.567613       -15.4455 
  45   1.0000      -0.562802       -15.3146 
  46   1.0000      -0.556121       -15.1328 
  47   1.0000      -0.549709       -14.9583 
  48   1.0000      -0.544713       -14.8224 
  49   1.0000      -0.542973       -14.7751 
  50   1.0000      -0.522471       -14.2172 
  51   1.0000      -0.515919       -14.0389 
  52   1.0000      -0.513684       -13.9780 
  53   1.0000      -0.505725       -13.7615 
  54   1.0000      -0.501191       -13.6381 
  55   1.0000      -0.495436       -13.4815 
  56   1.0000      -0.477688       -12.9985 
  57   1.0000      -0.444831       -12.1045 
  58   1.0000      -0.419843       -11.4245 
  59   1.0000      -0.414352       -11.2751 
  60   1.0000      -0.404267       -11.0007 
  61   1.0000      -0.386988       -10.5305 
  62   1.0000      -0.379124       -10.3165 
  63   1.0000      -0.376765       -10.2523 
  64   1.0000      -0.346552        -9.4302 
  65   0.0000      -0.106612        -2.9011 
  66   0.0000       0.010996         0.2992 
  67   0.0000       0.021298         0.5795 
  68   0.0000       0.031085         0.8459 
  69   0.0000       0.037397         1.0176 
  70   0.0000       0.042128         1.1463 
  71   0.0000       0.057992         1.5780 
  72   0.0000       0.058582         1.5941 
  73   0.0000       0.061103         1.6627 
  74   0.0000       0.066624         1.8129 
  75   0.0000       0.069816         1.8998 
*Only the first 10 virtual orbitals were printed.

                    ********************************
                    * MULLIKEN POPULATION ANALYSIS *
                    ********************************

--------------------------------------------
MULLIKEN ATOMIC CHARGES AND SPIN POPULATIONS
--------------------------------------------
   0 O :   -0.680664    0.231657
   1 O :   -0.656866   -0.001050
[...]
[1738809518.799190] [ohm:3101626:0]        ib_iface.c:1059 UCX  ERROR ibv_create_cq(cqe=256) failed: Connection timed out
[1738809518.802684] [ohm:3101590:0]        ib_iface.c:1059 UCX  ERROR ibv_create_cq(cqe=256) failed: Connection timed out
[1738809518.803258] [ohm:3101495:0]        ib_iface.c:1059 UCX  ERROR ibv_create_cq(cqe=256) failed: Connection timed out
[1738809518.804045] [ohm:3101580:0]        ib_iface.c:1059 UCX  ERROR ibv_create_cq(cqe=256) failed: Connection timed out
[1738809518.805366] [ohm:3101564:0]        ib_iface.c:1059 UCX  ERROR ibv_create_cq(cqe=256) failed: Connection timed out
[1738809518.805851] [ohm:3101526:0]        ib_iface.c:1059 UCX  ERROR ibv_create_cq(cqe=256) failed: Connection timed out
[1738809518.807969] [ohm:3101566:0]        ib_iface.c:1059 UCX  ERROR ibv_create_cq(cqe=256) failed: Connection timed out
[1738809518.811088] [ohm:3101527:0]        ib_iface.c:1059 UCX  ERROR ibv_create_cq(cqe=256) failed: Connection timed out
[1738809518.811295] [ohm:3101542:0]        ib_iface.c:1059 UCX  ERROR ibv_create_cq(cqe=256) failed: Connection timed out
[1738809518.812514] [ohm:3101560:0]        ib_iface.c:1059 UCX  ERROR ibv_create_cq(cqe=256) failed: Connection timed out


           ************************************************************
           *        Program running with 64 parallel MPI-processes    *
           *              working on a common directory               *
           ************************************************************

------------------------------------------------------------------------------
                              ORCA PROPERTY CALCULATIONS
------------------------------------------------------------------------------

GBWName                                 ... orca.gbw
Number of atoms                         ...     30
Number of basis functions               ...    882
Max core memory                         ...   1024 MB

Electric properties:
Dipole moment                           ... YES
Quadrupole moment                       ...  NO
Static polarizability (Dipole/Dipole)   ...  NO
Static polarizability (Dipole/Quad.)    ...  NO
Static polarizability (Quad./Quad.)     ...  NO
Static polarizability (Velocity)        ...  NO

Atomic electric properties:
Dipole moment                           ...  NO
Quadrupole moment                       ...  NO
Static polarizability                   ...  NO

Choice of electric origin               ... Center of mass
Position of electric origin             ...     0.009890     0.008259     0.091206

General magnetic properties:
Magnetizability                         ...  NO

EPR properties:
g-Tensor (aka g-matrix)                 ...  NO
Zero-Field splitting spin-orbit         ...  NO
Zero-field splitting spin-spin          ...  NO
Hyperfine couplings                     ...  NO (   0 nuclei)
Quadrupole couplings                    ...  NO (   0 nuclei)
Contact density                         ...  NO (   0 nuclei)

NMR properties:
Chemical shifts                         ...  NO (   0 nuclei)
Spin-rotation constants                 ...  NO (   0 nuclei)
Spin-spin couplings                     ...  NO (   0 nuclei,    0 pairs)

Choice of magnetic origin               ... GIAO
Position of magnetic origin             ...     0.000000     0.000000     0.000000

Properties with geometric perturbations:
SCF Hessian                             ...  NO
IR spectrum                             ...  NO
VCD spectrum                            ...  NO
X-ray spectroscopy properties:
SCF XES/XAS/RIXS spectra                ...  NO


-------------
DIPOLE MOMENT
-------------

Method             : SCF
Type of density    : Electron Density
Multiplicity       :   3
Irrep              :   0
Energy             :  -908.7381870780428699 Eh
Relativity type    : 
Basis              : AO
                                X                 Y                 Z
Electronic contribution:     -2.640297577      -9.831610827      -5.816621412
Nuclear contribution   :      2.117608703      10.767055787       8.312776556
                        -----------------------------------------
Total Dipole Moment    :     -0.522688874       0.935444960       2.496155145
                        -----------------------------------------
Magnitude (a.u.)       :      2.716440950
Magnitude (Debye)      :      6.904644175



--------------------
Rotational spectrum 
--------------------
 
Rotational constants in cm-1:             0.017183             0.015846             0.013522 
Rotational constants in MHz :           515.136613           475.063891           405.383749 

Dipole components along the rotational axes: 
x,y,z [a.u.] :     1.261519    -0.063483     2.404910 
x,y,z [Debye]:     3.206527    -0.161360     6.112794 

 

-------------
DIPOLE MOMENT
-------------

Method             : TDA/CIS
Type of density    : Electron Density
Level              : Relaxed density
State              :   2
Multiplicity       :   3
Irrep              :   0
Energy             :     0.0000000000000000 Eh
Relativity type    : 
Basis              : AO
                                X                 Y                 Z
Electronic contribution:     -2.689003095      -9.928450812      -5.815314138
Nuclear contribution   :      2.117608703      10.767055787       8.312776556
                        -----------------------------------------
Total Dipole Moment    :     -0.571394392       0.838604975       2.497462418
                        -----------------------------------------
Magnitude (a.u.)       :      2.695750060
Magnitude (Debye)      :      6.852052110



--------------------
Rotational spectrum 
--------------------
 
Rotational constants in cm-1:             0.017183             0.015846             0.013522 
Rotational constants in MHz :           515.136613           475.063891           405.383749 

Dipole components along the rotational axes: 
x,y,z [a.u.] :     1.212574    -0.160175     2.402306 
x,y,z [Debye]:     3.082119    -0.407134     6.106178 

 

Dipole moment calculation done in   0.2 sec 

Maximum memory used throughout the entire PROP-calculation: 81.7 MB
[1738809521.197743] [ohm:3101851:0]        ib_iface.c:1059 UCX  ERROR ibv_create_cq(cqe=256) failed: Connection timed out
[1738809521.207644] [ohm:3101831:0]        ib_iface.c:1059 UCX  ERROR ibv_create_cq(cqe=256) failed: Connection timed out
[1738809521.209499] [ohm:3101832:0]        ib_iface.c:1059 UCX  ERROR ibv_create_cq(cqe=256) failed: Connection timed out
[1738809521.215306] [ohm:3101833:0]        ib_iface.c:1059 UCX  ERROR ibv_create_cq(cqe=256) failed: Connection timed out
[1738809521.281296] [ohm:3101839:0]        ib_iface.c:1059 UCX  ERROR ibv_create_cq(cqe=256) failed: Connection timed out
[1738809521.281640] [ohm:3101843:0]        ib_iface.c:1059 UCX  ERROR ibv_create_cq(cqe=256) failed: Connection timed out
[1738809521.285648] [ohm:3101838:0]        ib_iface.c:1059 UCX  ERROR ibv_create_cq(cqe=256) failed: Connection timed out
[1738809521.291982] [ohm:3101840:0]        ib_iface.c:1059 UCX  ERROR ibv_create_cq(cqe=256) failed: Connection timed out
[1738809521.298064] [ohm:3101836:0]        ib_iface.c:1059 UCX  ERROR ibv_create_cq(cqe=256) failed: Connection timed out
[1738809521.299886] [ohm:3101862:0]        ib_iface.c:1059 UCX  ERROR ibv_create_cq(cqe=256) failed: Connection timed out
[1738809521.300464] [ohm:3101890:0]        ib_iface.c:1059 UCX  ERROR ibv_create_cq(cqe=256) failed: Connection timed out
[1738809521.302072] [ohm:3101864:0]        ib_iface.c:1059 UCX  ERROR ibv_create_cq(cqe=256) failed: Connection timed out
[1738809521.305355] [ohm:3101856:0]        ib_iface.c:1059 UCX  ERROR ibv_create_cq(cqe=256) failed: Connection timed out
[1738809521.308624] [ohm:3101885:0]        ib_iface.c:1059 UCX  ERROR ibv_create_cq(cqe=256) failed: Connection timed out
[1738809521.314229] [ohm:3101841:0]        ib_iface.c:1059 UCX  ERROR ibv_create_cq(cqe=256) failed: Connection timed out
[1738809521.331321] [ohm:3101932:0]        ib_iface.c:1059 UCX  ERROR ibv_create_cq(cqe=256) failed: Connection timed out
[1738809521.334723] [ohm:3101842:0]        ib_iface.c:1059 UCX  ERROR ibv_create_cq(cqe=256) failed: Connection timed out
[1738809521.345400] [ohm:3101857:0]        ib_iface.c:1059 UCX  ERROR ibv_create_cq(cqe=256) failed: Connection timed out
[1738809521.350003] [ohm:3101961:0]        ib_iface.c:1059 UCX  ERROR ibv_create_cq(cqe=256) failed: Connection timed out
[1738809521.421513] [ohm:3101928:0]        ib_iface.c:1059 UCX  ERROR ibv_create_cq(cqe=256) failed: Connection timed out
[1738809521.422419] [ohm:3101845:0]        ib_iface.c:1059 UCX  ERROR ibv_create_cq(cqe=256) failed: Connection timed out
[1738809521.438771] [ohm:3101868:0]        ib_iface.c:1059 UCX  ERROR ibv_create_cq(cqe=256) failed: Connection timed out
[1738809521.440499] [ohm:3101861:0]        ib_iface.c:1059 UCX  ERROR ibv_create_cq(cqe=256) failed: Connection timed out
[1738809521.448856] [ohm:3101922:0]        ib_iface.c:1059 UCX  ERROR ibv_create_cq(cqe=256) failed: Connection timed out
[1738809521.449075] [ohm:3101844:0]        ib_iface.c:1059 UCX  ERROR ibv_create_cq(cqe=256) failed: Connection timed out
[1738809521.449929] [ohm:3101920:0]        ib_iface.c:1059 UCX  ERROR ibv_create_cq(cqe=256) failed: Connection timed out
[1738809521.455904] [ohm:3101837:0]        ib_iface.c:1059 UCX  ERROR ibv_create_cq(cqe=256) failed: Connection timed out
[1738809521.455928] [ohm:3101943:0]        ib_iface.c:1059 UCX  ERROR ibv_create_cq(cqe=256) failed: Connection timed out
[1738809521.469642] [ohm:3101849:0]        ib_iface.c:1059 UCX  ERROR ibv_create_cq(cqe=256) failed: Connection timed out
[1738809521.469818] [ohm:3101902:0]        ib_iface.c:1059 UCX  ERROR ibv_create_cq(cqe=256) failed: Connection timed out
[1738809521.471864] [ohm:3101973:0]        ib_iface.c:1059 UCX  ERROR ibv_create_cq(cqe=256) failed: Connection timed out
[1738809521.479274] [ohm:3101948:0]        ib_iface.c:1059 UCX  ERROR ibv_create_cq(cqe=256) failed: Connection timed out
[1738809521.480023] [ohm:3101914:0]        ib_iface.c:1059 UCX  ERROR ibv_create_cq(cqe=256) failed: Connection timed out
[1738809521.481264] [ohm:3101957:0]        ib_iface.c:1059 UCX  ERROR ibv_create_cq(cqe=256) failed: Connection timed out
[1738809521.488478] [ohm:3101976:0]        ib_iface.c:1059 UCX  ERROR ibv_create_cq(cqe=256) failed: Connection timed out
[1738809521.489821] [ohm:3101935:0]        ib_iface.c:1059 UCX  ERROR ibv_create_cq(cqe=256) failed: Connection timed out
[1738809521.491579] [ohm:3101971:0]        ib_iface.c:1059 UCX  ERROR ibv_create_cq(cqe=256) failed: Connection timed out
[1738809521.498735] [ohm:3101888:0]        ib_iface.c:1059 UCX  ERROR ibv_create_cq(cqe=256) failed: Connection timed out
[1738809521.499092] [ohm:3101966:0]        ib_iface.c:1059 UCX  ERROR ibv_create_cq(cqe=256) failed: Connection timed out
[1738809521.500217] [ohm:3101830:0]        ib_iface.c:1059 UCX  ERROR ibv_create_cq(cqe=256) failed: Connection timed out
[1738809521.509895] [ohm:3101879:0]        ib_iface.c:1059 UCX  ERROR ibv_create_cq(cqe=256) failed: Connection timed out
[1738809521.512971] [ohm:3101834:0]        ib_iface.c:1059 UCX  ERROR ibv_create_cq(cqe=256) failed: Connection timed out
[1738809521.515495] [ohm:3101982:0]        ib_iface.c:1059 UCX  ERROR ibv_create_cq(cqe=256) failed: Connection timed out
[1738809521.516023] [ohm:3101878:0]        ib_iface.c:1059 UCX  ERROR ibv_create_cq(cqe=256) failed: Connection timed out
[1738809521.520118] [ohm:3101925:0]        ib_iface.c:1059 UCX  ERROR ibv_create_cq(cqe=256) failed: Connection timed out
[1738809521.520175] [ohm:3101900:0]        ib_iface.c:1059 UCX  ERROR ibv_create_cq(cqe=256) failed: Connection timed out
[1738809521.523138] [ohm:3101952:0]        ib_iface.c:1059 UCX  ERROR ibv_create_cq(cqe=256) failed: Connection timed out
[1738809521.523393] [ohm:3101893:0]        ib_iface.c:1059 UCX  ERROR ibv_create_cq(cqe=256) failed: Connection timed out
[1738809521.524403] [ohm:3101858:0]        ib_iface.c:1059 UCX  ERROR ibv_create_cq(cqe=256) failed: Connection timed out
[1738809521.530632] [ohm:3101923:0]        ib_iface.c:1059 UCX  ERROR ibv_create_cq(cqe=256) failed: Connection timed out
[1738809521.532638] [ohm:3101917:0]        ib_iface.c:1059 UCX  ERROR ibv_create_cq(cqe=256) failed: Connection timed out
[1738809521.537253] [ohm:3101883:0]        ib_iface.c:1059 UCX  ERROR ibv_create_cq(cqe=256) failed: Connection timed out
[1738809521.537931] [ohm:3101872:0]        ib_iface.c:1059 UCX  ERROR ibv_create_cq(cqe=256) failed: Connection timed out
[1738809521.537918] [ohm:3101937:0]        ib_iface.c:1059 UCX  ERROR ibv_create_cq(cqe=256) failed: Connection timed out
[1738809521.541362] [ohm:3101897:0]        ib_iface.c:1059 UCX  ERROR ibv_create_cq(cqe=256) failed: Connection timed out
[1738809521.542800] [ohm:3101946:0]        ib_iface.c:1059 UCX  ERROR ibv_create_cq(cqe=256) failed: Connection timed out
[1738809521.544221] [ohm:3101909:0]        ib_iface.c:1059 UCX  ERROR ibv_create_cq(cqe=256) failed: Connection timed out
[1738809521.545921] [ohm:3101835:0]        ib_iface.c:1059 UCX  ERROR ibv_create_cq(cqe=256) failed: Connection timed out
[1738809521.546943] [ohm:3101887:0]        ib_iface.c:1059 UCX  ERROR ibv_create_cq(cqe=256) failed: Connection timed out
[1738809521.548981] [ohm:3101906:0]        ib_iface.c:1059 UCX  ERROR ibv_create_cq(cqe=256) failed: Connection timed out
[1738809521.548978] [ohm:3101950:0]        ib_iface.c:1059 UCX  ERROR ibv_create_cq(cqe=256) failed: Connection timed out
[1738809521.550472] [ohm:3101859:0]        ib_iface.c:1059 UCX  ERROR ibv_create_cq(cqe=256) failed: Connection timed out
[1738809521.550804] [ohm:3101985:0]        ib_iface.c:1059 UCX  ERROR ibv_create_cq(cqe=256) failed: Connection timed out
[1738809521.551038] [ohm:3101882:0]        ib_iface.c:1059 UCX  ERROR ibv_create_cq(cqe=256) failed: Connection timed out

--------------------------------
SUGGESTED CITATIONS FOR THIS RUN
--------------------------------

Below you find a list of papers that are relevant to this ORCA run
We neither can nor want to force you to cite these papers, but we appreciate if you do
You receive ORCA, which is the product of decades of hard work by many enthusiastic individuals, for free
The only thing we kindly ask in return is that you cite our papers,
We deeply appreciate it, if you show your appreciation for ORCA by not just citing the generic ORCA reference.

Please note that relegating all ORCA citations to the supporting information does *not* help us.
SI sections are not indexed - citations you put there will not count into any citation statistics
But we need these citations in order to attract the funding resources that allow us to do what we are doing

Therefore, if you are a happy ORCA user, please consider citing a few of the papers listed below in the main body of your paper

In addition to the list printed below, the program has created the file orca.bibtex that contains the list in bibtex format
You can import this file easily into all common literature databanks and citation aid programs


List of essential papers. We consider these as the minimum necessary citations

  1. Neese,F.
     Software update: the ORCA program system, version 5.0
     WIRES Comput. Molec. Sci., 2022 12(1)e1606
     doi.org/10.1002/wcms.1606

List of papers to cite with high priority. The work reported in these papers was absolutely
necessary for this run to complete.
Our perspective: the developers of density functionals and basis sets usually get cited in chemistry papers
Good! But without the algorithms to do something with them, the functionals or basis sets would not do anything.
Hence, in our opinion, the algorithm design and method developments papers are equally worthy of getting cited

  1. Neese,F.; Olbrich,G.
     Efficient use of the resolution of the identity approximation in time-dependent density functional calculations with hybrid density functionals
     Chem. Phys. Lett., 2002 362 170-178
     doi.org/10.1016/s0009-2614(02)01053-9
  2. Neese,F.
     An improvement of the resolution of the identity approximation for the formation of the Coulomb matrix
     J. Comp. Chem., 2003 24(14)1740-1747
     doi.org/10.1002/jcc.10318
  3. Neese,F.; Wennmohs,F.; Hansen,A.; Becker,U.
     Efficient, approximate and parallel Hartree-Fock and hybrid DFT calculations. A 'chain-of-spheres' algorithm for the Hartree-Fock exchange
     Chem. Phys., 2009 356(1-3)98-109
     doi.org/10.1016/j.chemphys.2008.10.036
  4. Petrenko,T.; Kossmann,S.; Neese,F.
     Efficient time-dependent density functional theory approximations for hybrid density functionals: Analytical gradients and parallelization
     J. Chem. Phys., 2011 134 054116
     doi.org/10.1063/1.3533441
  5. Helmich-Paris,B.; de Souza,B.; Neese,F.; Izsák,R.
     An improved chain of spheres for exchange algorithm
     J. Chem. Phys., 2021 155 104109
     doi.org/doi: 10.1063/5.0058766.
  6. Neese,F.
     The SHARK Integral Generation and Digestion System
     J. Comp. Chem., 2022  1-16
     doi.org/10.1002/jcc.26942
  7. Lehtola,S.; Steigemann,C.; Oliveira,M.; Marques,M.
     Recent developments in Libxc - A comprehensive library of functionals for density functional theory
     Software X, 2018 7 
     doi.org/10.1016/j.softx.2017.11.002
  8. Grimme,S.; Antony,J.; Ehrlich,S.; Krieg,H.
     A consistent and accurate ab initio parametrization of density functional dispersion correction (DFT-D) for the 94 elements H-Pu
     J. Chem. Phys., 2010 132 154104-XXXX
     doi.org/10.1063/1.3382344
  9. Grimme,S.; Ehrlich,S.; Goerigk,L.
     Effect of the damping function in dispersion corrected density functional theory
     J. Comput. Chem., 2011 32(7)1456-1465
     doi.org/10.1002/jcc.21759

List of suggested additional citations. These are papers that are important in the 'surrounding' of 
of this run, or papers that preceded the highly important papers. If you like your results we are grateful for a citation.

  1. Izsak,R.; Neese,F.
     An overlap fitted chain of spheres exchange method
     J. Chem. Phys., 2011 135 144105
     doi.org/10.1063/1.3646921
  2. Izsak,R.; Hansen,A.; Neese,F.
     The resolution of identity and chain of spheres approximations for the LPNO-CCSD singles Fock term
     Molec. Phys., 2012 110 2413-2417
     doi.org/10.1080/00268976.2012.687466
  3. Neese,F.
     The ORCA program system
     WIRES Comput. Molec. Sci., 2012 2(1)73-78
     doi.org/10.1002/wcms.81
  4. Izsak,R.; Neese,F.; Klopper,W.
     Robust fitting techniques in the chain of spheres approximation to the Fock exchange: The role of the complementary space
     J. Chem. Phys., 2013 139 
     doi.org/10.1063/1.4819264
  5. Neese,F.
     Software update: the ORCA program system, version 4.0
     WIRES Comput. Molec. Sci., 2018 8(1)1-6
     doi.org/10.1002/wcms.1327
  6. Neese,F.; Wennmohs,F.; Becker,U.; Riplinger,C.
     The ORCA quantum chemistry program package
     J. Chem. Phys., 2020 152 Art. No. L224108
     doi.org/10.1063/5.0004608

List of optional additional citations

  1. Neese,F.
     Approximate second-order SCF convergence for spin unrestricted wavefunctions
     Chem. Phys. Lett., 2000 325(1-3)93-98
     doi.org/10.1016/s0009-2614(00)00662-x

Timings for individual modules:

Sum of individual times          ...      352.837 sec (=   5.881 min)
Startup calculation              ...        6.283 sec (=   0.105 min)   1.8 %
SCF iterations                   ...      189.710 sec (=   3.162 min)  53.8 %
Property integrals               ...        4.057 sec (=   0.068 min)   1.1 %
Property calculations            ...        2.859 sec (=   0.048 min)   0.8 %
CIS module                       ...      149.928 sec (=   2.499 min)  42.5 %
                             ****ORCA TERMINATED NORMALLY****
TOTAL RUN TIME: 0 days 0 hours 5 minutes 54 seconds 827 msec
