
                                 *****************
                                 * O   R   C   A *
                                 *****************

                                            #,                                       
                                            ###                                      
                                            ####                                     
                                            #####                                    
                                            ######                                   
                                           ########,                                 
                                     ,,################,,,,,                         
                               ,,#################################,,                 
                          ,,##########################################,,             
                       ,#########################################, ''#####,          
                    ,#############################################,,   '####,        
                  ,##################################################,,,,####,       
                ,###########''''           ''''###############################       
              ,#####''   ,,,,##########,,,,          '''####'''          '####       
            ,##' ,,,,###########################,,,                        '##       
           ' ,,###''''                  '''############,,,                           
         ,,##''                                '''############,,,,        ,,,,,,###''
      ,#''                                            '''#######################'''  
     '                                                          ''''####''''         
             ,#######,   #######,   ,#######,      ##                                
            ,#'     '#,  ##    ##  ,#'     '#,    #''#        ,####,   ,####,        
            ##       ##  ##   ,#'  ##            #'  '#       #'       #'  '#        
            ##       ##  #######   ##           ,######,      #####,   #    #        
            '#,     ,#'  ##    ##  '#,     ,#' ,#      #,     #,   #   #,  ,#        
             '#######'   ##     ##  '#######'  #'      '#     '####' # '####'        



                #########################################################
                #                        -***-                          #
                #          Department of theory and spectroscopy        #
                #                                                       #
                #                      Frank Neese                      #
                #                                                       #
                #     Directorship, Architecture, Infrastructure        #
                #                    SHARK, DRIVERS                     #
                #        Core code/Algorithms in most modules           #
                #                                                       #
                #        Max Planck Institute fuer Kohlenforschung      #
                #                Kaiser Wilhelm Platz 1                 #
                #                 D-45470 Muelheim/Ruhr                 #
                #                      Germany                          #
                #                                                       #
                #                  All rights reserved                  #
                #                        -***-                          #
                #########################################################


                         Program Version 6.0.0  -   RELEASE  -


 With contributions from (in alphabetic order):
   Daniel Aravena         : Magnetic Suceptibility
   Michael Atanasov       : Ab Initio Ligand Field Theory (pilot matlab implementation)
   Alexander A. Auer      : GIAO ZORA, VPT2 properties, NMR spectrum
   Ute Becker             : All parallelization in ORCA, NUMFREQ, NUMCALC
   Giovanni Bistoni       : ED, misc. LED, open-shell LED, HFLD
   Martin Brehm           : Molecular dynamics
   Dmytro Bykov           : pre 5.0 version of the SCF Hessian
   Marcos Casanova-Páez   : Triplet and SCS-CIS(D). UHF-(DLPNO)-IP/EA/STEOM-CCSD. UHF-CVS-IP/STEOM-CCSD
   Vijay G. Chilkuri      : MRCI spin determinant printing, contributions to CSF-ICE
   Pauline Colinet        : FMM embedding
   Dipayan Datta          : RHF DLPNO-CCSD density
   Achintya Kumar Dutta   : EOM-CC, STEOM-CC
   Nicolas Foglia         : Exact transition moments, OPA infrastructure, MCD improvements
   Dmitry Ganyushin       : Spin-Orbit,Spin-Spin,Magnetic field MRCI
   Miquel Garcia          : C-PCM and meta-GGA Hessian, CCSD/C-PCM, Gaussian charge scheme
   Tiago L. C. Gouveia    : GS-ROHF, GS-ROCIS
   Yang Guo               : DLPNO-NEVPT2, F12-NEVPT2, CIM, IAO-localization
   Andreas Hansen         : Spin unrestricted coupled pair/coupled cluster methods
   Ingolf Harden          : AUTO-CI MPn and infrastructure 
   Benjamin Helmich-Paris : MC-RPA, TRAH-(SCF,CASSCF), AVAS, COSX integrals, SCF dyn. polar.
   Lee Huntington         : MR-EOM, pCC
   Robert Izsak           : Overlap fitted RIJCOSX, COSX-SCS-MP3, EOM
   Riya Kayal             : Wick's Theorem for AUTO-CI, AUTO-CI UHF-CCSDT
   Emily Kempfer          : AUTO-CI, RHF CISDT and CCSDT
   Christian Kollmar      : KDIIS, OOCD, Brueckner-CCSD(T), CCSD density, CASPT2, CASPT2-K, improved NEVPT2
   Axel Koslowski         : Symmetry handling
   Simone Kossmann        : Meta GGA functionals, TD-DFT gradient, OOMP2, (MP2 Hessian; deprecated post 5.0)
   Lucas Lang             : DCDCAS
   Marvin Lechner         : AUTO-CI (C++ implementation), FIC-MRCC
   Spencer Leger          : CASSCF response
   Dagmar Lenk            : GEPOL surface, SMD, ORCA-2-JSON
   Dimitrios Liakos       : Extrapolation schemes; Compound Job, initial MDCI parallelization
   Dimitrios Manganas     : Further ROCIS development; embedding schemes. LFT, Crystal Embedding
   Dimitrios Pantazis     : SARC Basis sets
   Anastasios Papadopoulos: AUTO-CI, single reference methods and gradients
   Taras Petrenko         : pre 6.0 DFT Hessian and TD-DFT gradient, (ASA, deprecated), ECA, 1-Electron XAS/XES, NRVS
   Peter Pinski           : DLPNO-MP2, DLPNO-MP2 Gradient
   Christoph Reimann      : Effective Core Potentials
   Marius Retegan         : Local ZFS, SOC
   Christoph Riplinger    : Optimizer, TS searches, QM/MM, DLPNO-CCSD(T), (RO)-DLPNO pert. Triples
   Michael Roemelt        : Original ROCIS implementation
   Masaaki Saitow         : Open-shell DLPNO-CCSD energy and density
   Barbara Sandhoefer     : DKH picture change effects
   Kantharuban Sivalingam : CASSCF convergence/infrastructure, NEVPT2 and variants, FIC-MRCI
   Bernardo de Souza      : ESD, SOC TD-DFT
   Georgi Stoychev        : AutoAux, RI-MP2 NMR, DLPNO-MP2 response, X2C
   Van Anh Tran           : RI-MP2 g-tensors
   Willem Van den Heuvel  : Paramagnetic NMR
   Zikuan Wang            : NOTCH, Electric field optimization 
   Frank Wennmohs         : Technical directorship and infrastructure
   Hang Xu                : AUTO-CI-Response properties 


 We gratefully acknowledge several colleagues who have allowed us to
 interface, adapt or use parts of their codes:
   Stefan Grimme, W. Hujo, H. Kruse, P. Pracht,  : VdW corrections, initial TS optimization,
                  C. Bannwarth, S. Ehlert,         DFT functionals, gCP, sTDA/sTD-DF
                  L. Wittmann, M. Mueller
   Ed Valeev, F. Pavosevic, A. Kumar             : LibInt (2-el integral package), F12 methods
   Garnet Chan, S. Sharma, J. Yang, R. Olivares  : DMRG
   Ulf Ekstrom                                   : XCFun DFT Library
   Mihaly Kallay                                 : mrcc  (arbitrary order and MRCC methods)
   Frank Weinhold                                : gennbo (NPA and NBO analysis)
   Simon Mueller                                 : openCOSMO-RS
   Christopher J. Cramer and Donald G. Truhlar   : smd solvation model
   Lars Goerigk                                  : TD-DFT with DH, B97 family of functionals
   V. Asgeirsson, H. Jonsson                     : NEB implementation
   FAccTs GmbH                                   : IRC, NEB, NEB-TS, DLPNO-Multilevel, CI-OPT
                                                   MM, QMMM, 2- and 3-layer-ONIOM, Crystal-QMMM,
                                                   LR-CPCM, SF, NACMEs, symmetry and pop. for TD-DFT,
                                                   nearIR, NL-DFT gradient (VV10), updates on ESD,
                                                   ML-optimized integration grids, MBIS, APM,
                                                   GOAT, DOCKER, SOLVATOR, interface openCOSMO-RS
   S Lehtola, MJT Oliveira, MAL Marques          : LibXC Library
   Liviu Ungur et al                             : ANISO software


 Your calculation uses the libint2 library for the computation of 2-el integrals
 For citations please refer to: http://libint.valeyev.net

 Your ORCA version has been built with support for libXC version: 6.2.2
 For citations please refer to: https://libxc.gitlab.io

 This ORCA versions uses:
   CBLAS   interface :  Fast vector & matrix operations
   LAPACKE interface :  Fast linear algebra routines
   SCALAPACK package :  Parallel linear algebra routines
   Shared memory     :  Shared parallel matrices
   BLAS/LAPACK       :  OpenBLAS 0.3.27  USE64BITINT DYNAMIC_ARCH NO_AFFINITY Zen SINGLE_THREADED
        Core in use  :  Zen
   Copyright (c) 2011-2014, The OpenBLAS Project


Your calculation utilizes the atom-pairwise dispersion correction
with the Becke-Johnson damping scheme (D3BJ)


Warning: RI is on but no J-basis has been assigned. Assigning Def2/J (nothing to worry about!)
================================================================================

----- Orbital basis set information -----
Your calculation utilizes the basis: def2-TZVPPD
   F. Weigend and R. Ahlrichs, Phys. Chem. Chem. Phys. 7, 3297 (2005).
   D. Rappoport and F. Furche, J. Chem. Phys. 133, 134105 (2010)
   D. Rappoport, J. Chem. Phys. 155, 124102 (2021).

----- AuxJ basis set information -----
Your calculation utilizes the auxiliary basis: def2/J
   F. Weigend, Phys. Chem. Chem. Phys. 8, 1057 (2006).

================================================================================
                                        WARNINGS
                       Please study these warnings very carefully!
================================================================================

Using LibXC functional ID 531 : wB97M-V exchange-correlation functional
[ 1]  N. Mardirossian and M. Head-Gordon.,  J. Chem. Phys. 144, 214110 (2016)
Using LibXC functional ID 531 : wB97M-V exchange-correlation functional
[ 1]  N. Mardirossian and M. Head-Gordon.,  J. Chem. Phys. 144, 214110 (2016)

WARNING: B97M-V or wB97M-V functional requested.
  ===> : libXC variant has now been activated.
         Any manually given DFX/HFX/RangeSep scaling parameters are IGNORED!

Your calculation utilizes LibXC
 by S Lehtola, C Steigemann, MJT Oliveira & MAL Marques
Please cite in your paper:
 S Lehtola, C Steigemann, MJT Oliveira & MAL Marques, SoftwareX, 7, (2018), 1.
   


WARNING: your system is open-shell and RHF/RKS was chosen
  ===> : WILL SWITCH to UHF/UKS

INFO   : Checking CIS options ...

WARNING: CIS/ROCIS methods need fully converged wavefunctions
  ===> : Setting SCFConvForced true
         You can overwrite this default with %scf ConvForced false 


================================================================================
                                       INPUT FILE
================================================================================
NAME = orca.inp
|  1> ! Engrad def2-TZVPPD wB97M-D3BJ 
|  2> %pal nprocs 8 end%pal nprocs 64 end 
|  3>  %tddft nroots 2 Iroot 1 
|  4> sf true 
|  5> end 
|  6> *xyz 0 3 
|  7> O   3.25624522091369 -1.39481768284148 2.52578418890813
|  8> O   -1.66540516583449 0.72849455188289 -2.57156925924772
|  9> O   1.5558814990702 -2.1469340241864 -1.64489427654193
| 10> O   -3.53237138252798 -0.95742407405097 1.18086395341408
| 11> N   1.4652514826594 -0.22566634570943 -0.31141906868331
| 12> N   -1.78101125468787 0.48014290208238 1.42231666298328
| 13> N   2.54950228981299 -2.09175987355822 0.43734114883044
| 14> N   -2.43956690912651 -0.23550575661353 -0.68090531446566
| 15> C   1.9066599145623 0.01685201139804 1.06635567299294
| 16> C   -0.80457382027915 1.58174944179353 -0.49899020595138
| 17> C   0.47214921917967 -0.21381588313953 0.77935224520372
| 18> C   -0.52310152125112 0.93321179133551 0.85029110513583
| 19> C   2.47821503882856 1.34881706204879 1.44753400603408
| 20> C   -1.52259622295326 2.9237650857146 -0.34995533705623
| 21> C   2.65856008115118 -1.21413837804805 1.50052366110542
| 22> C   -1.64242214820108 0.66649486908773 -1.36904650477408
| 23> C   1.83112131831112 -1.57371395944315 -0.63655279802837
| 24> C   -2.64789636037495 -0.28941557579114 0.69681632065687
| 25> H   0.06110036853471 -1.17846632541165 1.05138722994199
| 26> H   -0.13486998383052 1.69762958559295 1.51986752969551
| 27> H   1.95191239198383 2.15475833972743 0.94443629296192
| 28> H   2.41098297450357 1.48933028570916 2.52402759813693
| 29> H   3.52690746645453 1.39960008765628 1.1649174143549
| 30> H   -2.45814542677438 2.81070198453168 0.1938553837964
| 31> H   -0.89392315561052 3.62656009915253 0.19438485766914
| 32> H   -1.73703061228311 3.34134411848113 -1.3297060699538
| 33> H   0.13046409159866 1.71963339378753 -1.03266478797515
| 34> H   -1.85393584466499 0.34619219147964 2.41527543152512
| 35> H   2.90468696424221 -3.03258690564114 0.44725091033772
| 36> H   -3.0701905134068 -0.79603301702714 -1.23227799100672
| 37> *
| 38> 
| 39>                          ****END OF INPUT****
================================================================================

                     *******************************
                     * Energy+Gradient Calculation *
                     *******************************

---------------------------------
CARTESIAN COORDINATES (ANGSTROEM)
---------------------------------
  O      3.256245   -1.394818    2.525784
  O     -1.665405    0.728495   -2.571569
  O      1.555881   -2.146934   -1.644894
  O     -3.532371   -0.957424    1.180864
  N      1.465251   -0.225666   -0.311419
  N     -1.781011    0.480143    1.422317
  N      2.549502   -2.091760    0.437341
  N     -2.439567   -0.235506   -0.680905
  C      1.906660    0.016852    1.066356
  C     -0.804574    1.581749   -0.498990
  C      0.472149   -0.213816    0.779352
  C     -0.523102    0.933212    0.850291
  C      2.478215    1.348817    1.447534
  C     -1.522596    2.923765   -0.349955
  C      2.658560   -1.214138    1.500524
  C     -1.642422    0.666495   -1.369047
  C      1.831121   -1.573714   -0.636553
  C     -2.647896   -0.289416    0.696816
  H      0.061100   -1.178466    1.051387
  H     -0.134870    1.697630    1.519868
  H      1.951912    2.154758    0.944436
  H      2.410983    1.489330    2.524028
  H      3.526907    1.399600    1.164917
  H     -2.458145    2.810702    0.193855
  H     -0.893923    3.626560    0.194385
  H     -1.737031    3.341344   -1.329706
  H      0.130464    1.719633   -1.032665
  H     -1.853936    0.346192    2.415275
  H      2.904687   -3.032587    0.447251
  H     -3.070191   -0.796033   -1.232278

----------------------------
CARTESIAN COORDINATES (A.U.)
----------------------------
  NO LB      ZA    FRAG     MASS         X           Y           Z
   0 O     8.0000    0    15.999    6.153412   -2.635823    4.773040
   1 O     8.0000    0    15.999   -3.147160    1.376655   -4.859562
   2 O     8.0000    0    15.999    2.940190   -4.057117   -3.108400
   3 O     8.0000    0    15.999   -6.675215   -1.809269    2.231509
   4 N     7.0000    0    14.007    2.768924   -0.426448   -0.588497
   5 N     7.0000    0    14.007   -3.365624    0.907339    2.687789
   6 N     7.0000    0    14.007    4.817861   -3.952853    0.826455
   7 N     7.0000    0    14.007   -4.610113   -0.445041   -1.286725
   8 C     6.0000    0    12.011    3.603065    0.031846    2.015120
   9 C     6.0000    0    12.011   -1.520424    2.989073   -0.942955
  10 C     6.0000    0    12.011    0.892233   -0.404053    1.472762
  11 C     6.0000    0    12.011   -0.988519    1.763515    1.606817
  12 C     6.0000    0    12.011    4.683148    2.548895    2.735443
  13 C     6.0000    0    12.011   -2.877290    5.525115   -0.661320
  14 C     6.0000    0    12.011    5.023950   -2.294389    2.835579
  15 C     6.0000    0    12.011   -3.103728    1.259493   -2.587123
  16 C     6.0000    0    12.011    3.460318   -2.973888   -1.202910
  17 C     6.0000    0    12.011   -5.003799   -0.546916    1.316792
  18 H     1.0000    0     1.008    0.115463   -2.226979    1.986834
  19 H     1.0000    0     1.008   -0.254867    3.208055    2.872133
  20 H     1.0000    0     1.008    3.688580    4.071903    1.784726
  21 H     1.0000    0     1.008    4.556098    2.814426    4.769721
  22 H     1.0000    0     1.008    6.664889    2.644861    2.201375
  23 H     1.0000    0     1.008   -4.645222    5.311457    0.366334
  24 H     1.0000    0     1.008   -1.689270    6.853205    0.367334
  25 H     1.0000    0     1.008   -3.282512    6.314225   -2.512780
  26 H     1.0000    0     1.008    0.246541    3.249636   -1.951454
  27 H     1.0000    0     1.008   -3.503431    0.654208    4.564209
  28 H     1.0000    0     1.008    5.489063   -5.730759    0.845182
  29 H     1.0000    0     1.008   -5.801819   -1.504284   -2.328668

--------------------------------
INTERNAL COORDINATES (ANGSTROEM)
--------------------------------
 O      0   0   0     0.000000000000     0.00000000     0.00000000
 O      1   0   0     7.396898644090     0.00000000     0.00000000
 O      2   1   0     4.416277142248    35.23163953     0.00000000
 O      2   1   3     4.517592221863    66.13680151   114.00424301
 N      3   2   1     2.340435733407    63.69303966   342.50729550
 N      4   2   1     2.278631281980    62.28575460    43.06599469
 N      5   3   2     2.284413870301    59.85368056   159.11957546
 N      2   1   3     2.259033676521    61.88613040   110.88816468
 C      5   3   2     1.466942328822   131.23767510   153.08024369
 C      2   1   3     2.400970313188    42.99524511   191.00043665
 C      5   3   2     1.475186292775   116.99723150    79.90963235
 C      6   4   2     1.454242605178   145.05558896   325.77228897
 C      9   5   3     1.498700463005   120.03730815   144.46544443
 C     10   2   1     1.529304924277   103.15848305   178.03148781
 C      1   2   3     1.200429792759    15.62421428    19.71363172
 C      2   1   3     1.204339302187    44.31120823   144.36682503
 C      3   2   1     1.192095104432    91.88070815   352.53376481
 C      4   2   1     1.209476551793    32.77949209    37.58343362
 H     11   5   3     1.083288819435   115.71988953    16.36479873
 H     12   6   4     1.087837708094   106.58964714   181.25249807
 H     13   9   5     1.086113773065   110.90833190    38.05008656
 H     13   9   5     1.087705185395   110.05707781   159.28427994
 H     13   9   5     1.087293364894   110.07366781   278.34376703
 H     14  10   2     1.088009962148   111.17609952    90.25247228
 H     14  10   2     1.088786895636   110.12429100   210.26757648
 H     14  10   2     1.086400411702   110.00382320   329.76508667
 H     10   2   1     1.085410724272    85.96177003    68.49171246
 H      6   4   2     1.004603356912    87.98400642   181.57048436
 H      7   5   3     1.005688749376   159.23678344   358.32140386
 H      8   2   1     1.007913075805    89.65003633   224.34410650

---------------------------
INTERNAL COORDINATES (A.U.)
---------------------------
 O      0   0   0     0.000000000000     0.00000000     0.00000000
 O      1   0   0    13.978112677703     0.00000000     0.00000000
 O      2   1   0     8.345554330345    35.23163953     0.00000000
 O      2   1   3     8.537012084053    66.13680151   114.00424301
 N      3   2   1     4.422782570182    63.69303966   342.50729550
 N      4   2   1     4.305989083127    62.28575460    43.06599469
 N      5   3   2     4.316916591400    59.85368056   159.11957546
 N      2   1   3     4.268954975930    61.88613040   110.88816468
 C      5   3   2     2.772119255731   131.23767510   153.08024369
 C      2   1   3     4.537176347600    42.99524511   191.00043665
 C      5   3   2     2.787698089859   116.99723150    79.90963235
 C      6   4   2     2.748120256066   145.05558896   325.77228897
 C      9   5   3     2.832133431860   120.03730815   144.46544443
 C     10   2   1     2.889967482140   103.15848305   178.03148781
 C      1   2   3     2.268483551315    15.62421428    19.71363172
 C      2   1   3     2.275871453452    44.31120823   144.36682503
 C      3   2   1     2.252733272965    91.88070815   352.53376481
 C      4   2   1     2.285579448289    32.77949209    37.58343362
 H     11   5   3     2.047119192672   115.71988953    16.36479873
 H     12   6   4     2.055715346450   106.58964714   181.25249807
 H     13   9   5     2.052457581372   110.90833190    38.05008656
 H     13   9   5     2.055464914843   110.05707781   159.28427994
 H     13   9   5     2.054686686879   110.07366781   278.34376703
 H     14  10   2     2.056040859438   111.17609952    90.25247228
 H     14  10   2     2.057509050955   110.12429100   210.26757648
 H     14  10   2     2.052999249897   110.00382320   329.76508667
 H     10   2   1     2.051129011695    85.96177003    68.49171246
 H      6   4   2     1.898425217781    87.98400642   181.57048436
 H      7   5   3     1.900476312285   159.23678344   358.32140386
 H      8   2   1     1.904679680069    89.65003633   224.34410650

---------------------
BASIS SET INFORMATION
---------------------
There are 4 groups of distinct atoms

 Group   1 Type O   : 12s7p3d1f contracted to 6s4p3d1f pattern {621111/4111/111/1}
 Group   2 Type N   : 12s6p3d1f contracted to 6s3p3d1f pattern {621111/411/111/1}
 Group   3 Type C   : 12s6p3d1f contracted to 6s3p3d1f pattern {621111/411/111/1}
 Group   4 Type H   : 5s3p1d contracted to 3s3p1d pattern {311/111/1}

Atom   0O    basis set group =>   1
Atom   1O    basis set group =>   1
Atom   2O    basis set group =>   1
Atom   3O    basis set group =>   1
Atom   4N    basis set group =>   2
Atom   5N    basis set group =>   2
Atom   6N    basis set group =>   2
Atom   7N    basis set group =>   2
Atom   8C    basis set group =>   3
Atom   9C    basis set group =>   3
Atom  10C    basis set group =>   3
Atom  11C    basis set group =>   3
Atom  12C    basis set group =>   3
Atom  13C    basis set group =>   3
Atom  14C    basis set group =>   3
Atom  15C    basis set group =>   3
Atom  16C    basis set group =>   3
Atom  17C    basis set group =>   3
Atom  18H    basis set group =>   4
Atom  19H    basis set group =>   4
Atom  20H    basis set group =>   4
Atom  21H    basis set group =>   4
Atom  22H    basis set group =>   4
Atom  23H    basis set group =>   4
Atom  24H    basis set group =>   4
Atom  25H    basis set group =>   4
Atom  26H    basis set group =>   4
Atom  27H    basis set group =>   4
Atom  28H    basis set group =>   4
Atom  29H    basis set group =>   4
---------------------------------
AUXILIARY/J BASIS SET INFORMATION
---------------------------------
There are 4 groups of distinct atoms

 Group   1 Type O   : 12s5p4d2f1g contracted to 6s4p3d1f1g pattern {711111/2111/211/2/1}
 Group   2 Type N   : 12s5p4d2f1g contracted to 6s4p3d1f1g pattern {711111/2111/211/2/1}
 Group   3 Type C   : 12s5p4d2f1g contracted to 6s4p3d1f1g pattern {711111/2111/211/2/1}
 Group   4 Type H   : 5s2p1d contracted to 3s1p1d pattern {311/2/1}

Atom   0O    basis set group =>   1
Atom   1O    basis set group =>   1
Atom   2O    basis set group =>   1
Atom   3O    basis set group =>   1
Atom   4N    basis set group =>   2
Atom   5N    basis set group =>   2
Atom   6N    basis set group =>   2
Atom   7N    basis set group =>   2
Atom   8C    basis set group =>   3
Atom   9C    basis set group =>   3
Atom  10C    basis set group =>   3
Atom  11C    basis set group =>   3
Atom  12C    basis set group =>   3
Atom  13C    basis set group =>   3
Atom  14C    basis set group =>   3
Atom  15C    basis set group =>   3
Atom  16C    basis set group =>   3
Atom  17C    basis set group =>   3
Atom  18H    basis set group =>   4
Atom  19H    basis set group =>   4
Atom  20H    basis set group =>   4
Atom  21H    basis set group =>   4
Atom  22H    basis set group =>   4
Atom  23H    basis set group =>   4
Atom  24H    basis set group =>   4
Atom  25H    basis set group =>   4
Atom  26H    basis set group =>   4
Atom  27H    basis set group =>   4
Atom  28H    basis set group =>   4
Atom  29H    basis set group =>   4
[1738787627.242132] [ohm:2916199:0]        ib_iface.c:1059 UCX  ERROR ibv_create_cq(cqe=256) failed: Connection timed out
[1738787627.244578] [ohm:2916202:0]        ib_iface.c:1059 UCX  ERROR ibv_create_cq(cqe=256) failed: Connection timed out
[1738787627.262302] [ohm:2916209:0]        ib_iface.c:1059 UCX  ERROR ibv_create_cq(cqe=256) failed: Connection timed out
[1738787627.281631] [ohm:2916200:0]        ib_iface.c:1059 UCX  ERROR ibv_create_cq(cqe=256) failed: Connection timed out
[1738787627.286919] [ohm:2916203:0]        ib_iface.c:1059 UCX  ERROR ibv_create_cq(cqe=256) failed: Connection timed out
[1738787627.290596] [ohm:2916206:0]        ib_iface.c:1059 UCX  ERROR ibv_create_cq(cqe=256) failed: Connection timed out
[1738787627.291163] [ohm:2916204:0]        ib_iface.c:1059 UCX  ERROR ibv_create_cq(cqe=256) failed: Connection timed out
[1738787627.298094] [ohm:2916216:0]        ib_iface.c:1059 UCX  ERROR ibv_create_cq(cqe=256) failed: Connection timed out
[1738787627.311915] [ohm:2916208:0]        ib_iface.c:1059 UCX  ERROR ibv_create_cq(cqe=256) failed: Connection timed out
[1738787627.312410] [ohm:2916223:0]        ib_iface.c:1059 UCX  ERROR ibv_create_cq(cqe=256) failed: Connection timed out
[1738787627.323498] [ohm:2916213:0]        ib_iface.c:1059 UCX  ERROR ibv_create_cq(cqe=256) failed: Connection timed out
[1738787627.339327] [ohm:2916218:0]        ib_iface.c:1059 UCX  ERROR ibv_create_cq(cqe=256) failed: Connection timed out
[1738787627.345584] [ohm:2916224:0]        ib_iface.c:1059 UCX  ERROR ibv_create_cq(cqe=256) failed: Connection timed out
[1738787627.387493] [ohm:2916254:0]        ib_iface.c:1059 UCX  ERROR ibv_create_cq(cqe=256) failed: Connection timed out
[1738787627.393119] [ohm:2916253:0]        ib_iface.c:1059 UCX  ERROR ibv_create_cq(cqe=256) failed: Connection timed out
[1738787627.395918] [ohm:2916312:0]        ib_iface.c:1059 UCX  ERROR ibv_create_cq(cqe=256) failed: Connection timed out
[1738787627.404669] [ohm:2916351:0]        ib_iface.c:1059 UCX  ERROR ibv_create_cq(cqe=256) failed: Connection timed out
[1738787627.407705] [ohm:2916260:0]        ib_iface.c:1059 UCX  ERROR ibv_create_cq(cqe=256) failed: Connection timed out
[1738787627.413814] [ohm:2916334:0]        ib_iface.c:1059 UCX  ERROR ibv_create_cq(cqe=256) failed: Connection timed out
[1738787627.414113] [ohm:2916237:0]        ib_iface.c:1059 UCX  ERROR ibv_create_cq(cqe=256) failed: Connection timed out
[1738787627.416056] [ohm:2916284:0]        ib_iface.c:1059 UCX  ERROR ibv_create_cq(cqe=256) failed: Connection timed out
[1738787627.420081] [ohm:2916238:0]        ib_iface.c:1059 UCX  ERROR ibv_create_cq(cqe=256) failed: Connection timed out
[1738787627.424271] [ohm:2916278:0]        ib_iface.c:1059 UCX  ERROR ibv_create_cq(cqe=256) failed: Connection timed out
[1738787627.434396] [ohm:2916246:0]        ib_iface.c:1059 UCX  ERROR ibv_create_cq(cqe=256) failed: Connection timed out
[1738787627.437025] [ohm:2916331:0]        ib_iface.c:1059 UCX  ERROR ibv_create_cq(cqe=256) failed: Connection timed out
[1738787627.442090] [ohm:2916263:0]        ib_iface.c:1059 UCX  ERROR ibv_create_cq(cqe=256) failed: Connection timed out
[1738787627.451299] [ohm:2916319:0]        ib_iface.c:1059 UCX  ERROR ibv_create_cq(cqe=256) failed: Connection timed out
[1738787627.460510] [ohm:2916250:0]        ib_iface.c:1059 UCX  ERROR ibv_create_cq(cqe=256) failed: Connection timed out
[1738787627.466399] [ohm:2916304:0]        ib_iface.c:1059 UCX  ERROR ibv_create_cq(cqe=256) failed: Connection timed out
[1738787627.467004] [ohm:2916280:0]        ib_iface.c:1059 UCX  ERROR ibv_create_cq(cqe=256) failed: Connection timed out
[1738787627.476862] [ohm:2916229:0]        ib_iface.c:1059 UCX  ERROR ibv_create_cq(cqe=256) failed: Connection timed out
[1738787627.477288] [ohm:2916274:0]        ib_iface.c:1059 UCX  ERROR ibv_create_cq(cqe=256) failed: Connection timed out
[1738787627.477511] [ohm:2916221:0]        ib_iface.c:1059 UCX  ERROR ibv_create_cq(cqe=256) failed: Connection timed out
[1738787627.496387] [ohm:2916302:0]        ib_iface.c:1059 UCX  ERROR ibv_create_cq(cqe=256) failed: Connection timed out
[1738787627.498039] [ohm:2916289:0]        ib_iface.c:1059 UCX  ERROR ibv_create_cq(cqe=256) failed: Connection timed out
[1738787627.498278] [ohm:2916251:0]        ib_iface.c:1059 UCX  ERROR ibv_create_cq(cqe=256) failed: Connection timed out
[1738787627.500508] [ohm:2916269:0]        ib_iface.c:1059 UCX  ERROR ibv_create_cq(cqe=256) failed: Connection timed out
[1738787627.504680] [ohm:2916252:0]        ib_iface.c:1059 UCX  ERROR ibv_create_cq(cqe=256) failed: Connection timed out
[1738787627.505677] [ohm:2916341:0]        ib_iface.c:1059 UCX  ERROR ibv_create_cq(cqe=256) failed: Connection timed out
[1738787627.506383] [ohm:2916205:0]        ib_iface.c:1059 UCX  ERROR ibv_create_cq(cqe=256) failed: Connection timed out
[1738787627.508616] [ohm:2916258:0]        ib_iface.c:1059 UCX  ERROR ibv_create_cq(cqe=256) failed: Connection timed out
[1738787627.510541] [ohm:2916344:0]        ib_iface.c:1059 UCX  ERROR ibv_create_cq(cqe=256) failed: Connection timed out
[1738787627.516041] [ohm:2916207:0]        ib_iface.c:1059 UCX  ERROR ibv_create_cq(cqe=256) failed: Connection timed out
[1738787627.516179] [ohm:2916247:0]        ib_iface.c:1059 UCX  ERROR ibv_create_cq(cqe=256) failed: Connection timed out
[1738787627.518136] [ohm:2916291:0]        ib_iface.c:1059 UCX  ERROR ibv_create_cq(cqe=256) failed: Connection timed out
[1738787627.518936] [ohm:2916313:0]        ib_iface.c:1059 UCX  ERROR ibv_create_cq(cqe=256) failed: Connection timed out
[1738787627.520478] [ohm:2916339:0]        ib_iface.c:1059 UCX  ERROR ibv_create_cq(cqe=256) failed: Connection timed out
[1738787627.523862] [ohm:2916322:0]        ib_iface.c:1059 UCX  ERROR ibv_create_cq(cqe=256) failed: Connection timed out
[1738787627.527549] [ohm:2916230:0]        ib_iface.c:1059 UCX  ERROR ibv_create_cq(cqe=256) failed: Connection timed out
[1738787627.534668] [ohm:2916243:0]        ib_iface.c:1059 UCX  ERROR ibv_create_cq(cqe=256) failed: Connection timed out
[1738787627.539157] [ohm:2916256:0]        ib_iface.c:1059 UCX  ERROR ibv_create_cq(cqe=256) failed: Connection timed out
[1738787627.541353] [ohm:2916225:0]        ib_iface.c:1059 UCX  ERROR ibv_create_cq(cqe=256) failed: Connection timed out
[1738787627.546049] [ohm:2916227:0]        ib_iface.c:1059 UCX  ERROR ibv_create_cq(cqe=256) failed: Connection timed out
[1738787627.546128] [ohm:2916214:0]        ib_iface.c:1059 UCX  ERROR ibv_create_cq(cqe=256) failed: Connection timed out
[1738787627.548847] [ohm:2916226:0]        ib_iface.c:1059 UCX  ERROR ibv_create_cq(cqe=256) failed: Connection timed out
[1738787627.549272] [ohm:2916328:0]        ib_iface.c:1059 UCX  ERROR ibv_create_cq(cqe=256) failed: Connection timed out
[1738787627.549918] [ohm:2916298:0]        ib_iface.c:1059 UCX  ERROR ibv_create_cq(cqe=256) failed: Connection timed out
[1738787627.552242] [ohm:2916308:0]        ib_iface.c:1059 UCX  ERROR ibv_create_cq(cqe=256) failed: Connection timed out
[1738787627.552834] [ohm:2916232:0]        ib_iface.c:1059 UCX  ERROR ibv_create_cq(cqe=256) failed: Connection timed out
[1738787627.553325] [ohm:2916317:0]        ib_iface.c:1059 UCX  ERROR ibv_create_cq(cqe=256) failed: Connection timed out
[1738787627.553717] [ohm:2916295:0]        ib_iface.c:1059 UCX  ERROR ibv_create_cq(cqe=256) failed: Connection timed out
[1738787627.554174] [ohm:2916336:0]        ib_iface.c:1059 UCX  ERROR ibv_create_cq(cqe=256) failed: Connection timed out
[1738787627.555488] [ohm:2916255:0]        ib_iface.c:1059 UCX  ERROR ibv_create_cq(cqe=256) failed: Connection timed out
[1738787627.555683] [ohm:2916201:0]        ib_iface.c:1059 UCX  ERROR ibv_create_cq(cqe=256) failed: Connection timed out


           ************************************************************
           *        Program running with 64 parallel MPI-processes    *
           *              working on a common directory               *
           ************************************************************
------------------------------------------------------------------------------
                             ORCA STARTUP CALCULATIONS
                           -- RI-GTO INTEGRALS CHOSEN --
------------------------------------------------------------------------------
------------------------------------------------------------------------------
                   ___                                                        
                  /   \      - P O W E R E D   B Y -                         
                 /     \                                                     
                 |  |  |   _    _      __       _____    __    __             
                 |  |  |  | |  | |    /  \     |  _  \  |  |  /  |          
                  \  \/   | |  | |   /    \    | | | |  |  | /  /          
                 / \  \   | |__| |  /  /\  \   | |_| |  |  |/  /          
                |  |  |   |  __  | /  /__\  \  |    /   |      \           
                |  |  |   | |  | | |   __   |  |    \   |  |\   \          
                \     /   | |  | | |  |  |  |  | |\  \  |  | \   \       
                 \___/    |_|  |_| |__|  |__|  |_| \__\ |__|  \__/        
                                                                              
                      - O R C A' S   B I G   F R I E N D -                    
                                      &                                       
                       - I N T E G R A L  F E E D E R -                       
                                                                              
 v1 FN, 2020, v2 2021, v3 2022-2024                                           
------------------------------------------------------------------------------


----------------------
SHARK INTEGRAL PACKAGE
----------------------

Number of atoms                             ...     30
Number of basis functions                   ...    882
Number of shells                            ...    322
Maximum angular momentum                    ...      3
Integral batch strategy                     ... SHARK/LIBINT Hybrid
RI-J (if used) integral strategy            ... SPLIT-RIJ (Revised 2003 algorithm where possible)
Printlevel                                  ...      1
Contraction scheme used                     ... SEGMENTED contraction
Prescreening option                         ... SCHWARTZ
   Thresh                                   ... 2.500e-11
   Tcut                                     ... 2.500e-12
   Tpresel                                  ... 2.500e-12 
Coulomb Range Separation                    ... NOT USED
Exchange Range Separation                   ... Long Range
   Mu parameter                             ... 3.000e-01
   Scaling (regular/separated)              ... 1.500e-01 8.500e-01
Multipole approximations                    ... NOT USED
Finite Nucleus Model                        ... NOT USED
CABS basis                                  ... NOT available
Auxiliary Coulomb fitting basis             ... AVAILABLE
   # of basis functions in Aux-J            ...   1014
   # of shells in Aux-J                     ...    330
   Maximum angular momentum in Aux-J        ...      4
Auxiliary J/K fitting basis                 ... NOT available
Auxiliary Correlation fitting basis         ... NOT available
Auxiliary 'external' fitting basis          ... NOT available

Checking pre-screening integrals            ... done (  0.0 sec) Dimension = 322
Check shell pair data                       ... done (  0.0 sec)
Shell pair information
Shell pair cut-off parameter TPreSel        ...   2.5e-12
Total number of shell pairs                 ...     52003
Shell pairs after pre-screening             ...     43944
Total number of primitive shell pairs       ...    129718
Primitive shell pairs kept                  ...     82008
          la=0 lb=0:   8537 shell pairs
          la=1 lb=0:  11672 shell pairs
          la=1 lb=1:   4025 shell pairs
          la=2 lb=0:   7914 shell pairs
          la=2 lb=1:   5449 shell pairs
          la=2 lb=2:   1886 shell pairs
          la=3 lb=0:   1989 shell pairs
          la=3 lb=1:   1409 shell pairs
          la=3 lb=2:    937 shell pairs
          la=3 lb=3:    126 shell pairs

Calculating one electron integrals          ... done (  0.2 sec)
Calculating RI/J V-Matrix + Cholesky decomp.... done (  0.1 sec)
Calculating Nuclear repulsion               ... done (  0.0 sec) ENN=   1404.018354546913 Eh

Diagonalization of the overlap matrix:
Smallest eigenvalue                        ... 2.694e-07
Time for diagonalization                   ...    0.124 sec
Threshold for overlap eigenvalues          ... 1.000e-07
Number of eigenvalues below threshold      ... 0

IMPORTANT:
Smallest eigenvalue of S below the DiffSThresh (1.000e-06) while
Thresh>1e-12 and/or TCut>1e-13! In order to avoid SCF convergence issues,
Thresh will be set to at least 1e-12 and TCut to at least 1e-13.
This can be turned off by adding %SCF DiffSThresh -1 END to the input.

Time for construction of square roots      ...    0.145 sec
Total time needed                          ...    0.285 sec

-------------------
DFT GRID GENERATION
-------------------

General Integration Accuracy     IntAcc      ... 4.388
Radial Grid Type                 RadialGrid  ... OptM3 with GC (2021)
Angular Grid (max. ang.)         AngularGrid ... 4 (Lebedev-302)
Angular grid pruning method      GridPruning ... 4 (adaptive)
Weight generation scheme         WeightScheme... mBecke (2022)
Basis function cutoff            BFCut       ... 1.0000e-11
Integration weight cutoff        WCut        ... 1.0000e-14
Partially contracted basis set               ... off
Rotationally invariant grid construction     ... off
Angular grids for H and He will be reduced by one unit
Diffuse basis detected: some atoms will have their outermost
                        angular grid increased by 1.

Total number of grid points                  ...   152081
Total number of batches                      ...     2395
Average number of points per batch           ...       63
Average number of grid points per atom       ...     5069

--------------------
COSX GRID GENERATION
--------------------

GRIDX 1
-------
General Integration Accuracy     IntAcc      ... 3.816
Radial Grid Type                 RadialGrid  ... OptM3 with GC (2021)
Angular Grid (max. ang.)         AngularGrid ... 1 (Lebedev-50)
Angular grid pruning method      GridPruning ... 4 (adaptive)
Weight generation scheme         WeightScheme... mBecke (2022)
Basis function cutoff            BFCut       ... 1.0000e-11
Integration weight cutoff        WCut        ... 1.0000e-14
Partially contracted basis set               ... on
Rotationally invariant grid construction     ... off
Angular grids for H and He will be reduced by one unit
Diffuse basis detected: some atoms will have their outermost
                        angular grid increased by 1.

Total number of grid points                  ...    19048
Total number of batches                      ...      165
Average number of points per batch           ...      115
Average number of grid points per atom       ...      635
UseSFitting                                  ... on

GRIDX 2
-------
General Integration Accuracy     IntAcc      ... 4.020
Radial Grid Type                 RadialGrid  ... OptM3 with GC (2021)
Angular Grid (max. ang.)         AngularGrid ... 2 (Lebedev-110)
Angular grid pruning method      GridPruning ... 4 (adaptive)
Weight generation scheme         WeightScheme... mBecke (2022)
Basis function cutoff            BFCut       ... 1.0000e-11
Integration weight cutoff        WCut        ... 1.0000e-14
Partially contracted basis set               ... on
Rotationally invariant grid construction     ... off
Angular grids for H and He will be reduced by one unit
Diffuse basis detected: some atoms will have their outermost
                        angular grid increased by 1.

Total number of grid points                  ...    46039
Total number of batches                      ...      376
Average number of points per batch           ...      122
Average number of grid points per atom       ...     1535
UseSFitting                                  ... on

GRIDX 3
-------
General Integration Accuracy     IntAcc      ... 4.338
Radial Grid Type                 RadialGrid  ... OptM3 with GC (2021)
Angular Grid (max. ang.)         AngularGrid ... 3 (Lebedev-194)
Angular grid pruning method      GridPruning ... 4 (adaptive)
Weight generation scheme         WeightScheme... mBecke (2022)
Basis function cutoff            BFCut       ... 1.0000e-11
Integration weight cutoff        WCut        ... 1.0000e-14
Partially contracted basis set               ... on
Rotationally invariant grid construction     ... off
Angular grids for H and He will be reduced by one unit
Diffuse basis detected: some atoms will have their outermost
                        angular grid increased by 1.

Total number of grid points                  ...   101225
Total number of batches                      ...      808
Average number of points per batch           ...      125
Average number of grid points per atom       ...     3374
UseSFitting                                  ... on
Initializing property integral containers    ... done (  0.0 sec)

SHARK setup successfully completed in   4.1 seconds

Maximum memory used throughout the entire STARTUP-calculation: 78.7 MB
[1738787633.474090] [ohm:2916529:0]        ib_iface.c:1059 UCX  ERROR ibv_create_cq(cqe=256) failed: Connection timed out
[1738787633.475237] [ohm:2916530:0]        ib_iface.c:1059 UCX  ERROR ibv_create_cq(cqe=256) failed: Connection timed out
[1738787633.487837] [ohm:2916528:0]        ib_iface.c:1059 UCX  ERROR ibv_create_cq(cqe=256) failed: Connection timed out
[1738787633.492950] [ohm:2916526:0]        ib_iface.c:1059 UCX  ERROR ibv_create_cq(cqe=256) failed: Connection timed out
[1738787633.496657] [ohm:2916535:0]        ib_iface.c:1059 UCX  ERROR ibv_create_cq(cqe=256) failed: Connection timed out
[1738787633.498337] [ohm:2916536:0]        ib_iface.c:1059 UCX  ERROR ibv_create_cq(cqe=256) failed: Connection timed out
[1738787633.501527] [ohm:2916540:0]        ib_iface.c:1059 UCX  ERROR ibv_create_cq(cqe=256) failed: Connection timed out
[1738787633.504837] [ohm:2916582:0]        ib_iface.c:1059 UCX  ERROR ibv_create_cq(cqe=256) failed: Connection timed out
[1738787633.510723] [ohm:2916527:0]        ib_iface.c:1059 UCX  ERROR ibv_create_cq(cqe=256) failed: Connection timed out
[1738787633.514859] [ohm:2916534:0]        ib_iface.c:1059 UCX  ERROR ibv_create_cq(cqe=256) failed: Connection timed out
[1738787633.520728] [ohm:2916531:0]        ib_iface.c:1059 UCX  ERROR ibv_create_cq(cqe=256) failed: Connection timed out
[1738787633.527600] [ohm:2916552:0]        ib_iface.c:1059 UCX  ERROR ibv_create_cq(cqe=256) failed: Connection timed out
[1738787633.530435] [ohm:2916639:0]        ib_iface.c:1059 UCX  ERROR ibv_create_cq(cqe=256) failed: Connection timed out
[1738787633.532091] [ohm:2916590:0]        ib_iface.c:1059 UCX  ERROR ibv_create_cq(cqe=256) failed: Connection timed out
[1738787633.539812] [ohm:2916621:0]        ib_iface.c:1059 UCX  ERROR ibv_create_cq(cqe=256) failed: Connection timed out
[1738787633.539982] [ohm:2916585:0]        ib_iface.c:1059 UCX  ERROR ibv_create_cq(cqe=256) failed: Connection timed out
[1738787633.549104] [ohm:2916637:0]        ib_iface.c:1059 UCX  ERROR ibv_create_cq(cqe=256) failed: Connection timed out
[1738787633.556276] [ohm:2916633:0]        ib_iface.c:1059 UCX  ERROR ibv_create_cq(cqe=256) failed: Connection timed out
[1738787633.556892] [ohm:2916612:0]        ib_iface.c:1059 UCX  ERROR ibv_create_cq(cqe=256) failed: Connection timed out
[1738787633.576064] [ohm:2916562:0]        ib_iface.c:1059 UCX  ERROR ibv_create_cq(cqe=256) failed: Connection timed out
[1738787633.580810] [ohm:2916532:0]        ib_iface.c:1059 UCX  ERROR ibv_create_cq(cqe=256) failed: Connection timed out
[1738787633.580992] [ohm:2916589:0]        ib_iface.c:1059 UCX  ERROR ibv_create_cq(cqe=256) failed: Connection timed out
[1738787633.582224] [ohm:2916652:0]        ib_iface.c:1059 UCX  ERROR ibv_create_cq(cqe=256) failed: Connection timed out
[1738787633.585886] [ohm:2916533:0]        ib_iface.c:1059 UCX  ERROR ibv_create_cq(cqe=256) failed: Connection timed out
[1738787633.587084] [ohm:2916551:0]        ib_iface.c:1059 UCX  ERROR ibv_create_cq(cqe=256) failed: Connection timed out
[1738787633.594798] [ohm:2916554:0]        ib_iface.c:1059 UCX  ERROR ibv_create_cq(cqe=256) failed: Connection timed out
[1738787633.595809] [ohm:2916591:0]        ib_iface.c:1059 UCX  ERROR ibv_create_cq(cqe=256) failed: Connection timed out
[1738787633.622651] [ohm:2916593:0]        ib_iface.c:1059 UCX  ERROR ibv_create_cq(cqe=256) failed: Connection timed out
[1738787633.648013] [ohm:2916601:0]        ib_iface.c:1059 UCX  ERROR ibv_create_cq(cqe=256) failed: Connection timed out
[1738787633.649276] [ohm:2916597:0]        ib_iface.c:1059 UCX  ERROR ibv_create_cq(cqe=256) failed: Connection timed out
[1738787633.650350] [ohm:2916618:0]        ib_iface.c:1059 UCX  ERROR ibv_create_cq(cqe=256) failed: Connection timed out
[1738787633.652698] [ohm:2916664:0]        ib_iface.c:1059 UCX  ERROR ibv_create_cq(cqe=256) failed: Connection timed out
[1738787633.656019] [ohm:2916648:0]        ib_iface.c:1059 UCX  ERROR ibv_create_cq(cqe=256) failed: Connection timed out
[1738787633.656945] [ohm:2916568:0]        ib_iface.c:1059 UCX  ERROR ibv_create_cq(cqe=256) failed: Connection timed out
[1738787633.682570] [ohm:2916645:0]        ib_iface.c:1059 UCX  ERROR ibv_create_cq(cqe=256) failed: Connection timed out
[1738787633.687567] [ohm:2916628:0]        ib_iface.c:1059 UCX  ERROR ibv_create_cq(cqe=256) failed: Connection timed out
[1738787633.693686] [ohm:2916611:0]        ib_iface.c:1059 UCX  ERROR ibv_create_cq(cqe=256) failed: Connection timed out
[1738787633.697936] [ohm:2916661:0]        ib_iface.c:1059 UCX  ERROR ibv_create_cq(cqe=256) failed: Connection timed out
[1738787633.700475] [ohm:2916587:0]        ib_iface.c:1059 UCX  ERROR ibv_create_cq(cqe=256) failed: Connection timed out
[1738787633.702278] [ohm:2916624:0]        ib_iface.c:1059 UCX  ERROR ibv_create_cq(cqe=256) failed: Connection timed out
[1738787633.703920] [ohm:2916658:0]        ib_iface.c:1059 UCX  ERROR ibv_create_cq(cqe=256) failed: Connection timed out
[1738787633.704386] [ohm:2916579:0]        ib_iface.c:1059 UCX  ERROR ibv_create_cq(cqe=256) failed: Connection timed out
[1738787633.705972] [ohm:2916588:0]        ib_iface.c:1059 UCX  ERROR ibv_create_cq(cqe=256) failed: Connection timed out
[1738787633.708945] [ohm:2916584:0]        ib_iface.c:1059 UCX  ERROR ibv_create_cq(cqe=256) failed: Connection timed out
[1738787633.710642] [ohm:2916586:0]        ib_iface.c:1059 UCX  ERROR ibv_create_cq(cqe=256) failed: Connection timed out
[1738787633.712811] [ohm:2916565:0]        ib_iface.c:1059 UCX  ERROR ibv_create_cq(cqe=256) failed: Connection timed out
[1738787633.713035] [ohm:2916592:0]        ib_iface.c:1059 UCX  ERROR ibv_create_cq(cqe=256) failed: Connection timed out
[1738787633.734437] [ohm:2916676:0]        ib_iface.c:1059 UCX  ERROR ibv_create_cq(cqe=256) failed: Connection timed out
[1738787633.738635] [ohm:2916573:0]        ib_iface.c:1059 UCX  ERROR ibv_create_cq(cqe=256) failed: Connection timed out
[1738787633.739043] [ohm:2916571:0]        ib_iface.c:1059 UCX  ERROR ibv_create_cq(cqe=256) failed: Connection timed out
[1738787633.739126] [ohm:2916616:0]        ib_iface.c:1059 UCX  ERROR ibv_create_cq(cqe=256) failed: Connection timed out
[1738787633.742344] [ohm:2916556:0]        ib_iface.c:1059 UCX  ERROR ibv_create_cq(cqe=256) failed: Connection timed out
[1738787633.743029] [ohm:2916553:0]        ib_iface.c:1059 UCX  ERROR ibv_create_cq(cqe=256) failed: Connection timed out
[1738787633.744029] [ohm:2916668:0]        ib_iface.c:1059 UCX  ERROR ibv_create_cq(cqe=256) failed: Connection timed out
[1738787633.746698] [ohm:2916539:0]        ib_iface.c:1059 UCX  ERROR ibv_create_cq(cqe=256) failed: Connection timed out
[1738787633.753970] [ohm:2916604:0]        ib_iface.c:1059 UCX  ERROR ibv_create_cq(cqe=256) failed: Connection timed out
[1738787633.754020] [ohm:2916654:0]        ib_iface.c:1059 UCX  ERROR ibv_create_cq(cqe=256) failed: Connection timed out
[1738787633.756555] [ohm:2916626:0]        ib_iface.c:1059 UCX  ERROR ibv_create_cq(cqe=256) failed: Connection timed out
[1738787633.756600] [ohm:2916538:0]        ib_iface.c:1059 UCX  ERROR ibv_create_cq(cqe=256) failed: Connection timed out
[1738787633.757810] [ohm:2916576:0]        ib_iface.c:1059 UCX  ERROR ibv_create_cq(cqe=256) failed: Connection timed out
[1738787633.760243] [ohm:2916644:0]        ib_iface.c:1059 UCX  ERROR ibv_create_cq(cqe=256) failed: Connection timed out
[1738787633.764858] [ohm:2916594:0]        ib_iface.c:1059 UCX  ERROR ibv_create_cq(cqe=256) failed: Connection timed out
[1738787633.765513] [ohm:2916537:0]        ib_iface.c:1059 UCX  ERROR ibv_create_cq(cqe=256) failed: Connection timed out
[1738787633.766122] [ohm:2916640:0]        ib_iface.c:1059 UCX  ERROR ibv_create_cq(cqe=256) failed: Connection timed out


           ************************************************************
           *        Program running with 64 parallel MPI-processes    *
           *              working on a common directory               *
           ************************************************************
-------------------------------------------------------------------------------
                                 ORCA GUESS
                   Start orbitals & Density for SCF / CASSCF
-------------------------------------------------------------------------------

------------
SCF SETTINGS
------------
Hamiltonian:
 Density Functional     Method          .... DFT(GTOs)
  Functional kind                       .... Exchange-Correlation
  Functional name                       .... wB97M-V exchange-correlation functional
  Functional family                     .... Hybrid MGGA
  Functional refs                              
    [ 0] N. Mardirossian and M. Head-Gordon.,  J. Chem. Phys. 144, 214110 (2016), doi: 10.1063/1.4952647
  Fraction of HF Exchange (short range) .... 0.1500
  Fraction of HF Exchange (long range)  .... 1.0000
  Range separation parameter mu         .... 0.3000
  Functional external parameters        .... 17
    Parameter  0 _cx00      =  8.500000e-01 : u^00 coefficient for exchange
    Parameter  1 _cx01      =  1.007000e+00 : u^01 coefficient for exchange
    Parameter  2 _cx10      =  2.590000e-01 : u^10 coefficient for exchange
    Parameter  3 _css00     =  4.430000e-01 : u^00 coefficient for same-spin correlation
    Parameter  4 _css04     = -1.437000e+00 : u^04 coefficient for same-spin correlation
    Parameter  5 _css10     = -4.535000e+00 : u^10 coefficient for same-spin correlation
    Parameter  6 _css20     = -3.390000e+00 : u^20 coefficient for same-spin correlation
    Parameter  7 _css43     =  4.278000e+00 : u^43 coefficient for same-spin correlation
    Parameter  8 _cos00     =  1.000000e+00 : u^00 coefficient for opposite-spin correlation
    Parameter  9 _cos10     =  1.358000e+00 : u^10 coefficient for opposite-spin correlation
    Parameter 10 _cos20     =  2.924000e+00 : u^20 coefficient for opposite-spin correlation
    Parameter 11 _cos21     = -8.812000e+00 : u^21 coefficient for opposite-spin correlation
    Parameter 12 _cos60     = -1.390000e+00 : u^60 coefficient for opposite-spin correlation
    Parameter 13 _cos61     =  9.142000e+00 : u^61 coefficient for opposite-spin correlation
    Parameter 14 _alpha     =  1.000000e+00 : fraction of HF exchange
    Parameter 15 _beta      = -8.500000e-01 : fraction of short-range exchange
    Parameter 16 _omega     =  3.000000e-01 : range-separation constant
 Long-range corrected/Screened/Range-Separated Hybrid DFT is turned on
   Amount of maximum screened exact exchange              ....  0.850000
   Range separation parameter mu (erf(mu*r12)/r12)        ....  0.300000
 RI-approximation to the Coulomb term is turned on
   Number of AuxJ basis functions       .... 1014
   RIJ-COSX (HFX calculated with COS-X)).... on


General Settings:
 Integral files         IntName         .... orca
 Hartree-Fock type      HFTyp           .... UHF
 Total Charge           Charge          ....    0
 Multiplicity           Mult            ....    3
 Number of Electrons    NEL             ....  132
 Basis Dimension        Dim             ....  882
 Nuclear Repulsion      ENuc            ....   1404.0183545469 Eh

Convergence Acceleration:
 AO-DIIS                CNVDIIS         .... on
   Start iteration      DIISMaxIt       ....    12
   Startup error        DIISStart       ....  0.200000
   # of expansion vecs  DIISMaxEq       ....     5
   Bias factor          DIISBfac        ....   1.050
   Max. coefficient     DIISMaxC        ....  10.000
 MO-DIIS                CNVKDIIS        .... off
 Trust-Rad. Augm. Hess. CNVTRAH         .... auto
   Auto Start mean grad. ratio tolernc. ....  1.125000
   Auto Start start iteration           ....    50
   Auto Start num. interpolation iter.  ....    10
   Max. Number of Micro iterations      ....    24
   Max. Number of Macro iterations      .... Maxiter - #DIIS iter
   Number of Davidson start vectors     ....     2
   Converg. threshold    (grad. norm)   ....   1.000e-05
   Grad. Scal. Fac. for Micro threshold ....   0.100
   Minimum threshold for Micro iter.    ....   1.000e-02
   NR start threshold (gradient norm)   ....   1.000e-04
   Initial trust radius                 ....   0.400
   Minimum AH scaling param. (alpha)    ....   1.000
   Maximum AH scaling param. (alpha)    .... 1000.000
   Quad. conv. algorithm                .... NR
   White noise on init. David. guess    .... on
   Maximum white noise                  ....   0.010
   Pseudo random numbers                .... off
   Inactive MOs                         .... canonical
   Orbital update algorithm             .... Taylor
   Preconditioner                       .... Diag
   Full preconditioner red. dimension   ....   250
 SOSCF                  CNVSOSCF        .... on
   Start iteration      SOSCFMaxIt      ....   150
   Startup grad/error   SOSCFStart      ....  0.003300
   Hessian update       SOSCFHessUp     .... L-BFGS
 Level Shifting         CNVShift        .... on
   Level shift para.    LevelShift      ....    0.2500
   Turn off err/grad.   ShiftErr        ....    0.0010
 Zerner damping         CNVZerner       .... off
 Static damping         CNVDamp         .... on
   Fraction old density DampFac         ....    0.7000
   Max. Damping (<1)    DampMax         ....    0.9800
   Min. Damping (>=0)   DampMin         ....    0.0000
   Turn off err/grad.   DampErr         ....    0.1000

SCF Procedure:
 Maximum # iterations   MaxIter         ....   125
 SCF integral mode      SCFMode         .... Direct
   Integral package                     .... SHARK and LIBINT hybrid scheme
 Reset frequency        DirectResetFreq ....    20
 Integral Threshold     Thresh          ....  1.000e-12 Eh
 Primitive CutOff       TCut            ....  1.000e-13 Eh

Convergence Tolerance:
 Convergence Check Mode ConvCheckMode   .... Total+1el-Energy
 Convergence forced     ConvForced      .... 1
 Energy Change          TolE            ....  1.000e-08 Eh
 1-El. energy change                    ....  1.000e-05 Eh
 Orbital Gradient       TolG            ....  1.000e-05
 Orbital Rotation angle TolX            ....  1.000e-05
 DIIS Error             TolErr          ....  5.000e-07

------------------------------
INITIAL GUESS: MODEL POTENTIAL
------------------------------
Loading Hartree-Fock densities                     ... done
Calculating cut-offs                               ... done
Initializing the effective Hamiltonian             ... done
Setting up the integral package (SHARK)            ... done
Starting the Coulomb interaction                   ... done (   0.1 sec)
Making the grid                                    ... done (   0.2 sec)
Mapping shells                                     ... done
Starting the XC term evaluation                    ... done (   0.1 sec)
  promolecular density results
     # of electrons  =    131.992626071
     EX              =   -113.622508103
     EC              =     -4.508659899
     EX+EC           =   -118.131168002
Transforming the Hamiltonian                       ... done (   0.1 sec)
Diagonalizing the Hamiltonian                      ... done (   0.1 sec)
Back transforming the eigenvectors                 ... done (   0.1 sec)
Now organizing SCF variables                       ... done
                      ------------------
                      INITIAL GUESS DONE (   1.1 sec)
                      ------------------
             **** ENERGY FILE WAS UPDATED (orca.en.tmp) ****
Finished Guess after   3.4 sec
Maximum memory used throughout the entire GUESS-calculation: 70.9 MB
[1738787637.515327] [ohm:2916864:0]        ib_iface.c:1059 UCX  ERROR ibv_create_cq(cqe=256) failed: Connection timed out
[1738787637.518090] [ohm:2916863:0]        ib_iface.c:1059 UCX  ERROR ibv_create_cq(cqe=256) failed: Connection timed out
[1738787637.529056] [ohm:2916865:0]        ib_iface.c:1059 UCX  ERROR ibv_create_cq(cqe=256) failed: Connection timed out
[1738787637.562417] [ohm:2916872:0]        ib_iface.c:1059 UCX  ERROR ibv_create_cq(cqe=256) failed: Connection timed out
[1738787637.564927] [ohm:2916921:0]        ib_iface.c:1059 UCX  ERROR ibv_create_cq(cqe=256) failed: Connection timed out
[1738787637.565026] [ohm:2916867:0]        ib_iface.c:1059 UCX  ERROR ibv_create_cq(cqe=256) failed: Connection timed out
[1738787637.583040] [ohm:2916866:0]        ib_iface.c:1059 UCX  ERROR ibv_create_cq(cqe=256) failed: Connection timed out
[1738787637.586229] [ohm:2916870:0]        ib_iface.c:1059 UCX  ERROR ibv_create_cq(cqe=256) failed: Connection timed out
[1738787637.589308] [ohm:2916948:0]        ib_iface.c:1059 UCX  ERROR ibv_create_cq(cqe=256) failed: Connection timed out
[1738787637.592761] [ohm:2916908:0]        ib_iface.c:1059 UCX  ERROR ibv_create_cq(cqe=256) failed: Connection timed out
[1738787637.597171] [ohm:2916901:0]        ib_iface.c:1059 UCX  ERROR ibv_create_cq(cqe=256) failed: Connection timed out
[1738787637.600189] [ohm:2917009:0]        ib_iface.c:1059 UCX  ERROR ibv_create_cq(cqe=256) failed: Connection timed out
[1738787637.614312] [ohm:2916927:0]        ib_iface.c:1059 UCX  ERROR ibv_create_cq(cqe=256) failed: Connection timed out
[1738787637.618539] [ohm:2917000:0]        ib_iface.c:1059 UCX  ERROR ibv_create_cq(cqe=256) failed: Connection timed out
[1738787637.627004] [ohm:2916998:0]        ib_iface.c:1059 UCX  ERROR ibv_create_cq(cqe=256) failed: Connection timed out
[1738787637.630964] [ohm:2916973:0]        ib_iface.c:1059 UCX  ERROR ibv_create_cq(cqe=256) failed: Connection timed out
[1738787637.639855] [ohm:2916955:0]        ib_iface.c:1059 UCX  ERROR ibv_create_cq(cqe=256) failed: Connection timed out
[1738787637.671095] [ohm:2916980:0]        ib_iface.c:1059 UCX  ERROR ibv_create_cq(cqe=256) failed: Connection timed out
[1738787637.689125] [ohm:2916993:0]        ib_iface.c:1059 UCX  ERROR ibv_create_cq(cqe=256) failed: Connection timed out
[1738787637.689342] [ohm:2916942:0]        ib_iface.c:1059 UCX  ERROR ibv_create_cq(cqe=256) failed: Connection timed out
[1738787637.697991] [ohm:2916977:0]        ib_iface.c:1059 UCX  ERROR ibv_create_cq(cqe=256) failed: Connection timed out
[1738787637.702226] [ohm:2916954:0]        ib_iface.c:1059 UCX  ERROR ibv_create_cq(cqe=256) failed: Connection timed out
[1738787637.705457] [ohm:2916962:0]        ib_iface.c:1059 UCX  ERROR ibv_create_cq(cqe=256) failed: Connection timed out
[1738787637.705562] [ohm:2916961:0]        ib_iface.c:1059 UCX  ERROR ibv_create_cq(cqe=256) failed: Connection timed out
[1738787637.712152] [ohm:2917003:0]        ib_iface.c:1059 UCX  ERROR ibv_create_cq(cqe=256) failed: Connection timed out
[1738787637.739248] [ohm:2916985:0]        ib_iface.c:1059 UCX  ERROR ibv_create_cq(cqe=256) failed: Connection timed out
[1738787637.748660] [ohm:2916928:0]        ib_iface.c:1059 UCX  ERROR ibv_create_cq(cqe=256) failed: Connection timed out
[1738787637.748917] [ohm:2917014:0]        ib_iface.c:1059 UCX  ERROR ibv_create_cq(cqe=256) failed: Connection timed out
[1738787637.750076] [ohm:2916932:0]        ib_iface.c:1059 UCX  ERROR ibv_create_cq(cqe=256) failed: Connection timed out
[1738787637.751291] [ohm:2916897:0]        ib_iface.c:1059 UCX  ERROR ibv_create_cq(cqe=256) failed: Connection timed out
[1738787637.761425] [ohm:2916868:0]        ib_iface.c:1059 UCX  ERROR ibv_create_cq(cqe=256) failed: Connection timed out
[1738787637.772989] [ohm:2916988:0]        ib_iface.c:1059 UCX  ERROR ibv_create_cq(cqe=256) failed: Connection timed out
[1738787637.781386] [ohm:2916924:0]        ib_iface.c:1059 UCX  ERROR ibv_create_cq(cqe=256) failed: Connection timed out
[1738787637.785228] [ohm:2916894:0]        ib_iface.c:1059 UCX  ERROR ibv_create_cq(cqe=256) failed: Connection timed out
[1738787637.785516] [ohm:2916910:0]        ib_iface.c:1059 UCX  ERROR ibv_create_cq(cqe=256) failed: Connection timed out
[1738787637.787928] [ohm:2916904:0]        ib_iface.c:1059 UCX  ERROR ibv_create_cq(cqe=256) failed: Connection timed out
[1738787637.790870] [ohm:2916886:0]        ib_iface.c:1059 UCX  ERROR ibv_create_cq(cqe=256) failed: Connection timed out
[1738787637.792372] [ohm:2916950:0]        ib_iface.c:1059 UCX  ERROR ibv_create_cq(cqe=256) failed: Connection timed out
[1738787637.794307] [ohm:2916918:0]        ib_iface.c:1059 UCX  ERROR ibv_create_cq(cqe=256) failed: Connection timed out
[1738787637.814490] [ohm:2916869:0]        ib_iface.c:1059 UCX  ERROR ibv_create_cq(cqe=256) failed: Connection timed out
[1738787637.817361] [ohm:2916888:0]        ib_iface.c:1059 UCX  ERROR ibv_create_cq(cqe=256) failed: Connection timed out
[1738787637.820333] [ohm:2916874:0]        ib_iface.c:1059 UCX  ERROR ibv_create_cq(cqe=256) failed: Connection timed out
[1738787637.820945] [ohm:2916994:0]        ib_iface.c:1059 UCX  ERROR ibv_create_cq(cqe=256) failed: Connection timed out
[1738787637.822554] [ohm:2916893:0]        ib_iface.c:1059 UCX  ERROR ibv_create_cq(cqe=256) failed: Connection timed out
[1738787637.822627] [ohm:2916891:0]        ib_iface.c:1059 UCX  ERROR ibv_create_cq(cqe=256) failed: Connection timed out
[1738787637.824492] [ohm:2916939:0]        ib_iface.c:1059 UCX  ERROR ibv_create_cq(cqe=256) failed: Connection timed out
[1738787637.829729] [ohm:2916919:0]        ib_iface.c:1059 UCX  ERROR ibv_create_cq(cqe=256) failed: Connection timed out
[1738787637.830816] [ohm:2916873:0]        ib_iface.c:1059 UCX  ERROR ibv_create_cq(cqe=256) failed: Connection timed out
[1738787637.831129] [ohm:2916916:0]        ib_iface.c:1059 UCX  ERROR ibv_create_cq(cqe=256) failed: Connection timed out
[1738787637.831161] [ohm:2916892:0]        ib_iface.c:1059 UCX  ERROR ibv_create_cq(cqe=256) failed: Connection timed out
[1738787637.833329] [ohm:2917004:0]        ib_iface.c:1059 UCX  ERROR ibv_create_cq(cqe=256) failed: Connection timed out
[1738787637.834760] [ohm:2916885:0]        ib_iface.c:1059 UCX  ERROR ibv_create_cq(cqe=256) failed: Connection timed out
[1738787637.834981] [ohm:2916895:0]        ib_iface.c:1059 UCX  ERROR ibv_create_cq(cqe=256) failed: Connection timed out
[1738787637.846336] [ohm:2916914:0]        ib_iface.c:1059 UCX  ERROR ibv_create_cq(cqe=256) failed: Connection timed out
[1738787637.846330] [ohm:2916968:0]        ib_iface.c:1059 UCX  ERROR ibv_create_cq(cqe=256) failed: Connection timed out
[1738787637.848985] [ohm:2916912:0]        ib_iface.c:1059 UCX  ERROR ibv_create_cq(cqe=256) failed: Connection timed out
[1738787637.849838] [ohm:2916890:0]        ib_iface.c:1059 UCX  ERROR ibv_create_cq(cqe=256) failed: Connection timed out
[1738787637.850221] [ohm:2916920:0]        ib_iface.c:1059 UCX  ERROR ibv_create_cq(cqe=256) failed: Connection timed out
[1738787637.850492] [ohm:2916934:0]        ib_iface.c:1059 UCX  ERROR ibv_create_cq(cqe=256) failed: Connection timed out
[1738787637.850783] [ohm:2916923:0]        ib_iface.c:1059 UCX  ERROR ibv_create_cq(cqe=256) failed: Connection timed out
[1738787637.851245] [ohm:2916969:0]        ib_iface.c:1059 UCX  ERROR ibv_create_cq(cqe=256) failed: Connection timed out
[1738787637.851476] [ohm:2916887:0]        ib_iface.c:1059 UCX  ERROR ibv_create_cq(cqe=256) failed: Connection timed out
[1738787637.851874] [ohm:2916889:0]        ib_iface.c:1059 UCX  ERROR ibv_create_cq(cqe=256) failed: Connection timed out
[1738787637.852067] [ohm:2916871:0]        ib_iface.c:1059 UCX  ERROR ibv_create_cq(cqe=256) failed: Connection timed out


           ************************************************************
           *        Program running with 64 parallel MPI-processes    *
           *              working on a common directory               *
           ************************************************************

-------------------------------------------------------------------------------------------
                                      ORCA LEAN-SCF
                              memory conserving SCF solver
-------------------------------------------------------------------------------------------

----------------------------------------D-I-I-S--------------------------------------------
Iteration    Energy (Eh)           Delta-E    RMSDP     MaxDP     DIISErr   Damp  Time(sec)
-------------------------------------------------------------------------------------------
               ***  Starting incremental Fock matrix formation  ***
    1    -907.9607735773802233     0.00e+00  1.90e-03  3.82e-01  1.63e-01  0.700   7.7
Warning: op=0 Small HOMO/LUMO gap (   0.046) - skipping pre-diagonalization
         Will do a full diagonalization
    2    -908.2317183182876761    -2.71e-01  1.71e-03  4.03e-01  7.70e-02  0.700   6.6
                               ***Turning on AO-DIIS***
    3    -908.3521296448125213    -1.20e-01  1.26e-03  3.21e-01  3.09e-02  0.700   5.6
    4    -908.4255222264851000    -7.34e-02  2.97e-03  7.24e-01  2.03e-02  0.000   5.6
    5    -908.5946606680377045    -1.69e-01  3.20e-04  4.01e-02  5.51e-03  0.000   5.6
    6    -908.5983676723813005    -3.71e-03  2.31e-04  3.58e-02  5.03e-03  0.000   5.4
    7    -908.6016206894610150    -3.25e-03  3.51e-04  4.94e-02  4.96e-03  0.000   5.4
    8    -908.6056383063810244    -4.02e-03  3.67e-04  6.80e-02  4.87e-03  0.000   5.4
    9    -908.6092783287126622    -3.64e-03  4.49e-04  8.04e-02  4.22e-03  0.000   5.5
   10    -908.6129159150536907    -3.64e-03  2.94e-04  5.95e-02  3.91e-03  0.000   5.4
   11    -908.6150530044128573    -2.14e-03  4.64e-04  9.47e-02  3.37e-03  0.000   5.3
                              *** Initializing SOSCF ***
---------------------------------------S-O-S-C-F--------------------------------------
Iteration    Energy (Eh)           Delta-E    RMSDP     MaxDP     MaxGrad    Time(sec)
--------------------------------------------------------------------------------------
   12    -908.6178418882741425    -2.79e-03  2.68e-04  8.09e-02  3.01e-03     6.2
               *** Restarting incremental Fock matrix formation ***
   13    -908.6192993334284438    -1.46e-03  7.70e-04  2.04e-01  1.25e-02     7.1
               *** Scaled step length from 1.691258 to 0.200000 ***
   14    -908.6216798974728590    -2.38e-03  1.89e-03  5.40e-01  1.22e-02     6.5
               *** Scaled step length from 1.860571 to 0.200000 ***
   15    -908.6273880323346930    -5.71e-03  1.84e-03  6.06e-01  9.57e-03     6.6
               *** Scaled step length from 0.817689 to 0.200000 ***
   16    -908.6323698619316929    -4.98e-03  1.78e-03  6.39e-01  9.28e-03     6.6
               *** Scaled step length from 0.312234 to 0.200000 ***
   17    -908.6362291903137702    -3.86e-03  1.42e-03  5.96e-01  1.35e-02     6.6
   18    -908.6391668403712174    -2.94e-03  7.93e-04  1.99e-01  1.61e-02     6.6
   19    -908.6422345945697998    -3.07e-03  1.88e-03  4.72e-01  1.03e-02     6.5
   20    -908.6454768013527428    -3.24e-03  1.16e-03  3.90e-01  5.57e-03     6.6
   21    -908.6462798020152150    -8.03e-04  4.64e-04  1.49e-01  2.44e-03     6.5
   22    -908.6466464146524231    -3.67e-04  4.15e-04  1.67e-01  1.26e-03     6.3
   23    -908.6467173808750886    -7.10e-05  5.65e-05  1.40e-02  8.11e-04     6.3
   24    -908.6467510116253834    -3.36e-05  4.21e-05  1.65e-02  3.14e-04     6.2
   25    -908.6467572847523115    -6.27e-06  5.93e-05  2.30e-02  2.32e-04     6.0
   26    -908.6467597002229013    -2.42e-06  4.29e-05  1.59e-02  1.70e-04     5.9
   27    -908.6467608401294456    -1.14e-06  7.17e-06  1.89e-03  9.93e-05     6.0
   28    -908.6467614184989543    -5.78e-07  2.38e-05  1.02e-02  8.13e-05     5.8
   29    -908.6467619589348033    -5.40e-07  1.39e-05  4.43e-03  4.46e-05     5.9
   30    -908.6467621237493404    -1.65e-07  7.92e-06  3.11e-03  2.39e-05     5.7
   31    -908.6467622066716103    -8.29e-08  3.29e-06  8.48e-04  8.29e-06     5.6
   32    -908.6467621848360068     2.18e-08  7.67e-06  2.71e-03  5.55e-06     5.5
               *** Restarting incremental Fock matrix formation ***
   33    -908.6467621615101962     2.33e-08  7.12e-06  2.32e-03  2.86e-06     7.1
   34    -908.6467621061851787     5.53e-08  1.58e-05  6.51e-03  9.87e-07     5.3
                  *** Gradient check signals convergence ***

               *****************************************************
               *                     SUCCESS                       *
               *           SCF CONVERGED AFTER  34 CYCLES          *
               *****************************************************

Recomputing exchange energy using gridx3       ... done (    7.527 sec)
Old exchange energy                            :    -35.051560261 Eh
New exchange energy                            :    -35.051575610 Eh
Exchange energy change after final integration :     -0.000015349 Eh
Total energy after final integration           :   -908.646777455 Eh
             **** ENERGY FILE WAS UPDATED (orca.en.tmp) ****

----------------
TOTAL SCF ENERGY
----------------

Total Energy       :       -908.64677745498852 Eh          -24725.53584 eV

Components:
Nuclear Repulsion  :       1404.01835454691263 Eh           38205.28175 eV
Electronic Energy  :      -2312.66511665309781 Eh          -62930.81717 eV
One Electron Energy:      -4024.80735684253887 Eh         -109520.57610 eV
Two Electron Energy:       1712.14224018944105 Eh           46589.75893 eV

Virial components:
Potential Energy   :      -1814.88048787501475 Eh          -49385.40878 eV
Kinetic Energy     :        906.23371042002623 Eh           24659.87294 eV
Virial Ratio       :          2.00266274252129

DFT components:
N(Alpha)           :       66.999987245058 electrons
N(Beta)            :       65.000011761517 electrons
N(Total)           :      131.999999006575 electrons
E(XC)              :      -86.327049631383 Eh       

---------------
SCF CONVERGENCE
---------------

  Last Energy change         ...   -5.5325e-08  Tolerance :   1.0000e-08
  Last MAX-Density change    ...    6.5110e-03  Tolerance :   1.0000e-07
  Last RMS-Density change    ...    1.5818e-05  Tolerance :   5.0000e-09
  Last DIIS Error            ...    3.0142e-03  Tolerance :   5.0000e-07
  Last Orbital Gradient      ...    9.8685e-07  Tolerance :   1.0000e-05
  Last Orbital Rotation      ...    1.0747e-05  Tolerance :   1.0000e-05


----------------------
UHF SPIN CONTAMINATION
----------------------

Warning: in a DFT calculation there is little theoretical justification to 
         calculate <S**2> as in Hartree-Fock theory. We will do it anyways
         but you should keep in mind that the values have only limited relevance

Expectation value of <S**2>     :     2.009382
Ideal value S*(S+1) for S=1.0   :     2.000000
Deviation                       :     0.009382

----------------
ORBITAL ENERGIES
----------------
                 SPIN UP ORBITALS
  NO   OCC          E(Eh)            E(eV) 
   0   1.0000     -19.448615      -529.2237 
   1   1.0000     -19.330099      -525.9987 
   2   1.0000     -19.324053      -525.8342 
   3   1.0000     -19.316177      -525.6199 
   4   1.0000     -14.587926      -396.9576 
   5   1.0000     -14.561001      -396.2250 
   6   1.0000     -14.557839      -396.1389 
   7   1.0000     -14.552049      -395.9814 
   8   1.0000     -10.499641      -285.7097 
   9   1.0000     -10.499586      -285.7083 
  10   1.0000     -10.474117      -285.0152 
  11   1.0000     -10.450594      -284.3751 
  12   1.0000     -10.442030      -284.1421 
  13   1.0000     -10.427009      -283.7333 
  14   1.0000     -10.420610      -283.5592 
  15   1.0000     -10.382199      -282.5140 
  16   1.0000     -10.377869      -282.3962 
  17   1.0000     -10.357799      -281.8500 
  18   1.0000      -1.295831       -35.2614 
  19   1.0000      -1.226823       -33.3835 
  20   1.0000      -1.214355       -33.0443 
  21   1.0000      -1.191347       -32.4182 
  22   1.0000      -1.164862       -31.6975 
  23   1.0000      -1.103653       -30.0319 
  24   1.0000      -1.085516       -29.5384 
  25   1.0000      -1.054510       -28.6947 
  26   1.0000      -0.954511       -25.9736 
  27   1.0000      -0.923388       -25.1267 
  28   1.0000      -0.881564       -23.9886 
  29   1.0000      -0.834498       -22.7078 
  30   1.0000      -0.811970       -22.0948 
  31   1.0000      -0.798153       -21.7189 
  32   1.0000      -0.778946       -21.1962 
  33   1.0000      -0.762245       -20.7417 
  34   1.0000      -0.735110       -20.0034 
  35   1.0000      -0.705534       -19.1986 
  36   1.0000      -0.684993       -18.6396 
  37   1.0000      -0.668627       -18.1943 
  38   1.0000      -0.649723       -17.6799 
  39   1.0000      -0.646962       -17.6047 
  40   1.0000      -0.630685       -17.1618 
  41   1.0000      -0.608933       -16.5699 
  42   1.0000      -0.605120       -16.4661 
  43   1.0000      -0.590349       -16.0642 
  44   1.0000      -0.579073       -15.7574 
  45   1.0000      -0.575440       -15.6585 
  46   1.0000      -0.569652       -15.5010 
  47   1.0000      -0.563023       -15.3206 
  48   1.0000      -0.558207       -15.1896 
  49   1.0000      -0.551578       -15.0092 
  50   1.0000      -0.545533       -14.8447 
  51   1.0000      -0.537665       -14.6306 
  52   1.0000      -0.530685       -14.4407 
  53   1.0000      -0.501377       -13.6432 
  54   1.0000      -0.498197       -13.5566 
  55   1.0000      -0.487350       -13.2615 
  56   1.0000      -0.482838       -13.1387 
  57   1.0000      -0.470692       -12.8082 
  58   1.0000      -0.461547       -12.5593 
  59   1.0000      -0.450533       -12.2596 
  60   1.0000      -0.413228       -11.2445 
  61   1.0000      -0.404740       -11.0135 
  62   1.0000      -0.401167       -10.9163 
  63   1.0000      -0.394096       -10.7239 
  64   1.0000      -0.383120       -10.4252 
  65   1.0000      -0.375183       -10.2092 
  66   1.0000      -0.215446        -5.8626 
  67   0.0000       0.012441         0.3385 
  68   0.0000       0.026501         0.7211 
  69   0.0000       0.033188         0.9031 
  70   0.0000       0.038281         1.0417 
  71   0.0000       0.052697         1.4340 
  72   0.0000       0.055427         1.5082 
  73   0.0000       0.058174         1.5830 
  74   0.0000       0.063484         1.7275 
  75   0.0000       0.065827         1.7913 
  76   0.0000       0.069426         1.8892 
  77   0.0000       0.075588         2.0569 

                 SPIN DOWN ORBITALS
  NO   OCC          E(Eh)            E(eV) 
   0   1.0000     -19.423037      -528.5277 
   1   1.0000     -19.327281      -525.9221 
   2   1.0000     -19.324052      -525.8342 
   3   1.0000     -19.316179      -525.6199 
   4   1.0000     -14.585380      -396.8884 
   5   1.0000     -14.559953      -396.1965 
   6   1.0000     -14.557832      -396.1387 
   7   1.0000     -14.552052      -395.9815 
   8   1.0000     -10.499641      -285.7098 
   9   1.0000     -10.498810      -285.6871 
  10   1.0000     -10.474121      -285.0153 
  11   1.0000     -10.449093      -284.3343 
  12   1.0000     -10.431807      -283.8639 
  13   1.0000     -10.427034      -283.7340 
  14   1.0000     -10.418781      -283.5095 
  15   1.0000     -10.382073      -282.5106 
  16   1.0000     -10.377413      -282.3838 
  17   1.0000     -10.357784      -281.8496 
  18   1.0000      -1.246788       -33.9268 
  19   1.0000      -1.217534       -33.1308 
  20   1.0000      -1.214188       -33.0397 
  21   1.0000      -1.191343       -32.4181 
  22   1.0000      -1.158620       -31.5277 
  23   1.0000      -1.102647       -30.0045 
  24   1.0000      -1.076462       -29.2920 
  25   1.0000      -1.054323       -28.6896 
  26   1.0000      -0.954109       -25.9626 
  27   1.0000      -0.917568       -24.9683 
  28   1.0000      -0.879050       -23.9202 
  29   1.0000      -0.822727       -22.3875 
  30   1.0000      -0.800596       -21.7853 
  31   1.0000      -0.795886       -21.6572 
  32   1.0000      -0.777912       -21.1681 
  33   1.0000      -0.747720       -20.3465 
  34   1.0000      -0.725878       -19.7521 
  35   1.0000      -0.705005       -19.1842 
  36   1.0000      -0.669132       -18.2080 
  37   1.0000      -0.654010       -17.7965 
  38   1.0000      -0.639487       -17.4013 
  39   1.0000      -0.631465       -17.1830 
  40   1.0000      -0.621137       -16.9020 
  41   1.0000      -0.598456       -16.2848 
  42   1.0000      -0.587956       -15.9991 
  43   1.0000      -0.578600       -15.7445 
  44   1.0000      -0.571870       -15.5614 
  45   1.0000      -0.564183       -15.3522 
  46   1.0000      -0.561488       -15.2789 
  47   1.0000      -0.558617       -15.2007 
  48   1.0000      -0.545808       -14.8522 
  49   1.0000      -0.541296       -14.7294 
  50   1.0000      -0.539683       -14.6855 
  51   1.0000      -0.530935       -14.4475 
  52   1.0000      -0.514360       -13.9965 
  53   1.0000      -0.498096       -13.5539 
  54   1.0000      -0.483500       -13.1567 
  55   1.0000      -0.479694       -13.0531 
  56   1.0000      -0.472866       -12.8674 
  57   1.0000      -0.467188       -12.7128 
  58   1.0000      -0.423239       -11.5169 
  59   1.0000      -0.409554       -11.1445 
  60   1.0000      -0.401412       -10.9230 
  61   1.0000      -0.396747       -10.7960 
  62   1.0000      -0.393759       -10.7147 
  63   1.0000      -0.381185       -10.3726 
  64   1.0000      -0.374585       -10.1930 
  65   0.0000      -0.143256        -3.8982 
  66   0.0000       0.012349         0.3360 
[...]
[1738788033.840721] [ohm:2918130:0]        ib_iface.c:1059 UCX  ERROR ibv_create_cq(cqe=256) failed: Connection timed out
[1738788033.843148] [ohm:2918026:0]        ib_iface.c:1059 UCX  ERROR ibv_create_cq(cqe=256) failed: Connection timed out
[1738788033.846627] [ohm:2918116:0]        ib_iface.c:1059 UCX  ERROR ibv_create_cq(cqe=256) failed: Connection timed out
[1738788033.847094] [ohm:2918123:0]        ib_iface.c:1059 UCX  ERROR ibv_create_cq(cqe=256) failed: Connection timed out
[1738788033.847469] [ohm:2918078:0]        ib_iface.c:1059 UCX  ERROR ibv_create_cq(cqe=256) failed: Connection timed out
[1738788033.848455] [ohm:2918088:0]        ib_iface.c:1059 UCX  ERROR ibv_create_cq(cqe=256) failed: Connection timed out
[1738788033.848763] [ohm:2918033:0]        ib_iface.c:1059 UCX  ERROR ibv_create_cq(cqe=256) failed: Connection timed out
[1738788033.849240] [ohm:2918127:0]        ib_iface.c:1059 UCX  ERROR ibv_create_cq(cqe=256) failed: Connection timed out
[1738788033.849616] [ohm:2918132:0]        ib_iface.c:1059 UCX  ERROR ibv_create_cq(cqe=256) failed: Connection timed out
[1738788033.849773] [ohm:2918023:0]        ib_iface.c:1059 UCX  ERROR ibv_create_cq(cqe=256) failed: Connection timed out


           ************************************************************
           *        Program running with 64 parallel MPI-processes    *
           *              working on a common directory               *
           ************************************************************

------------------------------------------------------------------------------
                              ORCA PROPERTY CALCULATIONS
------------------------------------------------------------------------------

GBWName                                 ... orca.gbw
Number of atoms                         ...     30
Number of basis functions               ...    882
Max core memory                         ...   1024 MB

Electric properties:
Dipole moment                           ... YES
Quadrupole moment                       ...  NO
Static polarizability (Dipole/Dipole)   ...  NO
Static polarizability (Dipole/Quad.)    ...  NO
Static polarizability (Quad./Quad.)     ...  NO
Static polarizability (Velocity)        ...  NO

Atomic electric properties:
Dipole moment                           ...  NO
Quadrupole moment                       ...  NO
Static polarizability                   ...  NO

Choice of electric origin               ... Center of mass
Position of electric origin             ...     0.137025    -0.190821     0.395448

General magnetic properties:
Magnetizability                         ...  NO

EPR properties:
g-Tensor (aka g-matrix)                 ...  NO
Zero-Field splitting spin-orbit         ...  NO
Zero-field splitting spin-spin          ...  NO
Hyperfine couplings                     ...  NO (   0 nuclei)
Quadrupole couplings                    ...  NO (   0 nuclei)
Contact density                         ...  NO (   0 nuclei)

NMR properties:
Chemical shifts                         ...  NO (   0 nuclei)
Spin-rotation constants                 ...  NO (   0 nuclei)
Spin-spin couplings                     ...  NO (   0 nuclei,    0 pairs)

Choice of magnetic origin               ... GIAO
Position of magnetic origin             ...     0.000000     0.000000     0.000000

Properties with geometric perturbations:
SCF Hessian                             ...  NO
IR spectrum                             ...  NO
VCD spectrum                            ...  NO
X-ray spectroscopy properties:
SCF XES/XAS/RIXS spectra                ...  NO


-------------
DIPOLE MOMENT
-------------

Method             : SCF
Type of density    : Electron Density
Multiplicity       :   3
Irrep              :   0
Energy             :  -908.6467774549885235 Eh
Relativity type    : 
Basis              : AO
                                X                 Y                 Z
Electronic contribution:      1.431405092     -12.836558918      -2.101896200
Nuclear contribution   :     -0.042902082      13.817024753       4.060950020
                        -----------------------------------------
Total Dipole Moment    :      1.388503010       0.980465835       1.959053819
                        -----------------------------------------
Magnitude (a.u.)       :      2.593674176
Magnitude (Debye)      :      6.592595832



--------------------
Rotational spectrum 
--------------------
 
Rotational constants in cm-1:             0.022561             0.010128             0.009782 
Rotational constants in MHz :           676.348718           303.640112           293.266308 

Dipole components along the rotational axes: 
x,y,z [a.u.] :    -1.418754     2.142315    -0.353230 
x,y,z [Debye]:    -3.606186     5.445331    -0.897839 

 

-------------
DIPOLE MOMENT
-------------

Method             : TDA/CIS
Type of density    : Electron Density
Level              : Relaxed density
State              :   1
Multiplicity       :   3
Irrep              :   0
Energy             :     0.0000000000000000 Eh
Relativity type    : 
Basis              : AO
                                X                 Y                 Z
Electronic contribution:      0.754434724     -12.646288666      -2.985392235
Nuclear contribution   :     -0.042902082      13.817024753       4.060950020
                        -----------------------------------------
Total Dipole Moment    :      0.711532642       1.170736088       1.075557785
                        -----------------------------------------
Magnitude (a.u.)       :      1.741759523
Magnitude (Debye)      :      4.427200872



--------------------
Rotational spectrum 
--------------------
 
Rotational constants in cm-1:             0.022561             0.010128             0.009782 
Rotational constants in MHz :           676.348718           303.640112           293.266308 

Dipole components along the rotational axes: 
x,y,z [a.u.] :    -0.522799     1.525938    -0.657207 
x,y,z [Debye]:    -1.328851     3.878625    -1.670487 

 

Dipole moment calculation done in   0.2 sec 

Maximum memory used throughout the entire PROP-calculation: 80.4 MB
[1738788036.255630] [ohm:2918343:0]        ib_iface.c:1059 UCX  ERROR ibv_create_cq(cqe=256) failed: Connection timed out
[1738788036.267742] [ohm:2918411:0]        ib_iface.c:1059 UCX  ERROR ibv_create_cq(cqe=256) failed: Connection timed out
[1738788036.271249] [ohm:2918339:0]        ib_iface.c:1059 UCX  ERROR ibv_create_cq(cqe=256) failed: Connection timed out
[1738788036.271677] [ohm:2918338:0]        ib_iface.c:1059 UCX  ERROR ibv_create_cq(cqe=256) failed: Connection timed out
[1738788036.278304] [ohm:2918335:0]        ib_iface.c:1059 UCX  ERROR ibv_create_cq(cqe=256) failed: Connection timed out
[1738788036.282789] [ohm:2918337:0]        ib_iface.c:1059 UCX  ERROR ibv_create_cq(cqe=256) failed: Connection timed out
[1738788036.312701] [ohm:2918342:0]        ib_iface.c:1059 UCX  ERROR ibv_create_cq(cqe=256) failed: Connection timed out
[1738788036.316777] [ohm:2918346:0]        ib_iface.c:1059 UCX  ERROR ibv_create_cq(cqe=256) failed: Connection timed out
[1738788036.324812] [ohm:2918336:0]        ib_iface.c:1059 UCX  ERROR ibv_create_cq(cqe=256) failed: Connection timed out
[1738788036.344385] [ohm:2918426:0]        ib_iface.c:1059 UCX  ERROR ibv_create_cq(cqe=256) failed: Connection timed out
[1738788036.345939] [ohm:2918344:0]        ib_iface.c:1059 UCX  ERROR ibv_create_cq(cqe=256) failed: Connection timed out
[1738788036.346865] [ohm:2918349:0]        ib_iface.c:1059 UCX  ERROR ibv_create_cq(cqe=256) failed: Connection timed out
[1738788036.350605] [ohm:2918352:0]        ib_iface.c:1059 UCX  ERROR ibv_create_cq(cqe=256) failed: Connection timed out
[1738788036.352431] [ohm:2918348:0]        ib_iface.c:1059 UCX  ERROR ibv_create_cq(cqe=256) failed: Connection timed out
[1738788036.413691] [ohm:2918353:0]        ib_iface.c:1059 UCX  ERROR ibv_create_cq(cqe=256) failed: Connection timed out
[1738788036.414068] [ohm:2918364:0]        ib_iface.c:1059 UCX  ERROR ibv_create_cq(cqe=256) failed: Connection timed out
[1738788036.425362] [ohm:2918402:0]        ib_iface.c:1059 UCX  ERROR ibv_create_cq(cqe=256) failed: Connection timed out
[1738788036.428532] [ohm:2918360:0]        ib_iface.c:1059 UCX  ERROR ibv_create_cq(cqe=256) failed: Connection timed out
[1738788036.429139] [ohm:2918340:0]        ib_iface.c:1059 UCX  ERROR ibv_create_cq(cqe=256) failed: Connection timed out
[1738788036.430129] [ohm:2918365:0]        ib_iface.c:1059 UCX  ERROR ibv_create_cq(cqe=256) failed: Connection timed out
[1738788036.443930] [ohm:2918345:0]        ib_iface.c:1059 UCX  ERROR ibv_create_cq(cqe=256) failed: Connection timed out
[1738788036.447639] [ohm:2918362:0]        ib_iface.c:1059 UCX  ERROR ibv_create_cq(cqe=256) failed: Connection timed out
[1738788036.448463] [ohm:2918391:0]        ib_iface.c:1059 UCX  ERROR ibv_create_cq(cqe=256) failed: Connection timed out
[1738788036.483954] [ohm:2918420:0]        ib_iface.c:1059 UCX  ERROR ibv_create_cq(cqe=256) failed: Connection timed out
[1738788036.487576] [ohm:2918470:0]        ib_iface.c:1059 UCX  ERROR ibv_create_cq(cqe=256) failed: Connection timed out
[1738788036.496550] [ohm:2918437:0]        ib_iface.c:1059 UCX  ERROR ibv_create_cq(cqe=256) failed: Connection timed out
[1738788036.506965] [ohm:2918476:0]        ib_iface.c:1059 UCX  ERROR ibv_create_cq(cqe=256) failed: Connection timed out
[1738788036.507271] [ohm:2918408:0]        ib_iface.c:1059 UCX  ERROR ibv_create_cq(cqe=256) failed: Connection timed out
[1738788036.507769] [ohm:2918469:0]        ib_iface.c:1059 UCX  ERROR ibv_create_cq(cqe=256) failed: Connection timed out
[1738788036.511002] [ohm:2918461:0]        ib_iface.c:1059 UCX  ERROR ibv_create_cq(cqe=256) failed: Connection timed out
[1738788036.519857] [ohm:2918359:0]        ib_iface.c:1059 UCX  ERROR ibv_create_cq(cqe=256) failed: Connection timed out
[1738788036.523717] [ohm:2918350:0]        ib_iface.c:1059 UCX  ERROR ibv_create_cq(cqe=256) failed: Connection timed out
[1738788036.529910] [ohm:2918481:0]        ib_iface.c:1059 UCX  ERROR ibv_create_cq(cqe=256) failed: Connection timed out
[1738788036.531809] [ohm:2918356:0]        ib_iface.c:1059 UCX  ERROR ibv_create_cq(cqe=256) failed: Connection timed out
[1738788036.531945] [ohm:2918445:0]        ib_iface.c:1059 UCX  ERROR ibv_create_cq(cqe=256) failed: Connection timed out
[1738788036.535029] [ohm:2918351:0]        ib_iface.c:1059 UCX  ERROR ibv_create_cq(cqe=256) failed: Connection timed out
[1738788036.540845] [ohm:2918381:0]        ib_iface.c:1059 UCX  ERROR ibv_create_cq(cqe=256) failed: Connection timed out
[1738788036.542722] [ohm:2918425:0]        ib_iface.c:1059 UCX  ERROR ibv_create_cq(cqe=256) failed: Connection timed out
[1738788036.544073] [ohm:2918357:0]        ib_iface.c:1059 UCX  ERROR ibv_create_cq(cqe=256) failed: Connection timed out
[1738788036.549451] [ohm:2918474:0]        ib_iface.c:1059 UCX  ERROR ibv_create_cq(cqe=256) failed: Connection timed out
[1738788036.550159] [ohm:2918448:0]        ib_iface.c:1059 UCX  ERROR ibv_create_cq(cqe=256) failed: Connection timed out
[1738788036.552140] [ohm:2918464:0]        ib_iface.c:1059 UCX  ERROR ibv_create_cq(cqe=256) failed: Connection timed out
[1738788036.557841] [ohm:2918442:0]        ib_iface.c:1059 UCX  ERROR ibv_create_cq(cqe=256) failed: Connection timed out
[1738788036.558480] [ohm:2918416:0]        ib_iface.c:1059 UCX  ERROR ibv_create_cq(cqe=256) failed: Connection timed out
[1738788036.572892] [ohm:2918433:0]        ib_iface.c:1059 UCX  ERROR ibv_create_cq(cqe=256) failed: Connection timed out
[1738788036.574228] [ohm:2918452:0]        ib_iface.c:1059 UCX  ERROR ibv_create_cq(cqe=256) failed: Connection timed out
[1738788036.579814] [ohm:2918378:0]        ib_iface.c:1059 UCX  ERROR ibv_create_cq(cqe=256) failed: Connection timed out
[1738788036.582237] [ohm:2918373:0]        ib_iface.c:1059 UCX  ERROR ibv_create_cq(cqe=256) failed: Connection timed out
[1738788036.586113] [ohm:2918395:0]        ib_iface.c:1059 UCX  ERROR ibv_create_cq(cqe=256) failed: Connection timed out
[1738788036.589588] [ohm:2918467:0]        ib_iface.c:1059 UCX  ERROR ibv_create_cq(cqe=256) failed: Connection timed out
[1738788036.592630] [ohm:2918372:0]        ib_iface.c:1059 UCX  ERROR ibv_create_cq(cqe=256) failed: Connection timed out
[1738788036.593078] [ohm:2918354:0]        ib_iface.c:1059 UCX  ERROR ibv_create_cq(cqe=256) failed: Connection timed out
[1738788036.594367] [ohm:2918399:0]        ib_iface.c:1059 UCX  ERROR ibv_create_cq(cqe=256) failed: Connection timed out
[1738788036.595598] [ohm:2918355:0]        ib_iface.c:1059 UCX  ERROR ibv_create_cq(cqe=256) failed: Connection timed out
[1738788036.599057] [ohm:2918428:0]        ib_iface.c:1059 UCX  ERROR ibv_create_cq(cqe=256) failed: Connection timed out
[1738788036.599256] [ohm:2918423:0]        ib_iface.c:1059 UCX  ERROR ibv_create_cq(cqe=256) failed: Connection timed out
[1738788036.599547] [ohm:2918341:0]        ib_iface.c:1059 UCX  ERROR ibv_create_cq(cqe=256) failed: Connection timed out
[1738788036.599574] [ohm:2918358:0]        ib_iface.c:1059 UCX  ERROR ibv_create_cq(cqe=256) failed: Connection timed out
[1738788036.600634] [ohm:2918457:0]        ib_iface.c:1059 UCX  ERROR ibv_create_cq(cqe=256) failed: Connection timed out
[1738788036.601023] [ohm:2918347:0]        ib_iface.c:1059 UCX  ERROR ibv_create_cq(cqe=256) failed: Connection timed out
[1738788036.601085] [ohm:2918453:0]        ib_iface.c:1059 UCX  ERROR ibv_create_cq(cqe=256) failed: Connection timed out
[1738788036.602191] [ohm:2918389:0]        ib_iface.c:1059 UCX  ERROR ibv_create_cq(cqe=256) failed: Connection timed out
[1738788036.603458] [ohm:2918361:0]        ib_iface.c:1059 UCX  ERROR ibv_create_cq(cqe=256) failed: Connection timed out
[1738788036.603948] [ohm:2918384:0]        ib_iface.c:1059 UCX  ERROR ibv_create_cq(cqe=256) failed: Connection timed out

--------------------------------
SUGGESTED CITATIONS FOR THIS RUN
--------------------------------

Below you find a list of papers that are relevant to this ORCA run
We neither can nor want to force you to cite these papers, but we appreciate if you do
You receive ORCA, which is the product of decades of hard work by many enthusiastic individuals, for free
The only thing we kindly ask in return is that you cite our papers,
We deeply appreciate it, if you show your appreciation for ORCA by not just citing the generic ORCA reference.

Please note that relegating all ORCA citations to the supporting information does *not* help us.
SI sections are not indexed - citations you put there will not count into any citation statistics
But we need these citations in order to attract the funding resources that allow us to do what we are doing

Therefore, if you are a happy ORCA user, please consider citing a few of the papers listed below in the main body of your paper

In addition to the list printed below, the program has created the file orca.bibtex that contains the list in bibtex format
You can import this file easily into all common literature databanks and citation aid programs


List of essential papers. We consider these as the minimum necessary citations

  1. Neese,F.
     Software update: the ORCA program system, version 5.0
     WIRES Comput. Molec. Sci., 2022 12(1)e1606
     doi.org/10.1002/wcms.1606

List of papers to cite with high priority. The work reported in these papers was absolutely
necessary for this run to complete.
Our perspective: the developers of density functionals and basis sets usually get cited in chemistry papers
Good! But without the algorithms to do something with them, the functionals or basis sets would not do anything.
Hence, in our opinion, the algorithm design and method developments papers are equally worthy of getting cited

  1. Neese,F.; Olbrich,G.
     Efficient use of the resolution of the identity approximation in time-dependent density functional calculations with hybrid density functionals
     Chem. Phys. Lett., 2002 362 170-178
     doi.org/10.1016/s0009-2614(02)01053-9
  2. Neese,F.
     An improvement of the resolution of the identity approximation for the formation of the Coulomb matrix
     J. Comp. Chem., 2003 24(14)1740-1747
     doi.org/10.1002/jcc.10318
  3. Neese,F.; Wennmohs,F.; Hansen,A.; Becker,U.
     Efficient, approximate and parallel Hartree-Fock and hybrid DFT calculations. A 'chain-of-spheres' algorithm for the Hartree-Fock exchange
     Chem. Phys., 2009 356(1-3)98-109
     doi.org/10.1016/j.chemphys.2008.10.036
  4. Petrenko,T.; Kossmann,S.; Neese,F.
     Efficient time-dependent density functional theory approximations for hybrid density functionals: Analytical gradients and parallelization
     J. Chem. Phys., 2011 134 054116
     doi.org/10.1063/1.3533441
  5. Helmich-Paris,B.; de Souza,B.; Neese,F.; Izsák,R.
     An improved chain of spheres for exchange algorithm
     J. Chem. Phys., 2021 155 104109
     doi.org/doi: 10.1063/5.0058766.
  6. Neese,F.
     The SHARK Integral Generation and Digestion System
     J. Comp. Chem., 2022  1-16
     doi.org/10.1002/jcc.26942
  7. Lehtola,S.; Steigemann,C.; Oliveira,M.; Marques,M.
     Recent developments in Libxc - A comprehensive library of functionals for density functional theory
     Software X, 2018 7 
     doi.org/10.1016/j.softx.2017.11.002
  8. Grimme,S.; Antony,J.; Ehrlich,S.; Krieg,H.
     A consistent and accurate ab initio parametrization of density functional dispersion correction (DFT-D) for the 94 elements H-Pu
     J. Chem. Phys., 2010 132 154104-XXXX
     doi.org/10.1063/1.3382344
  9. Grimme,S.; Ehrlich,S.; Goerigk,L.
     Effect of the damping function in dispersion corrected density functional theory
     J. Comput. Chem., 2011 32(7)1456-1465
     doi.org/10.1002/jcc.21759

List of suggested additional citations. These are papers that are important in the 'surrounding' of 
of this run, or papers that preceded the highly important papers. If you like your results we are grateful for a citation.

  1. Izsak,R.; Neese,F.
     An overlap fitted chain of spheres exchange method
     J. Chem. Phys., 2011 135 144105
     doi.org/10.1063/1.3646921
  2. Izsak,R.; Hansen,A.; Neese,F.
     The resolution of identity and chain of spheres approximations for the LPNO-CCSD singles Fock term
     Molec. Phys., 2012 110 2413-2417
     doi.org/10.1080/00268976.2012.687466
  3. Neese,F.
     The ORCA program system
     WIRES Comput. Molec. Sci., 2012 2(1)73-78
     doi.org/10.1002/wcms.81
  4. Izsak,R.; Neese,F.; Klopper,W.
     Robust fitting techniques in the chain of spheres approximation to the Fock exchange: The role of the complementary space
     J. Chem. Phys., 2013 139 
     doi.org/10.1063/1.4819264
  5. Neese,F.
     Software update: the ORCA program system, version 4.0
     WIRES Comput. Molec. Sci., 2018 8(1)1-6
     doi.org/10.1002/wcms.1327
  6. Neese,F.; Wennmohs,F.; Becker,U.; Riplinger,C.
     The ORCA quantum chemistry program package
     J. Chem. Phys., 2020 152 Art. No. L224108
     doi.org/10.1063/5.0004608

List of optional additional citations

  1. Neese,F.
     Approximate second-order SCF convergence for spin unrestricted wavefunctions
     Chem. Phys. Lett., 2000 325(1-3)93-98
     doi.org/10.1016/s0009-2614(00)00662-x

Timings for individual modules:

Sum of individual times          ...      408.980 sec (=   6.816 min)
Startup calculation              ...        6.211 sec (=   0.104 min)   1.5 %
SCF iterations                   ...      224.036 sec (=   3.734 min)  54.8 %
Property integrals               ...        4.051 sec (=   0.068 min)   1.0 %
Property calculations            ...        2.794 sec (=   0.047 min)   0.7 %
CIS module                       ...      171.887 sec (=   2.865 min)  42.0 %
                             ****ORCA TERMINATED NORMALLY****
TOTAL RUN TIME: 0 days 0 hours 6 minutes 51 seconds 25 msec
