7
Properties=species:S:1:pos:R:3:momenta:R:3:forces:R:3 Coordinates=T from=T ORCA-job=T orca=T E=T -153.889589183604=T energy=-4180.53090801609 free_energy=-4180.53090801609 stress="-7.5847776556896844e-06 -2.1685441914978394e-06 -1.0314148691963027e-06 -2.1685441914978394e-06 -2.105086563760067e-05 1.1458205104237422e-06 -1.0314148691963027e-06 1.1458205104237422e-06 5.031852272500623e-06" pbc="F F F"
O        0.01403647       0.81050856       0.00212202       0.12224100       1.48235713       0.20010626       0.29943245       3.15309548      -0.04069935
C        0.72276538      -0.46267412      -0.00029910      -0.05482825      -1.24293781       0.09207856       0.77898067      -1.82205755      -0.36500667
C       -0.73299994      -0.46604126      -0.00042932      -0.30819265      -0.93200348      -0.01280790      -0.93850923      -2.17291855      -0.71242271
H        1.23131528      -0.61676479       0.94977472      -0.02281234       0.11378727       0.01698207       0.23280737       0.17202823      -0.10680081
H        1.27998497      -0.61570042      -0.95187442       0.07748966       0.12502160      -0.07381257      -0.23977602       0.28196966       0.63452254
H       -1.26343839      -0.60568751      -0.95677734       0.12821877       0.18650351      -0.16284675       0.07235323       0.25197638       0.41073182
H       -1.27203331      -0.59287062       0.92515462       0.05788382       0.26727178      -0.05969967      -0.20528847       0.13590636       0.17967518
