
                                 *****************
                                 * O   R   C   A *
                                 *****************

                                            #,                                       
                                            ###                                      
                                            ####                                     
                                            #####                                    
                                            ######                                   
                                           ########,                                 
                                     ,,################,,,,,                         
                               ,,#################################,,                 
                          ,,##########################################,,             
                       ,#########################################, ''#####,          
                    ,#############################################,,   '####,        
                  ,##################################################,,,,####,       
                ,###########''''           ''''###############################       
              ,#####''   ,,,,##########,,,,          '''####'''          '####       
            ,##' ,,,,###########################,,,                        '##       
           ' ,,###''''                  '''############,,,                           
         ,,##''                                '''############,,,,        ,,,,,,###''
      ,#''                                            '''#######################'''  
     '                                                          ''''####''''         
             ,#######,   #######,   ,#######,      ##                                
            ,#'     '#,  ##    ##  ,#'     '#,    #''#        ,####,   ,####,        
            ##       ##  ##   ,#'  ##            #'  '#       #'       #'  '#        
            ##       ##  #######   ##           ,######,      #####,   #    #        
            '#,     ,#'  ##    ##  '#,     ,#' ,#      #,     #,   #   #,  ,#        
             '#######'   ##     ##  '#######'  #'      '#     '####' # '####'        



                #########################################################
                #                        -***-                          #
                #          Department of theory and spectroscopy        #
                #                                                       #
                #                      Frank Neese                      #
                #                                                       #
                #     Directorship, Architecture, Infrastructure        #
                #                    SHARK, DRIVERS                     #
                #        Core code/Algorithms in most modules           #
                #                                                       #
                #        Max Planck Institute fuer Kohlenforschung      #
                #                Kaiser Wilhelm Platz 1                 #
                #                 D-45470 Muelheim/Ruhr                 #
                #                      Germany                          #
                #                                                       #
                #                  All rights reserved                  #
                #                        -***-                          #
                #########################################################


                         Program Version 6.0.0  -   RELEASE  -


 With contributions from (in alphabetic order):
   Daniel Aravena         : Magnetic Suceptibility
   Michael Atanasov       : Ab Initio Ligand Field Theory (pilot matlab implementation)
   Alexander A. Auer      : GIAO ZORA, VPT2 properties, NMR spectrum
   Ute Becker             : All parallelization in ORCA, NUMFREQ, NUMCALC
   Giovanni Bistoni       : ED, misc. LED, open-shell LED, HFLD
   Martin Brehm           : Molecular dynamics
   Dmytro Bykov           : pre 5.0 version of the SCF Hessian
   Marcos Casanova-Páez   : Triplet and SCS-CIS(D). UHF-(DLPNO)-IP/EA/STEOM-CCSD. UHF-CVS-IP/STEOM-CCSD
   Vijay G. Chilkuri      : MRCI spin determinant printing, contributions to CSF-ICE
   Pauline Colinet        : FMM embedding
   Dipayan Datta          : RHF DLPNO-CCSD density
   Achintya Kumar Dutta   : EOM-CC, STEOM-CC
   Nicolas Foglia         : Exact transition moments, OPA infrastructure, MCD improvements
   Dmitry Ganyushin       : Spin-Orbit,Spin-Spin,Magnetic field MRCI
   Miquel Garcia          : C-PCM and meta-GGA Hessian, CCSD/C-PCM, Gaussian charge scheme
   Tiago L. C. Gouveia    : GS-ROHF, GS-ROCIS
   Yang Guo               : DLPNO-NEVPT2, F12-NEVPT2, CIM, IAO-localization
   Andreas Hansen         : Spin unrestricted coupled pair/coupled cluster methods
   Ingolf Harden          : AUTO-CI MPn and infrastructure 
   Benjamin Helmich-Paris : MC-RPA, TRAH-(SCF,CASSCF), AVAS, COSX integrals, SCF dyn. polar.
   Lee Huntington         : MR-EOM, pCC
   Robert Izsak           : Overlap fitted RIJCOSX, COSX-SCS-MP3, EOM
   Riya Kayal             : Wick's Theorem for AUTO-CI, AUTO-CI UHF-CCSDT
   Emily Kempfer          : AUTO-CI, RHF CISDT and CCSDT
   Christian Kollmar      : KDIIS, OOCD, Brueckner-CCSD(T), CCSD density, CASPT2, CASPT2-K, improved NEVPT2
   Axel Koslowski         : Symmetry handling
   Simone Kossmann        : Meta GGA functionals, TD-DFT gradient, OOMP2, (MP2 Hessian; deprecated post 5.0)
   Lucas Lang             : DCDCAS
   Marvin Lechner         : AUTO-CI (C++ implementation), FIC-MRCC
   Spencer Leger          : CASSCF response
   Dagmar Lenk            : GEPOL surface, SMD, ORCA-2-JSON
   Dimitrios Liakos       : Extrapolation schemes; Compound Job, initial MDCI parallelization
   Dimitrios Manganas     : Further ROCIS development; embedding schemes. LFT, Crystal Embedding
   Dimitrios Pantazis     : SARC Basis sets
   Anastasios Papadopoulos: AUTO-CI, single reference methods and gradients
   Taras Petrenko         : pre 6.0 DFT Hessian and TD-DFT gradient, (ASA, deprecated), ECA, 1-Electron XAS/XES, NRVS
   Peter Pinski           : DLPNO-MP2, DLPNO-MP2 Gradient
   Christoph Reimann      : Effective Core Potentials
   Marius Retegan         : Local ZFS, SOC
   Christoph Riplinger    : Optimizer, TS searches, QM/MM, DLPNO-CCSD(T), (RO)-DLPNO pert. Triples
   Michael Roemelt        : Original ROCIS implementation
   Masaaki Saitow         : Open-shell DLPNO-CCSD energy and density
   Barbara Sandhoefer     : DKH picture change effects
   Kantharuban Sivalingam : CASSCF convergence/infrastructure, NEVPT2 and variants, FIC-MRCI
   Bernardo de Souza      : ESD, SOC TD-DFT
   Georgi Stoychev        : AutoAux, RI-MP2 NMR, DLPNO-MP2 response, X2C
   Van Anh Tran           : RI-MP2 g-tensors
   Willem Van den Heuvel  : Paramagnetic NMR
   Zikuan Wang            : NOTCH, Electric field optimization 
   Frank Wennmohs         : Technical directorship and infrastructure
   Hang Xu                : AUTO-CI-Response properties 


 We gratefully acknowledge several colleagues who have allowed us to
 interface, adapt or use parts of their codes:
   Stefan Grimme, W. Hujo, H. Kruse, P. Pracht,  : VdW corrections, initial TS optimization,
                  C. Bannwarth, S. Ehlert,         DFT functionals, gCP, sTDA/sTD-DF
                  L. Wittmann, M. Mueller
   Ed Valeev, F. Pavosevic, A. Kumar             : LibInt (2-el integral package), F12 methods
   Garnet Chan, S. Sharma, J. Yang, R. Olivares  : DMRG
   Ulf Ekstrom                                   : XCFun DFT Library
   Mihaly Kallay                                 : mrcc  (arbitrary order and MRCC methods)
   Frank Weinhold                                : gennbo (NPA and NBO analysis)
   Simon Mueller                                 : openCOSMO-RS
   Christopher J. Cramer and Donald G. Truhlar   : smd solvation model
   Lars Goerigk                                  : TD-DFT with DH, B97 family of functionals
   V. Asgeirsson, H. Jonsson                     : NEB implementation
   FAccTs GmbH                                   : IRC, NEB, NEB-TS, DLPNO-Multilevel, CI-OPT
                                                   MM, QMMM, 2- and 3-layer-ONIOM, Crystal-QMMM,
                                                   LR-CPCM, SF, NACMEs, symmetry and pop. for TD-DFT,
                                                   nearIR, NL-DFT gradient (VV10), updates on ESD,
                                                   ML-optimized integration grids, MBIS, APM,
                                                   GOAT, DOCKER, SOLVATOR, interface openCOSMO-RS
   S Lehtola, MJT Oliveira, MAL Marques          : LibXC Library
   Liviu Ungur et al                             : ANISO software


 Your calculation uses the libint2 library for the computation of 2-el integrals
 For citations please refer to: http://libint.valeyev.net

 Your ORCA version has been built with support for libXC version: 6.2.2
 For citations please refer to: https://libxc.gitlab.io

 This ORCA versions uses:
   CBLAS   interface :  Fast vector & matrix operations
   LAPACKE interface :  Fast linear algebra routines
   SCALAPACK package :  Parallel linear algebra routines
   Shared memory     :  Shared parallel matrices
   BLAS/LAPACK       :  OpenBLAS 0.3.27  USE64BITINT DYNAMIC_ARCH NO_AFFINITY Zen SINGLE_THREADED
        Core in use  :  Zen
   Copyright (c) 2011-2014, The OpenBLAS Project


Your calculation utilizes the atom-pairwise dispersion correction
with the Becke-Johnson damping scheme (D3BJ)


Warning: RI is on but no J-basis has been assigned. Assigning Def2/J (nothing to worry about!)
================================================================================

----- Orbital basis set information -----
Your calculation utilizes the basis: def2-TZVPPD
   F. Weigend and R. Ahlrichs, Phys. Chem. Chem. Phys. 7, 3297 (2005).
   D. Rappoport and F. Furche, J. Chem. Phys. 133, 134105 (2010)
   D. Rappoport, J. Chem. Phys. 155, 124102 (2021).

----- AuxJ basis set information -----
Your calculation utilizes the auxiliary basis: def2/J
   F. Weigend, Phys. Chem. Chem. Phys. 8, 1057 (2006).

================================================================================
                                        WARNINGS
                       Please study these warnings very carefully!
================================================================================

Using LibXC functional ID 531 : wB97M-V exchange-correlation functional
[ 1]  N. Mardirossian and M. Head-Gordon.,  J. Chem. Phys. 144, 214110 (2016)
Using LibXC functional ID 531 : wB97M-V exchange-correlation functional
[ 1]  N. Mardirossian and M. Head-Gordon.,  J. Chem. Phys. 144, 214110 (2016)

WARNING: B97M-V or wB97M-V functional requested.
  ===> : libXC variant has now been activated.
         Any manually given DFX/HFX/RangeSep scaling parameters are IGNORED!

Your calculation utilizes LibXC
 by S Lehtola, C Steigemann, MJT Oliveira & MAL Marques
Please cite in your paper:
 S Lehtola, C Steigemann, MJT Oliveira & MAL Marques, SoftwareX, 7, (2018), 1.
   


WARNING: your system is open-shell and RHF/RKS was chosen
  ===> : WILL SWITCH to UHF/UKS

INFO   : Checking CIS options ...

WARNING: CIS/ROCIS methods need fully converged wavefunctions
  ===> : Setting SCFConvForced true
         You can overwrite this default with %scf ConvForced false 


================================================================================
                                       INPUT FILE
================================================================================
NAME = orca.inp
|  1> ! Engrad def2-TZVPPD wB97M-D3BJ 
|  2> %pal nprocs 8 end%pal nprocs 64 end 
|  3> %tddft Nroots 2 Iroot 1 
|  4> sf true 
|  5> end 
|  6> *xyz 0 3 
|  7> O   2.81832041 1.12481032 -0.69186757
|  8> O   -0.36226313 0.79568724 -2.03960272
|  9> O   0.6238298 -2.81225943 -1.49454265
| 10> O   -2.6420615 -1.68583535 0.97516249
| 11> N   0.67414727 -2.03378866 0.65647911
| 12> N   -2.42654123 0.5395158 1.33638862
| 13> N   1.85191716 -0.92832158 -1.02516106
| 14> N   -1.60767918 -0.40492902 -0.57396981
| 15> C   1.62366257 0.09070834 1.10514727
| 16> C   -1.02192882 1.86175629 -0.05949386
| 17> C   0.84514554 -0.97881918 1.51542872
| 18> C   -1.75411881 1.70756807 1.0537624
| 19> C   2.00446447 1.21973273 2.01477504
| 20> C   -0.29423168 3.10999376 -0.3489464
| 21> C   2.15704117 0.19017469 -0.26633823
| 22> C   -0.93007058 0.74600628 -0.96321117
| 23> C   1.04845552 -2.01471488 -0.68154557
| 24> C   -2.26992053 -0.59693465 0.58639273
| 25> H   0.55228156 -1.20892297 2.49643626
| 26> H   -1.8281398 2.4716782 1.80317593
| 27> H   1.48372853 2.1904952 1.83542148
| 28> H   1.79470004 0.91703668 3.06451214
| 29> H   3.06785189 1.37602103 1.95262987
| 30> H   -0.55187308 3.53099835 -1.30295367
| 31> H   -0.53114534 3.83793719 0.42694675
| 32> H   0.77059611 2.95068997 -0.35078619
| 33> H   -0.08240312 -2.7136047 0.77728258
| 34> H   -2.89846717 0.39850061 2.23547498
| 35> H   2.12918938 -0.93495909 -1.99353889
| 36> H   -1.53290059 -1.24242593 -1.14163313
| 37> *
| 38> 
| 39>                          ****END OF INPUT****
================================================================================

                     *******************************
                     * Energy+Gradient Calculation *
                     *******************************

---------------------------------
CARTESIAN COORDINATES (ANGSTROEM)
---------------------------------
  O      2.818320    1.124810   -0.691868
  O     -0.362263    0.795687   -2.039603
  O      0.623830   -2.812259   -1.494543
  O     -2.642062   -1.685835    0.975162
  N      0.674147   -2.033789    0.656479
  N     -2.426541    0.539516    1.336389
  N      1.851917   -0.928322   -1.025161
  N     -1.607679   -0.404929   -0.573970
  C      1.623663    0.090708    1.105147
  C     -1.021929    1.861756   -0.059494
  C      0.845146   -0.978819    1.515429
  C     -1.754119    1.707568    1.053762
  C      2.004464    1.219733    2.014775
  C     -0.294232    3.109994   -0.348946
  C      2.157041    0.190175   -0.266338
  C     -0.930071    0.746006   -0.963211
  C      1.048456   -2.014715   -0.681546
  C     -2.269921   -0.596935    0.586393
  H      0.552282   -1.208923    2.496436
  H     -1.828140    2.471678    1.803176
  H      1.483729    2.190495    1.835421
  H      1.794700    0.917037    3.064512
  H      3.067852    1.376021    1.952630
  H     -0.551873    3.530998   -1.302954
  H     -0.531145    3.837937    0.426947
  H      0.770596    2.950690   -0.350786
  H     -0.082403   -2.713605    0.777283
  H     -2.898467    0.398501    2.235475
  H      2.129189   -0.934959   -1.993539
  H     -1.532901   -1.242426   -1.141633

----------------------------
CARTESIAN COORDINATES (A.U.)
----------------------------
  NO LB      ZA    FRAG     MASS         X           Y           Z
   0 O     8.0000    0    15.999    5.325854    2.125583   -1.307440
   1 O     8.0000    0    15.999   -0.684578    1.503631   -3.854291
   2 O     8.0000    0    15.999    1.178867   -5.314400   -2.824276
   3 O     8.0000    0    15.999   -4.992773   -3.185767    1.842790
   4 N     7.0000    0    14.007    1.273954   -3.843304    1.240566
   5 N     7.0000    0    14.007   -4.585498    1.019537    2.525409
   6 N     7.0000    0    14.007    3.499616   -1.754274   -1.937274
   7 N     7.0000    0    14.007   -3.038073   -0.765205   -1.084646
   8 C     6.0000    0    12.011    3.068278    0.171414    2.088426
   9 C     6.0000    0    12.011   -1.931166    3.518210   -0.112427
  10 C     6.0000    0    12.011    1.597094   -1.849700    2.863745
  11 C     6.0000    0    12.011   -3.314804    3.226836    1.991322
  12 C     6.0000    0    12.011    3.787889    2.304961    3.807373
  13 C     6.0000    0    12.011   -0.556017    5.877036   -0.659413
  14 C     6.0000    0    12.011    4.076217    0.359378   -0.503306
  15 C     6.0000    0    12.011   -1.757579    1.409748   -1.820205
  16 C     6.0000    0    12.011    1.981294   -3.807259   -1.287934
  17 C     6.0000    0    12.011   -4.289528   -1.128043    1.108122
  18 H     1.0000    0     1.008    1.043661   -2.284533    4.717581
  19 H     1.0000    0     1.008   -3.454684    4.670795    3.407509
  20 H     1.0000    0     1.008    2.803841    4.139436    3.468444
  21 H     1.0000    0     1.008    3.391492    1.732948    5.791089
  22 H     1.0000    0     1.008    5.797400    2.600303    3.689936
  23 H     1.0000    0     1.008   -1.042889    6.672620   -2.462226
  24 H     1.0000    0     1.008   -1.003719    7.252650    0.806812
  25 H     1.0000    0     1.008    1.456216    5.575996   -0.662890
  26 H     1.0000    0     1.008   -0.155719   -5.127970    1.468851
  27 H     1.0000    0     1.008   -5.477309    0.753057    4.224435
  28 H     1.0000    0     1.008    4.023585   -1.766817   -3.767243
  29 H     1.0000    0     1.008   -2.896762   -2.347845   -2.157374

--------------------------------
INTERNAL COORDINATES (ANGSTROEM)
--------------------------------
 O      0   0   0     0.000000000000     0.00000000     0.00000000
 O      1   0   0     3.469989004486     0.00000000     0.00000000
 O      2   1   0     3.779781596874    78.19393235     0.00000000
 O      3   2   1     4.246683490674    68.28690195   114.57316284
 N      3   2   1     2.288109088205    79.42888379    61.77396957
 N      4   3   2     2.264756288121   106.27254481   331.86330108
 N      1   2   3     2.293549735865    58.15912509   359.75036448
 N      4   3   2     2.260636789284    53.12181262     2.72346396
 C      5   3   2     2.369888167349   119.45792386   317.75705476
 C      2   1   3     2.343606865364    83.49427724   114.86789506
 C      5   3   2     1.371129258893   148.58763532   332.63052713
 C     10   2   1     1.341348459228   143.37745028   241.82849700
 C      9   5   3     1.499042641226   153.10498739   178.24358473
 C     10   2   1     1.473574796876    94.60928056    63.13088739
 C      1   2   3     1.221437355463    64.30969565   325.63171169
 C      2   1   3     1.217986973236    95.04442346    86.31052974
 C      3   2   1     1.215462283828    63.97656555    33.67436736
 C      4   3   2     1.214633921107    79.39883499   347.06438766
 H     11   5   3     1.049329718673   112.46604529   168.52075262
 H     12  10   2     1.072829919734   122.38087660   179.86279077
 H     13   9   5     1.116115312973   116.04312241   245.15047075
 H     13   9   5     1.112463030350   108.64837092     6.32815304
 H     13   9   5     1.076606176782   108.97885507   121.71972790
 H     14  10   2     1.074129334395   112.83161787    54.32257556
 H     14  10   2     1.089972430748   108.57599779   174.71196143
 H     14  10   2     1.076679759581   111.30902664   293.90698876
 H      5   3   2     1.024261597061    82.46227989   116.43097359
 H      6   4   3     1.025161284576    87.76004344   209.05046882
 H      7   1   2     1.007313040796    91.69718007    82.82331135
 H      8   4   3     1.014511979552    87.10030448    37.77975650

---------------------------
INTERNAL COORDINATES (A.U.)
---------------------------
 O      0   0   0     0.000000000000     0.00000000     0.00000000
 O      1   0   0     6.557328906196     0.00000000     0.00000000
 O      2   1   0     7.142752064128    78.19393235     0.00000000
 O      3   2   1     8.025068774818    68.28690195   114.57316284
 N      3   2   1     4.323899541243    79.42888379    61.77396957
 N      4   3   2     4.279769144624   106.27254481   331.86330108
 N      1   2   3     4.334180875312    58.15912509   359.75036448
 N      4   3   2     4.271984420015    53.12181262     2.72346396
 C      5   3   2     4.478439604310   119.45792386   317.75705476
 C      2   1   3     4.428775141116    83.49427724   114.86789506
 C      5   3   2     2.591058793515   148.58763532   332.63052713
 C     10   2   1     2.534781238097   143.37745028   241.82849700
 C      9   5   3     2.832780054987   153.10498739   178.24358473
 C     10   2   1     2.784652803945    94.60928056    63.13088739
 C      1   2   3     2.308182091567    64.30969565   325.63171169
 C      2   1   3     2.301661814100    95.04442346    86.31052974
 C      3   2   1     2.296890842546    63.97656555    33.67436736
 C      4   3   2     2.295325463863    79.39883499   347.06438766
 H     11   5   3     1.982945792477   112.46604529   168.52075262
 H     12  10   2     2.027354736574   122.38087660   179.86279077
 H     13   9   5     2.109152275395   116.04312241   245.15047075
 H     13   9   5     2.102250461473   108.64837092     6.32815304
 H     13   9   5     2.034490828206   108.97885507   121.71972790
 H     14  10   2     2.029810274418   112.83161787    54.32257556
 H     14  10   2     2.059749387639   108.57599779   174.71196143
 H     14  10   2     2.034629879545   111.30902664   293.90698876
 H      5   3   2     1.935573907939    82.46227989   116.43097359
 H      6   4   3     1.937274070948    87.76004344   209.05046882
 H      7   1   2     1.903545778232    91.69718007    82.82331135
 H      8   4   3     1.917149800936    87.10030448    37.77975650

---------------------
BASIS SET INFORMATION
---------------------
There are 4 groups of distinct atoms

 Group   1 Type O   : 12s7p3d1f contracted to 6s4p3d1f pattern {621111/4111/111/1}
 Group   2 Type N   : 12s6p3d1f contracted to 6s3p3d1f pattern {621111/411/111/1}
 Group   3 Type C   : 12s6p3d1f contracted to 6s3p3d1f pattern {621111/411/111/1}
 Group   4 Type H   : 5s3p1d contracted to 3s3p1d pattern {311/111/1}

Atom   0O    basis set group =>   1
Atom   1O    basis set group =>   1
Atom   2O    basis set group =>   1
Atom   3O    basis set group =>   1
Atom   4N    basis set group =>   2
Atom   5N    basis set group =>   2
Atom   6N    basis set group =>   2
Atom   7N    basis set group =>   2
Atom   8C    basis set group =>   3
Atom   9C    basis set group =>   3
Atom  10C    basis set group =>   3
Atom  11C    basis set group =>   3
Atom  12C    basis set group =>   3
Atom  13C    basis set group =>   3
Atom  14C    basis set group =>   3
Atom  15C    basis set group =>   3
Atom  16C    basis set group =>   3
Atom  17C    basis set group =>   3
Atom  18H    basis set group =>   4
Atom  19H    basis set group =>   4
Atom  20H    basis set group =>   4
Atom  21H    basis set group =>   4
Atom  22H    basis set group =>   4
Atom  23H    basis set group =>   4
Atom  24H    basis set group =>   4
Atom  25H    basis set group =>   4
Atom  26H    basis set group =>   4
Atom  27H    basis set group =>   4
Atom  28H    basis set group =>   4
Atom  29H    basis set group =>   4
---------------------------------
AUXILIARY/J BASIS SET INFORMATION
---------------------------------
There are 4 groups of distinct atoms

 Group   1 Type O   : 12s5p4d2f1g contracted to 6s4p3d1f1g pattern {711111/2111/211/2/1}
 Group   2 Type N   : 12s5p4d2f1g contracted to 6s4p3d1f1g pattern {711111/2111/211/2/1}
 Group   3 Type C   : 12s5p4d2f1g contracted to 6s4p3d1f1g pattern {711111/2111/211/2/1}
 Group   4 Type H   : 5s2p1d contracted to 3s1p1d pattern {311/2/1}

Atom   0O    basis set group =>   1
Atom   1O    basis set group =>   1
Atom   2O    basis set group =>   1
Atom   3O    basis set group =>   1
Atom   4N    basis set group =>   2
Atom   5N    basis set group =>   2
Atom   6N    basis set group =>   2
Atom   7N    basis set group =>   2
Atom   8C    basis set group =>   3
Atom   9C    basis set group =>   3
Atom  10C    basis set group =>   3
Atom  11C    basis set group =>   3
Atom  12C    basis set group =>   3
Atom  13C    basis set group =>   3
Atom  14C    basis set group =>   3
Atom  15C    basis set group =>   3
Atom  16C    basis set group =>   3
Atom  17C    basis set group =>   3
Atom  18H    basis set group =>   4
Atom  19H    basis set group =>   4
Atom  20H    basis set group =>   4
Atom  21H    basis set group =>   4
Atom  22H    basis set group =>   4
Atom  23H    basis set group =>   4
Atom  24H    basis set group =>   4
Atom  25H    basis set group =>   4
Atom  26H    basis set group =>   4
Atom  27H    basis set group =>   4
Atom  28H    basis set group =>   4
Atom  29H    basis set group =>   4
[1739882759.175805] [ohm:76328:0]        ib_iface.c:1059 UCX  ERROR ibv_create_cq(cqe=256) failed: Connection timed out
[1739882759.185797] [ohm:76334:0]        ib_iface.c:1059 UCX  ERROR ibv_create_cq(cqe=256) failed: Connection timed out
[1739882759.193722] [ohm:76327:0]        ib_iface.c:1059 UCX  ERROR ibv_create_cq(cqe=256) failed: Connection timed out
[1739882759.214979] [ohm:76326:0]        ib_iface.c:1059 UCX  ERROR ibv_create_cq(cqe=256) failed: Connection timed out
[1739882759.243966] [ohm:76352:0]        ib_iface.c:1059 UCX  ERROR ibv_create_cq(cqe=256) failed: Connection timed out
[1739882759.255544] [ohm:76329:0]        ib_iface.c:1059 UCX  ERROR ibv_create_cq(cqe=256) failed: Connection timed out
[1739882759.256768] [ohm:76332:0]        ib_iface.c:1059 UCX  ERROR ibv_create_cq(cqe=256) failed: Connection timed out
[1739882759.258111] [ohm:76330:0]        ib_iface.c:1059 UCX  ERROR ibv_create_cq(cqe=256) failed: Connection timed out
[1739882759.277635] [ohm:76371:0]        ib_iface.c:1059 UCX  ERROR ibv_create_cq(cqe=256) failed: Connection timed out
[1739882759.286466] [ohm:76333:0]        ib_iface.c:1059 UCX  ERROR ibv_create_cq(cqe=256) failed: Connection timed out
[1739882759.308659] [ohm:76348:0]        ib_iface.c:1059 UCX  ERROR ibv_create_cq(cqe=256) failed: Connection timed out
[1739882759.310969] [ohm:76347:0]        ib_iface.c:1059 UCX  ERROR ibv_create_cq(cqe=256) failed: Connection timed out
[1739882759.320445] [ohm:76386:0]        ib_iface.c:1059 UCX  ERROR ibv_create_cq(cqe=256) failed: Connection timed out
[1739882759.323428] [ohm:76360:0]        ib_iface.c:1059 UCX  ERROR ibv_create_cq(cqe=256) failed: Connection timed out
[1739882759.323457] [ohm:76380:0]        ib_iface.c:1059 UCX  ERROR ibv_create_cq(cqe=256) failed: Connection timed out
[1739882759.323621] [ohm:76351:0]        ib_iface.c:1059 UCX  ERROR ibv_create_cq(cqe=256) failed: Connection timed out
[1739882759.324477] [ohm:76338:0]        ib_iface.c:1059 UCX  ERROR ibv_create_cq(cqe=256) failed: Connection timed out
[1739882759.325628] [ohm:76331:0]        ib_iface.c:1059 UCX  ERROR ibv_create_cq(cqe=256) failed: Connection timed out
[1739882759.334281] [ohm:76335:0]        ib_iface.c:1059 UCX  ERROR ibv_create_cq(cqe=256) failed: Connection timed out
[1739882759.345511] [ohm:76355:0]        ib_iface.c:1059 UCX  ERROR ibv_create_cq(cqe=256) failed: Connection timed out
[1739882759.423041] [ohm:76384:0]        ib_iface.c:1059 UCX  ERROR ibv_create_cq(cqe=256) failed: Connection timed out
[1739882759.434508] [ohm:76403:0]        ib_iface.c:1059 UCX  ERROR ibv_create_cq(cqe=256) failed: Connection timed out
[1739882759.435365] [ohm:76357:0]        ib_iface.c:1059 UCX  ERROR ibv_create_cq(cqe=256) failed: Connection timed out
[1739882759.439573] [ohm:76393:0]        ib_iface.c:1059 UCX  ERROR ibv_create_cq(cqe=256) failed: Connection timed out
[1739882759.443788] [ohm:76455:0]        ib_iface.c:1059 UCX  ERROR ibv_create_cq(cqe=256) failed: Connection timed out
[1739882759.445521] [ohm:76364:0]        ib_iface.c:1059 UCX  ERROR ibv_create_cq(cqe=256) failed: Connection timed out
[1739882759.454601] [ohm:76388:0]        ib_iface.c:1059 UCX  ERROR ibv_create_cq(cqe=256) failed: Connection timed out
[1739882759.454858] [ohm:76350:0]        ib_iface.c:1059 UCX  ERROR ibv_create_cq(cqe=256) failed: Connection timed out
[1739882759.455659] [ohm:76381:0]        ib_iface.c:1059 UCX  ERROR ibv_create_cq(cqe=256) failed: Connection timed out
[1739882759.456474] [ohm:76370:0]        ib_iface.c:1059 UCX  ERROR ibv_create_cq(cqe=256) failed: Connection timed out
[1739882759.458775] [ohm:76337:0]        ib_iface.c:1059 UCX  ERROR ibv_create_cq(cqe=256) failed: Connection timed out
[1739882759.459460] [ohm:76395:0]        ib_iface.c:1059 UCX  ERROR ibv_create_cq(cqe=256) failed: Connection timed out
[1739882759.463803] [ohm:76336:0]        ib_iface.c:1059 UCX  ERROR ibv_create_cq(cqe=256) failed: Connection timed out
[1739882759.465392] [ohm:76452:0]        ib_iface.c:1059 UCX  ERROR ibv_create_cq(cqe=256) failed: Connection timed out
[1739882759.471408] [ohm:76427:0]        ib_iface.c:1059 UCX  ERROR ibv_create_cq(cqe=256) failed: Connection timed out
[1739882759.471431] [ohm:76450:0]        ib_iface.c:1059 UCX  ERROR ibv_create_cq(cqe=256) failed: Connection timed out
[1739882759.477708] [ohm:76399:0]        ib_iface.c:1059 UCX  ERROR ibv_create_cq(cqe=256) failed: Connection timed out
[1739882759.481803] [ohm:76377:0]        ib_iface.c:1059 UCX  ERROR ibv_create_cq(cqe=256) failed: Connection timed out
[1739882759.495949] [ohm:76477:0]        ib_iface.c:1059 UCX  ERROR ibv_create_cq(cqe=256) failed: Connection timed out
[1739882759.496170] [ohm:76445:0]        ib_iface.c:1059 UCX  ERROR ibv_create_cq(cqe=256) failed: Connection timed out
[1739882759.496719] [ohm:76375:0]        ib_iface.c:1059 UCX  ERROR ibv_create_cq(cqe=256) failed: Connection timed out
[1739882759.499690] [ohm:76468:0]        ib_iface.c:1059 UCX  ERROR ibv_create_cq(cqe=256) failed: Connection timed out
[1739882759.507243] [ohm:76385:0]        ib_iface.c:1059 UCX  ERROR ibv_create_cq(cqe=256) failed: Connection timed out
[1739882759.507662] [ohm:76413:0]        ib_iface.c:1059 UCX  ERROR ibv_create_cq(cqe=256) failed: Connection timed out
[1739882759.510435] [ohm:76439:0]        ib_iface.c:1059 UCX  ERROR ibv_create_cq(cqe=256) failed: Connection timed out
[1739882759.510725] [ohm:76456:0]        ib_iface.c:1059 UCX  ERROR ibv_create_cq(cqe=256) failed: Connection timed out
[1739882759.511846] [ohm:76410:0]        ib_iface.c:1059 UCX  ERROR ibv_create_cq(cqe=256) failed: Connection timed out
[1739882759.511912] [ohm:76426:0]        ib_iface.c:1059 UCX  ERROR ibv_create_cq(cqe=256) failed: Connection timed out
[1739882759.512415] [ohm:76390:0]        ib_iface.c:1059 UCX  ERROR ibv_create_cq(cqe=256) failed: Connection timed out
[1739882759.512451] [ohm:76383:0]        ib_iface.c:1059 UCX  ERROR ibv_create_cq(cqe=256) failed: Connection timed out
[1739882759.519456] [ohm:76432:0]        ib_iface.c:1059 UCX  ERROR ibv_create_cq(cqe=256) failed: Connection timed out
[1739882759.523351] [ohm:76421:0]        ib_iface.c:1059 UCX  ERROR ibv_create_cq(cqe=256) failed: Connection timed out
[1739882759.525081] [ohm:76389:0]        ib_iface.c:1059 UCX  ERROR ibv_create_cq(cqe=256) failed: Connection timed out
[1739882759.528168] [ohm:76382:0]        ib_iface.c:1059 UCX  ERROR ibv_create_cq(cqe=256) failed: Connection timed out
[1739882759.529177] [ohm:76471:0]        ib_iface.c:1059 UCX  ERROR ibv_create_cq(cqe=256) failed: Connection timed out
[1739882759.529778] [ohm:76448:0]        ib_iface.c:1059 UCX  ERROR ibv_create_cq(cqe=256) failed: Connection timed out
[1739882759.529926] [ohm:76434:0]        ib_iface.c:1059 UCX  ERROR ibv_create_cq(cqe=256) failed: Connection timed out
[1739882759.530845] [ohm:76349:0]        ib_iface.c:1059 UCX  ERROR ibv_create_cq(cqe=256) failed: Connection timed out
[1739882759.533760] [ohm:76465:0]        ib_iface.c:1059 UCX  ERROR ibv_create_cq(cqe=256) failed: Connection timed out
[1739882759.534047] [ohm:76406:0]        ib_iface.c:1059 UCX  ERROR ibv_create_cq(cqe=256) failed: Connection timed out
[1739882759.536224] [ohm:76365:0]        ib_iface.c:1059 UCX  ERROR ibv_create_cq(cqe=256) failed: Connection timed out
[1739882759.537300] [ohm:76418:0]        ib_iface.c:1059 UCX  ERROR ibv_create_cq(cqe=256) failed: Connection timed out
[1739882759.538436] [ohm:76387:0]        ib_iface.c:1059 UCX  ERROR ibv_create_cq(cqe=256) failed: Connection timed out
[1739882759.539041] [ohm:76461:0]        ib_iface.c:1059 UCX  ERROR ibv_create_cq(cqe=256) failed: Connection timed out


           ************************************************************
           *        Program running with 64 parallel MPI-processes    *
           *              working on a common directory               *
           ************************************************************
------------------------------------------------------------------------------
                             ORCA STARTUP CALCULATIONS
                           -- RI-GTO INTEGRALS CHOSEN --
------------------------------------------------------------------------------
------------------------------------------------------------------------------
                   ___                                                        
                  /   \      - P O W E R E D   B Y -                         
                 /     \                                                     
                 |  |  |   _    _      __       _____    __    __             
                 |  |  |  | |  | |    /  \     |  _  \  |  |  /  |          
                  \  \/   | |  | |   /    \    | | | |  |  | /  /          
                 / \  \   | |__| |  /  /\  \   | |_| |  |  |/  /          
                |  |  |   |  __  | /  /__\  \  |    /   |      \           
                |  |  |   | |  | | |   __   |  |    \   |  |\   \          
                \     /   | |  | | |  |  |  |  | |\  \  |  | \   \       
                 \___/    |_|  |_| |__|  |__|  |_| \__\ |__|  \__/        
                                                                              
                      - O R C A' S   B I G   F R I E N D -                    
                                      &                                       
                       - I N T E G R A L  F E E D E R -                       
                                                                              
 v1 FN, 2020, v2 2021, v3 2022-2024                                           
------------------------------------------------------------------------------


----------------------
SHARK INTEGRAL PACKAGE
----------------------

Number of atoms                             ...     30
Number of basis functions                   ...    882
Number of shells                            ...    322
Maximum angular momentum                    ...      3
Integral batch strategy                     ... SHARK/LIBINT Hybrid
RI-J (if used) integral strategy            ... SPLIT-RIJ (Revised 2003 algorithm where possible)
Printlevel                                  ...      1
Contraction scheme used                     ... SEGMENTED contraction
Prescreening option                         ... SCHWARTZ
   Thresh                                   ... 2.500e-11
   Tcut                                     ... 2.500e-12
   Tpresel                                  ... 2.500e-12 
Coulomb Range Separation                    ... NOT USED
Exchange Range Separation                   ... Long Range
   Mu parameter                             ... 3.000e-01
   Scaling (regular/separated)              ... 1.500e-01 8.500e-01
Multipole approximations                    ... NOT USED
Finite Nucleus Model                        ... NOT USED
CABS basis                                  ... NOT available
Auxiliary Coulomb fitting basis             ... AVAILABLE
   # of basis functions in Aux-J            ...   1014
   # of shells in Aux-J                     ...    330
   Maximum angular momentum in Aux-J        ...      4
Auxiliary J/K fitting basis                 ... NOT available
Auxiliary Correlation fitting basis         ... NOT available
Auxiliary 'external' fitting basis          ... NOT available

Checking pre-screening integrals            ... done (  0.0 sec) Dimension = 322
Check shell pair data                       ... done (  0.0 sec)
Shell pair information
Shell pair cut-off parameter TPreSel        ...   2.5e-12
Total number of shell pairs                 ...     52003
Shell pairs after pre-screening             ...     44963
Total number of primitive shell pairs       ...    129718
Primitive shell pairs kept                  ...     83584
          la=0 lb=0:   8703 shell pairs
          la=1 lb=0:  11885 shell pairs
          la=1 lb=1:   4118 shell pairs
          la=2 lb=0:   8086 shell pairs
          la=2 lb=1:   5585 shell pairs
          la=2 lb=2:   1928 shell pairs
          la=3 lb=0:   2044 shell pairs
          la=3 lb=1:   1472 shell pairs
          la=3 lb=2:   1000 shell pairs
          la=3 lb=3:    142 shell pairs

Calculating one electron integrals          ... done (  0.2 sec)
Calculating RI/J V-Matrix + Cholesky decomp.... done (  0.0 sec)
Calculating Nuclear repulsion               ... done (  0.0 sec) ENN=   1438.964634207558 Eh

Diagonalization of the overlap matrix:
Smallest eigenvalue                        ... 5.867e-07
Time for diagonalization                   ...    0.128 sec
Threshold for overlap eigenvalues          ... 1.000e-07
Number of eigenvalues below threshold      ... 0

IMPORTANT:
Smallest eigenvalue of S below the DiffSThresh (1.000e-06) while
Thresh>1e-12 and/or TCut>1e-13! In order to avoid SCF convergence issues,
Thresh will be set to at least 1e-12 and TCut to at least 1e-13.
This can be turned off by adding %SCF DiffSThresh -1 END to the input.

Time for construction of square roots      ...    0.149 sec
Total time needed                          ...    0.289 sec

-------------------
DFT GRID GENERATION
-------------------

General Integration Accuracy     IntAcc      ... 4.388
Radial Grid Type                 RadialGrid  ... OptM3 with GC (2021)
Angular Grid (max. ang.)         AngularGrid ... 4 (Lebedev-302)
Angular grid pruning method      GridPruning ... 4 (adaptive)
Weight generation scheme         WeightScheme... mBecke (2022)
Basis function cutoff            BFCut       ... 1.0000e-11
Integration weight cutoff        WCut        ... 1.0000e-14
Partially contracted basis set               ... off
Rotationally invariant grid construction     ... off
Angular grids for H and He will be reduced by one unit
Diffuse basis detected: some atoms will have their outermost
                        angular grid increased by 1.

Total number of grid points                  ...   152305
Total number of batches                      ...     2392
Average number of points per batch           ...       63
Average number of grid points per atom       ...     5077

--------------------
COSX GRID GENERATION
--------------------

GRIDX 1
-------
General Integration Accuracy     IntAcc      ... 3.816
Radial Grid Type                 RadialGrid  ... OptM3 with GC (2021)
Angular Grid (max. ang.)         AngularGrid ... 1 (Lebedev-50)
Angular grid pruning method      GridPruning ... 4 (adaptive)
Weight generation scheme         WeightScheme... mBecke (2022)
Basis function cutoff            BFCut       ... 1.0000e-11
Integration weight cutoff        WCut        ... 1.0000e-14
Partially contracted basis set               ... on
Rotationally invariant grid construction     ... off
Angular grids for H and He will be reduced by one unit
Diffuse basis detected: some atoms will have their outermost
                        angular grid increased by 1.

Total number of grid points                  ...    19066
Total number of batches                      ...      167
Average number of points per batch           ...      114
Average number of grid points per atom       ...      636
UseSFitting                                  ... on

GRIDX 2
-------
General Integration Accuracy     IntAcc      ... 4.020
Radial Grid Type                 RadialGrid  ... OptM3 with GC (2021)
Angular Grid (max. ang.)         AngularGrid ... 2 (Lebedev-110)
Angular grid pruning method      GridPruning ... 4 (adaptive)
Weight generation scheme         WeightScheme... mBecke (2022)
Basis function cutoff            BFCut       ... 1.0000e-11
Integration weight cutoff        WCut        ... 1.0000e-14
Partially contracted basis set               ... on
Rotationally invariant grid construction     ... off
Angular grids for H and He will be reduced by one unit
Diffuse basis detected: some atoms will have their outermost
                        angular grid increased by 1.

Total number of grid points                  ...    46016
Total number of batches                      ...      374
Average number of points per batch           ...      123
Average number of grid points per atom       ...     1534
UseSFitting                                  ... on

GRIDX 3
-------
General Integration Accuracy     IntAcc      ... 4.338
Radial Grid Type                 RadialGrid  ... OptM3 with GC (2021)
Angular Grid (max. ang.)         AngularGrid ... 3 (Lebedev-194)
Angular grid pruning method      GridPruning ... 4 (adaptive)
Weight generation scheme         WeightScheme... mBecke (2022)
Basis function cutoff            BFCut       ... 1.0000e-11
Integration weight cutoff        WCut        ... 1.0000e-14
Partially contracted basis set               ... on
Rotationally invariant grid construction     ... off
Angular grids for H and He will be reduced by one unit
Diffuse basis detected: some atoms will have their outermost
                        angular grid increased by 1.

Total number of grid points                  ...   101254
Total number of batches                      ...      811
Average number of points per batch           ...      124
Average number of grid points per atom       ...     3375
UseSFitting                                  ... on
Initializing property integral containers    ... done (  0.0 sec)

SHARK setup successfully completed in   4.2 seconds

Maximum memory used throughout the entire STARTUP-calculation: 79.9 MB
[1739882765.608475] [ohm:76687:0]        ib_iface.c:1059 UCX  ERROR ibv_create_cq(cqe=256) failed: Connection timed out
[1739882765.689281] [ohm:76704:0]        ib_iface.c:1059 UCX  ERROR ibv_create_cq(cqe=256) failed: Connection timed out
[1739882765.693474] [ohm:76688:0]        ib_iface.c:1059 UCX  ERROR ibv_create_cq(cqe=256) failed: Connection timed out
[1739882765.697418] [ohm:76685:0]        ib_iface.c:1059 UCX  ERROR ibv_create_cq(cqe=256) failed: Connection timed out
[1739882765.704293] [ohm:76691:0]        ib_iface.c:1059 UCX  ERROR ibv_create_cq(cqe=256) failed: Connection timed out
[1739882765.705844] [ohm:76700:0]        ib_iface.c:1059 UCX  ERROR ibv_create_cq(cqe=256) failed: Connection timed out
[1739882765.707586] [ohm:76689:0]        ib_iface.c:1059 UCX  ERROR ibv_create_cq(cqe=256) failed: Connection timed out
[1739882765.714182] [ohm:76701:0]        ib_iface.c:1059 UCX  ERROR ibv_create_cq(cqe=256) failed: Connection timed out
[1739882765.722686] [ohm:76686:0]        ib_iface.c:1059 UCX  ERROR ibv_create_cq(cqe=256) failed: Connection timed out
[1739882765.746681] [ohm:76697:0]        ib_iface.c:1059 UCX  ERROR ibv_create_cq(cqe=256) failed: Connection timed out
[1739882765.747980] [ohm:76703:0]        ib_iface.c:1059 UCX  ERROR ibv_create_cq(cqe=256) failed: Connection timed out
[1739882765.753661] [ohm:76693:0]        ib_iface.c:1059 UCX  ERROR ibv_create_cq(cqe=256) failed: Connection timed out
[1739882765.758801] [ohm:76707:0]        ib_iface.c:1059 UCX  ERROR ibv_create_cq(cqe=256) failed: Connection timed out
[1739882765.771438] [ohm:76690:0]        ib_iface.c:1059 UCX  ERROR ibv_create_cq(cqe=256) failed: Connection timed out
[1739882765.776608] [ohm:76749:0]        ib_iface.c:1059 UCX  ERROR ibv_create_cq(cqe=256) failed: Connection timed out
[1739882765.812783] [ohm:76739:0]        ib_iface.c:1059 UCX  ERROR ibv_create_cq(cqe=256) failed: Connection timed out
[1739882765.824187] [ohm:76713:0]        ib_iface.c:1059 UCX  ERROR ibv_create_cq(cqe=256) failed: Connection timed out
[1739882765.829065] [ohm:76778:0]        ib_iface.c:1059 UCX  ERROR ibv_create_cq(cqe=256) failed: Connection timed out
[1739882765.830364] [ohm:76710:0]        ib_iface.c:1059 UCX  ERROR ibv_create_cq(cqe=256) failed: Connection timed out
[1739882765.831861] [ohm:76695:0]        ib_iface.c:1059 UCX  ERROR ibv_create_cq(cqe=256) failed: Connection timed out
[1739882765.836334] [ohm:76786:0]        ib_iface.c:1059 UCX  ERROR ibv_create_cq(cqe=256) failed: Connection timed out
[1739882765.842209] [ohm:76785:0]        ib_iface.c:1059 UCX  ERROR ibv_create_cq(cqe=256) failed: Connection timed out
[1739882765.849641] [ohm:76709:0]        ib_iface.c:1059 UCX  ERROR ibv_create_cq(cqe=256) failed: Connection timed out
[1739882765.852221] [ohm:76799:0]        ib_iface.c:1059 UCX  ERROR ibv_create_cq(cqe=256) failed: Connection timed out
[1739882765.883523] [ohm:76775:0]        ib_iface.c:1059 UCX  ERROR ibv_create_cq(cqe=256) failed: Connection timed out
[1739882765.887558] [ohm:76712:0]        ib_iface.c:1059 UCX  ERROR ibv_create_cq(cqe=256) failed: Connection timed out
[1739882765.890046] [ohm:76802:0]        ib_iface.c:1059 UCX  ERROR ibv_create_cq(cqe=256) failed: Connection timed out
[1739882765.890825] [ohm:76698:0]        ib_iface.c:1059 UCX  ERROR ibv_create_cq(cqe=256) failed: Connection timed out
[1739882765.892116] [ohm:76765:0]        ib_iface.c:1059 UCX  ERROR ibv_create_cq(cqe=256) failed: Connection timed out
[1739882765.902743] [ohm:76708:0]        ib_iface.c:1059 UCX  ERROR ibv_create_cq(cqe=256) failed: Connection timed out
[1739882765.905633] [ohm:76702:0]        ib_iface.c:1059 UCX  ERROR ibv_create_cq(cqe=256) failed: Connection timed out
[1739882765.906730] [ohm:76806:0]        ib_iface.c:1059 UCX  ERROR ibv_create_cq(cqe=256) failed: Connection timed out
[1739882765.910388] [ohm:76783:0]        ib_iface.c:1059 UCX  ERROR ibv_create_cq(cqe=256) failed: Connection timed out
[1739882765.912156] [ohm:76756:0]        ib_iface.c:1059 UCX  ERROR ibv_create_cq(cqe=256) failed: Connection timed out
[1739882765.914928] [ohm:76738:0]        ib_iface.c:1059 UCX  ERROR ibv_create_cq(cqe=256) failed: Connection timed out
[1739882765.931553] [ohm:76715:0]        ib_iface.c:1059 UCX  ERROR ibv_create_cq(cqe=256) failed: Connection timed out
[1739882765.933929] [ohm:76815:0]        ib_iface.c:1059 UCX  ERROR ibv_create_cq(cqe=256) failed: Connection timed out
[1739882765.935572] [ohm:76732:0]        ib_iface.c:1059 UCX  ERROR ibv_create_cq(cqe=256) failed: Connection timed out
[1739882765.935613] [ohm:76826:0]        ib_iface.c:1059 UCX  ERROR ibv_create_cq(cqe=256) failed: Connection timed out
[1739882765.940878] [ohm:76790:0]        ib_iface.c:1059 UCX  ERROR ibv_create_cq(cqe=256) failed: Connection timed out
[1739882765.946801] [ohm:76694:0]        ib_iface.c:1059 UCX  ERROR ibv_create_cq(cqe=256) failed: Connection timed out
[1739882765.950594] [ohm:76794:0]        ib_iface.c:1059 UCX  ERROR ibv_create_cq(cqe=256) failed: Connection timed out
[1739882765.953508] [ohm:76728:0]        ib_iface.c:1059 UCX  ERROR ibv_create_cq(cqe=256) failed: Connection timed out
[1739882765.959428] [ohm:76820:0]        ib_iface.c:1059 UCX  ERROR ibv_create_cq(cqe=256) failed: Connection timed out
[1739882765.962338] [ohm:76711:0]        ib_iface.c:1059 UCX  ERROR ibv_create_cq(cqe=256) failed: Connection timed out
[1739882765.962637] [ohm:76699:0]        ib_iface.c:1059 UCX  ERROR ibv_create_cq(cqe=256) failed: Connection timed out
[1739882765.965740] [ohm:76768:0]        ib_iface.c:1059 UCX  ERROR ibv_create_cq(cqe=256) failed: Connection timed out
[1739882765.965895] [ohm:76782:0]        ib_iface.c:1059 UCX  ERROR ibv_create_cq(cqe=256) failed: Connection timed out
[1739882765.966950] [ohm:76750:0]        ib_iface.c:1059 UCX  ERROR ibv_create_cq(cqe=256) failed: Connection timed out
[1739882765.967386] [ohm:76810:0]        ib_iface.c:1059 UCX  ERROR ibv_create_cq(cqe=256) failed: Connection timed out
[1739882765.975706] [ohm:76767:0]        ib_iface.c:1059 UCX  ERROR ibv_create_cq(cqe=256) failed: Connection timed out
[1739882765.976811] [ohm:76692:0]        ib_iface.c:1059 UCX  ERROR ibv_create_cq(cqe=256) failed: Connection timed out
[1739882765.981523] [ohm:76724:0]        ib_iface.c:1059 UCX  ERROR ibv_create_cq(cqe=256) failed: Connection timed out
[1739882765.982361] [ohm:76705:0]        ib_iface.c:1059 UCX  ERROR ibv_create_cq(cqe=256) failed: Connection timed out
[1739882765.982466] [ohm:76824:0]        ib_iface.c:1059 UCX  ERROR ibv_create_cq(cqe=256) failed: Connection timed out
[1739882765.987476] [ohm:76706:0]        ib_iface.c:1059 UCX  ERROR ibv_create_cq(cqe=256) failed: Connection timed out
[1739882765.988900] [ohm:76696:0]        ib_iface.c:1059 UCX  ERROR ibv_create_cq(cqe=256) failed: Connection timed out
[1739882765.989393] [ohm:76717:0]        ib_iface.c:1059 UCX  ERROR ibv_create_cq(cqe=256) failed: Connection timed out
[1739882765.990609] [ohm:76763:0]        ib_iface.c:1059 UCX  ERROR ibv_create_cq(cqe=256) failed: Connection timed out
[1739882765.990669] [ohm:76760:0]        ib_iface.c:1059 UCX  ERROR ibv_create_cq(cqe=256) failed: Connection timed out
[1739882765.992257] [ohm:76744:0]        ib_iface.c:1059 UCX  ERROR ibv_create_cq(cqe=256) failed: Connection timed out
[1739882765.992446] [ohm:76771:0]        ib_iface.c:1059 UCX  ERROR ibv_create_cq(cqe=256) failed: Connection timed out
[1739882765.992757] [ohm:76720:0]        ib_iface.c:1059 UCX  ERROR ibv_create_cq(cqe=256) failed: Connection timed out
[1739882765.996871] [ohm:76741:0]        ib_iface.c:1059 UCX  ERROR ibv_create_cq(cqe=256) failed: Connection timed out


           ************************************************************
           *        Program running with 64 parallel MPI-processes    *
           *              working on a common directory               *
           ************************************************************
-------------------------------------------------------------------------------
                                 ORCA GUESS
                   Start orbitals & Density for SCF / CASSCF
-------------------------------------------------------------------------------

------------
SCF SETTINGS
------------
Hamiltonian:
 Density Functional     Method          .... DFT(GTOs)
  Functional kind                       .... Exchange-Correlation
  Functional name                       .... wB97M-V exchange-correlation functional
  Functional family                     .... Hybrid MGGA
  Functional refs                              
    [ 0] N. Mardirossian and M. Head-Gordon.,  J. Chem. Phys. 144, 214110 (2016), doi: 10.1063/1.4952647
  Fraction of HF Exchange (short range) .... 0.1500
  Fraction of HF Exchange (long range)  .... 1.0000
  Range separation parameter mu         .... 0.3000
  Functional external parameters        .... 17
    Parameter  0 _cx00      =  8.500000e-01 : u^00 coefficient for exchange
    Parameter  1 _cx01      =  1.007000e+00 : u^01 coefficient for exchange
    Parameter  2 _cx10      =  2.590000e-01 : u^10 coefficient for exchange
    Parameter  3 _css00     =  4.430000e-01 : u^00 coefficient for same-spin correlation
    Parameter  4 _css04     = -1.437000e+00 : u^04 coefficient for same-spin correlation
    Parameter  5 _css10     = -4.535000e+00 : u^10 coefficient for same-spin correlation
    Parameter  6 _css20     = -3.390000e+00 : u^20 coefficient for same-spin correlation
    Parameter  7 _css43     =  4.278000e+00 : u^43 coefficient for same-spin correlation
    Parameter  8 _cos00     =  1.000000e+00 : u^00 coefficient for opposite-spin correlation
    Parameter  9 _cos10     =  1.358000e+00 : u^10 coefficient for opposite-spin correlation
    Parameter 10 _cos20     =  2.924000e+00 : u^20 coefficient for opposite-spin correlation
    Parameter 11 _cos21     = -8.812000e+00 : u^21 coefficient for opposite-spin correlation
    Parameter 12 _cos60     = -1.390000e+00 : u^60 coefficient for opposite-spin correlation
    Parameter 13 _cos61     =  9.142000e+00 : u^61 coefficient for opposite-spin correlation
    Parameter 14 _alpha     =  1.000000e+00 : fraction of HF exchange
    Parameter 15 _beta      = -8.500000e-01 : fraction of short-range exchange
    Parameter 16 _omega     =  3.000000e-01 : range-separation constant
 Long-range corrected/Screened/Range-Separated Hybrid DFT is turned on
   Amount of maximum screened exact exchange              ....  0.850000
   Range separation parameter mu (erf(mu*r12)/r12)        ....  0.300000
 RI-approximation to the Coulomb term is turned on
   Number of AuxJ basis functions       .... 1014
   RIJ-COSX (HFX calculated with COS-X)).... on


General Settings:
 Integral files         IntName         .... orca
 Hartree-Fock type      HFTyp           .... UHF
 Total Charge           Charge          ....    0
 Multiplicity           Mult            ....    3
 Number of Electrons    NEL             ....  132
 Basis Dimension        Dim             ....  882
 Nuclear Repulsion      ENuc            ....   1438.9646342076 Eh

Convergence Acceleration:
 AO-DIIS                CNVDIIS         .... on
   Start iteration      DIISMaxIt       ....    12
   Startup error        DIISStart       ....  0.200000
   # of expansion vecs  DIISMaxEq       ....     5
   Bias factor          DIISBfac        ....   1.050
   Max. coefficient     DIISMaxC        ....  10.000
 MO-DIIS                CNVKDIIS        .... off
 Trust-Rad. Augm. Hess. CNVTRAH         .... auto
   Auto Start mean grad. ratio tolernc. ....  1.125000
   Auto Start start iteration           ....    50
   Auto Start num. interpolation iter.  ....    10
   Max. Number of Micro iterations      ....    24
   Max. Number of Macro iterations      .... Maxiter - #DIIS iter
   Number of Davidson start vectors     ....     2
   Converg. threshold    (grad. norm)   ....   1.000e-05
   Grad. Scal. Fac. for Micro threshold ....   0.100
   Minimum threshold for Micro iter.    ....   1.000e-02
   NR start threshold (gradient norm)   ....   1.000e-04
   Initial trust radius                 ....   0.400
   Minimum AH scaling param. (alpha)    ....   1.000
   Maximum AH scaling param. (alpha)    .... 1000.000
   Quad. conv. algorithm                .... NR
   White noise on init. David. guess    .... on
   Maximum white noise                  ....   0.010
   Pseudo random numbers                .... off
   Inactive MOs                         .... canonical
   Orbital update algorithm             .... Taylor
   Preconditioner                       .... Diag
   Full preconditioner red. dimension   ....   250
 SOSCF                  CNVSOSCF        .... on
   Start iteration      SOSCFMaxIt      ....   150
   Startup grad/error   SOSCFStart      ....  0.003300
   Hessian update       SOSCFHessUp     .... L-BFGS
 Level Shifting         CNVShift        .... on
   Level shift para.    LevelShift      ....    0.2500
   Turn off err/grad.   ShiftErr        ....    0.0010
 Zerner damping         CNVZerner       .... off
 Static damping         CNVDamp         .... on
   Fraction old density DampFac         ....    0.7000
   Max. Damping (<1)    DampMax         ....    0.9800
   Min. Damping (>=0)   DampMin         ....    0.0000
   Turn off err/grad.   DampErr         ....    0.1000

SCF Procedure:
 Maximum # iterations   MaxIter         ....   125
 SCF integral mode      SCFMode         .... Direct
   Integral package                     .... SHARK and LIBINT hybrid scheme
 Reset frequency        DirectResetFreq ....    20
 Integral Threshold     Thresh          ....  1.000e-12 Eh
 Primitive CutOff       TCut            ....  1.000e-13 Eh

Convergence Tolerance:
 Convergence Check Mode ConvCheckMode   .... Total+1el-Energy
 Convergence forced     ConvForced      .... 1
 Energy Change          TolE            ....  1.000e-08 Eh
 1-El. energy change                    ....  1.000e-05 Eh
 Orbital Gradient       TolG            ....  1.000e-05
 Orbital Rotation angle TolX            ....  1.000e-05
 DIIS Error             TolErr          ....  5.000e-07

------------------------------
INITIAL GUESS: MODEL POTENTIAL
------------------------------
Loading Hartree-Fock densities                     ... done
Calculating cut-offs                               ... done
Initializing the effective Hamiltonian             ... done
Setting up the integral package (SHARK)            ... done
Starting the Coulomb interaction                   ... done (   0.1 sec)
Making the grid                                    ... done (   0.3 sec)
Mapping shells                                     ... done
Starting the XC term evaluation                    ... done (   0.1 sec)
  promolecular density results
     # of electrons  =    131.997105426
     EX              =   -113.575797354
     EC              =     -4.476019029
     EX+EC           =   -118.051816383
Transforming the Hamiltonian                       ... done (   0.1 sec)
Diagonalizing the Hamiltonian                      ... done (   0.1 sec)
Back transforming the eigenvectors                 ... done (   0.1 sec)
Now organizing SCF variables                       ... done
                      ------------------
                      INITIAL GUESS DONE (   1.1 sec)
                      ------------------
             **** ENERGY FILE WAS UPDATED (orca.en.tmp) ****
Finished Guess after   3.6 sec
Maximum memory used throughout the entire GUESS-calculation: 72.3 MB
[1739882769.744573] [ohm:77048:0]        ib_iface.c:1059 UCX  ERROR ibv_create_cq(cqe=256) failed: Connection timed out
[1739882769.757041] [ohm:77049:0]        ib_iface.c:1059 UCX  ERROR ibv_create_cq(cqe=256) failed: Connection timed out
[1739882769.758087] [ohm:77046:0]        ib_iface.c:1059 UCX  ERROR ibv_create_cq(cqe=256) failed: Connection timed out
[1739882769.811137] [ohm:77051:0]        ib_iface.c:1059 UCX  ERROR ibv_create_cq(cqe=256) failed: Connection timed out
[1739882769.833638] [ohm:77047:0]        ib_iface.c:1059 UCX  ERROR ibv_create_cq(cqe=256) failed: Connection timed out
[1739882769.845804] [ohm:77050:0]        ib_iface.c:1059 UCX  ERROR ibv_create_cq(cqe=256) failed: Connection timed out
[1739882769.855220] [ohm:77103:0]        ib_iface.c:1059 UCX  ERROR ibv_create_cq(cqe=256) failed: Connection timed out
[1739882769.855325] [ohm:77056:0]        ib_iface.c:1059 UCX  ERROR ibv_create_cq(cqe=256) failed: Connection timed out
[1739882769.864881] [ohm:77055:0]        ib_iface.c:1059 UCX  ERROR ibv_create_cq(cqe=256) failed: Connection timed out
[1739882769.868745] [ohm:77088:0]        ib_iface.c:1059 UCX  ERROR ibv_create_cq(cqe=256) failed: Connection timed out
[1739882769.871524] [ohm:77052:0]        ib_iface.c:1059 UCX  ERROR ibv_create_cq(cqe=256) failed: Connection timed out
[1739882769.874311] [ohm:77108:0]        ib_iface.c:1059 UCX  ERROR ibv_create_cq(cqe=256) failed: Connection timed out
[1739882769.877080] [ohm:77070:0]        ib_iface.c:1059 UCX  ERROR ibv_create_cq(cqe=256) failed: Connection timed out
[1739882769.883093] [ohm:77058:0]        ib_iface.c:1059 UCX  ERROR ibv_create_cq(cqe=256) failed: Connection timed out
[1739882769.883804] [ohm:77097:0]        ib_iface.c:1059 UCX  ERROR ibv_create_cq(cqe=256) failed: Connection timed out
[1739882769.891904] [ohm:77054:0]        ib_iface.c:1059 UCX  ERROR ibv_create_cq(cqe=256) failed: Connection timed out
[1739882769.902222] [ohm:77071:0]        ib_iface.c:1059 UCX  ERROR ibv_create_cq(cqe=256) failed: Connection timed out
[1739882769.905774] [ohm:77139:0]        ib_iface.c:1059 UCX  ERROR ibv_create_cq(cqe=256) failed: Connection timed out
[1739882769.916169] [ohm:77095:0]        ib_iface.c:1059 UCX  ERROR ibv_create_cq(cqe=256) failed: Connection timed out
[1739882769.919733] [ohm:77085:0]        ib_iface.c:1059 UCX  ERROR ibv_create_cq(cqe=256) failed: Connection timed out
[1739882769.933283] [ohm:77118:0]        ib_iface.c:1059 UCX  ERROR ibv_create_cq(cqe=256) failed: Connection timed out
[1739882769.937574] [ohm:77182:0]        ib_iface.c:1059 UCX  ERROR ibv_create_cq(cqe=256) failed: Connection timed out
[1739882769.944392] [ohm:77184:0]        ib_iface.c:1059 UCX  ERROR ibv_create_cq(cqe=256) failed: Connection timed out
[1739882769.973265] [ohm:77167:0]        ib_iface.c:1059 UCX  ERROR ibv_create_cq(cqe=256) failed: Connection timed out
[1739882769.980881] [ohm:77187:0]        ib_iface.c:1059 UCX  ERROR ibv_create_cq(cqe=256) failed: Connection timed out
[1739882770.007006] [ohm:77155:0]        ib_iface.c:1059 UCX  ERROR ibv_create_cq(cqe=256) failed: Connection timed out
[1739882770.024432] [ohm:77126:0]        ib_iface.c:1059 UCX  ERROR ibv_create_cq(cqe=256) failed: Connection timed out
[1739882770.024484] [ohm:77191:0]        ib_iface.c:1059 UCX  ERROR ibv_create_cq(cqe=256) failed: Connection timed out
[1739882770.026716] [ohm:77109:0]        ib_iface.c:1059 UCX  ERROR ibv_create_cq(cqe=256) failed: Connection timed out
[1739882770.027097] [ohm:77176:0]        ib_iface.c:1059 UCX  ERROR ibv_create_cq(cqe=256) failed: Connection timed out
[1739882770.033103] [ohm:77110:0]        ib_iface.c:1059 UCX  ERROR ibv_create_cq(cqe=256) failed: Connection timed out
[1739882770.040576] [ohm:77105:0]        ib_iface.c:1059 UCX  ERROR ibv_create_cq(cqe=256) failed: Connection timed out
[1739882770.042872] [ohm:77157:0]        ib_iface.c:1059 UCX  ERROR ibv_create_cq(cqe=256) failed: Connection timed out
[1739882770.045492] [ohm:77112:0]        ib_iface.c:1059 UCX  ERROR ibv_create_cq(cqe=256) failed: Connection timed out
[1739882770.045991] [ohm:77122:0]        ib_iface.c:1059 UCX  ERROR ibv_create_cq(cqe=256) failed: Connection timed out
[1739882770.054379] [ohm:77194:0]        ib_iface.c:1059 UCX  ERROR ibv_create_cq(cqe=256) failed: Connection timed out
[1739882770.055665] [ohm:77171:0]        ib_iface.c:1059 UCX  ERROR ibv_create_cq(cqe=256) failed: Connection timed out
[1739882770.090047] [ohm:77114:0]        ib_iface.c:1059 UCX  ERROR ibv_create_cq(cqe=256) failed: Connection timed out
[1739882770.090622] [ohm:77174:0]        ib_iface.c:1059 UCX  ERROR ibv_create_cq(cqe=256) failed: Connection timed out
[1739882770.093327] [ohm:77102:0]        ib_iface.c:1059 UCX  ERROR ibv_create_cq(cqe=256) failed: Connection timed out
[1739882770.096817] [ohm:77057:0]        ib_iface.c:1059 UCX  ERROR ibv_create_cq(cqe=256) failed: Connection timed out
[1739882770.100749] [ohm:77146:0]        ib_iface.c:1059 UCX  ERROR ibv_create_cq(cqe=256) failed: Connection timed out
[1739882770.103996] [ohm:77106:0]        ib_iface.c:1059 UCX  ERROR ibv_create_cq(cqe=256) failed: Connection timed out
[1739882770.105597] [ohm:77077:0]        ib_iface.c:1059 UCX  ERROR ibv_create_cq(cqe=256) failed: Connection timed out
[1739882770.112100] [ohm:77130:0]        ib_iface.c:1059 UCX  ERROR ibv_create_cq(cqe=256) failed: Connection timed out
[1739882770.113963] [ohm:77081:0]        ib_iface.c:1059 UCX  ERROR ibv_create_cq(cqe=256) failed: Connection timed out
[1739882770.115757] [ohm:77100:0]        ib_iface.c:1059 UCX  ERROR ibv_create_cq(cqe=256) failed: Connection timed out
[1739882770.115981] [ohm:77145:0]        ib_iface.c:1059 UCX  ERROR ibv_create_cq(cqe=256) failed: Connection timed out
[1739882770.116731] [ohm:77141:0]        ib_iface.c:1059 UCX  ERROR ibv_create_cq(cqe=256) failed: Connection timed out
[1739882770.117825] [ohm:77165:0]        ib_iface.c:1059 UCX  ERROR ibv_create_cq(cqe=256) failed: Connection timed out
[1739882770.118723] [ohm:77099:0]        ib_iface.c:1059 UCX  ERROR ibv_create_cq(cqe=256) failed: Connection timed out
[1739882770.121634] [ohm:77076:0]        ib_iface.c:1059 UCX  ERROR ibv_create_cq(cqe=256) failed: Connection timed out
[1739882770.122999] [ohm:77135:0]        ib_iface.c:1059 UCX  ERROR ibv_create_cq(cqe=256) failed: Connection timed out
[1739882770.124873] [ohm:77091:0]        ib_iface.c:1059 UCX  ERROR ibv_create_cq(cqe=256) failed: Connection timed out
[1739882770.126592] [ohm:77104:0]        ib_iface.c:1059 UCX  ERROR ibv_create_cq(cqe=256) failed: Connection timed out
[1739882770.129515] [ohm:77133:0]        ib_iface.c:1059 UCX  ERROR ibv_create_cq(cqe=256) failed: Connection timed out
[1739882770.129631] [ohm:77111:0]        ib_iface.c:1059 UCX  ERROR ibv_create_cq(cqe=256) failed: Connection timed out
[1739882770.131052] [ohm:77093:0]        ib_iface.c:1059 UCX  ERROR ibv_create_cq(cqe=256) failed: Connection timed out
[1739882770.133736] [ohm:77162:0]        ib_iface.c:1059 UCX  ERROR ibv_create_cq(cqe=256) failed: Connection timed out
[1739882770.133918] [ohm:77107:0]        ib_iface.c:1059 UCX  ERROR ibv_create_cq(cqe=256) failed: Connection timed out
[1739882770.133950] [ohm:77053:0]        ib_iface.c:1059 UCX  ERROR ibv_create_cq(cqe=256) failed: Connection timed out
[1739882770.134173] [ohm:77150:0]        ib_iface.c:1059 UCX  ERROR ibv_create_cq(cqe=256) failed: Connection timed out
[1739882770.136284] [ohm:77101:0]        ib_iface.c:1059 UCX  ERROR ibv_create_cq(cqe=256) failed: Connection timed out
[1739882770.137920] [ohm:77059:0]        ib_iface.c:1059 UCX  ERROR ibv_create_cq(cqe=256) failed: Connection timed out


           ************************************************************
           *        Program running with 64 parallel MPI-processes    *
           *              working on a common directory               *
           ************************************************************

-------------------------------------------------------------------------------------------
                                      ORCA LEAN-SCF
                              memory conserving SCF solver
-------------------------------------------------------------------------------------------

----------------------------------------D-I-I-S--------------------------------------------
Iteration    Energy (Eh)           Delta-E    RMSDP     MaxDP     DIISErr   Damp  Time(sec)
-------------------------------------------------------------------------------------------
               ***  Starting incremental Fock matrix formation  ***
    1    -908.0839428965377920     0.00e+00  1.45e-03  3.02e-01  1.48e-01  0.700   7.9
    2    -908.3529155490650737    -2.69e-01  1.17e-03  2.00e-01  7.07e-02  0.700   6.4
                               ***Turning on AO-DIIS***
    3    -908.4739202000596379    -1.21e-01  8.31e-04  1.25e-01  2.75e-02  0.700   5.7
    4    -908.5485649038059819    -7.46e-02  1.98e-03  2.85e-01  1.86e-02  0.000   5.6
    5    -908.7194707944063339    -1.71e-01  2.96e-04  5.20e-02  5.32e-03  0.000   5.8
    6    -908.7238004817218098    -4.33e-03  2.38e-04  3.86e-02  5.14e-03  0.000   5.7
    7    -908.7273295097415939    -3.53e-03  3.62e-04  9.03e-02  4.54e-03  0.000   5.6
    8    -908.7316555618226630    -4.33e-03  3.31e-04  8.09e-02  3.42e-03  0.000   5.6
                              *** Initializing SOSCF ***
---------------------------------------S-O-S-C-F--------------------------------------
Iteration    Energy (Eh)           Delta-E    RMSDP     MaxDP     MaxGrad    Time(sec)
--------------------------------------------------------------------------------------
    9    -908.7345311186390973    -2.88e-03  2.06e-04  3.61e-02  2.16e-03     6.4
               *** Restarting incremental Fock matrix formation ***
   10    -908.7357696437466075    -1.24e-03  3.01e-04  4.21e-02  6.82e-03     7.5
   11    -908.7363259457079039    -5.56e-04  3.35e-04  4.45e-02  3.94e-03     6.7
   12    -908.7365935853881638    -2.68e-04  1.44e-04  1.87e-02  8.69e-04     7.0
   13    -908.7366498912979296    -5.63e-05  2.97e-05  3.58e-03  3.47e-04     6.6
   14    -908.7366571740913059    -7.28e-06  1.53e-05  1.61e-03  3.43e-04     6.4
   15    -908.7366615034188726    -4.33e-06  8.99e-06  1.83e-03  2.33e-04     6.3
   16    -908.7366631118529767    -1.61e-06  7.88e-06  1.60e-03  1.26e-04     6.2
   17    -908.7366637612703926    -6.49e-07  2.92e-06  3.97e-04  4.55e-05     6.2
   18    -908.7366638914204486    -1.30e-07  2.15e-06  4.32e-04  2.05e-05     5.9
   19    -908.7366639122933520    -2.09e-08  1.41e-06  2.42e-04  1.39e-05     5.8
   20    -908.7366639281535754    -1.59e-08  1.06e-06  1.55e-04  8.39e-06     5.6
   21    -908.7366639337678862    -5.61e-09  1.10e-06  2.34e-04  3.83e-06     5.4
                 **** Energy Check signals convergence ****

               *****************************************************
               *                     SUCCESS                       *
               *           SCF CONVERGED AFTER  21 CYCLES          *
               *****************************************************

Recomputing exchange energy using gridx3       ... done (    7.734 sec)
Old exchange energy                            :    -35.035374812 Eh
New exchange energy                            :    -35.035381038 Eh
Exchange energy change after final integration :     -0.000006226 Eh
Total energy after final integration           :   -908.736670160 Eh
             **** ENERGY FILE WAS UPDATED (orca.en.tmp) ****

----------------
TOTAL SCF ENERGY
----------------

Total Energy       :       -908.73667015987587 Eh          -24727.98194 eV

Components:
Nuclear Repulsion  :       1438.96463420755754 Eh           39156.21836 eV
Electronic Energy  :      -2347.70129814132542 Eh          -63884.20013 eV
One Electron Energy:      -4095.46395205859017 Eh         -111443.23980 eV
Two Electron Energy:       1747.76265391726497 Eh           47559.03967 eV

Virial components:
Potential Energy   :      -1814.88157763504387 Eh          -49385.43843 eV
Kinetic Energy     :        906.14490747516800 Eh           24657.45649 eV
Virial Ratio       :          2.00286020774749

DFT components:
N(Alpha)           :       67.000051890303 electrons
N(Beta)            :       65.000052045479 electrons
N(Total)           :      132.000103935782 electrons
E(XC)              :      -86.295931025475 Eh       

---------------
SCF CONVERGENCE
---------------

  Last Energy change         ...    5.6143e-09  Tolerance :   1.0000e-08
  Last MAX-Density change    ...    2.3389e-04  Tolerance :   1.0000e-07
  Last RMS-Density change    ...    1.0960e-06  Tolerance :   5.0000e-09
  Last DIIS Error            ...    2.1649e-03  Tolerance :   5.0000e-07
  Last Orbital Gradient      ...    3.8316e-06  Tolerance :   1.0000e-05
  Last Orbital Rotation      ...    2.7875e-05  Tolerance :   1.0000e-05


----------------------
UHF SPIN CONTAMINATION
----------------------

Warning: in a DFT calculation there is little theoretical justification to 
         calculate <S**2> as in Hartree-Fock theory. We will do it anyways
         but you should keep in mind that the values have only limited relevance

Expectation value of <S**2>     :     2.010107
Ideal value S*(S+1) for S=1.0   :     2.000000
Deviation                       :     0.010107

----------------
ORBITAL ENERGIES
----------------
                 SPIN UP ORBITALS
  NO   OCC          E(Eh)            E(eV) 
   0   1.0000     -19.336902      -526.1838 
   1   1.0000     -19.325192      -525.8652 
   2   1.0000     -19.320981      -525.7506 
   3   1.0000     -19.319579      -525.7125 
   4   1.0000     -14.588989      -396.9866 
   5   1.0000     -14.584425      -396.8624 
   6   1.0000     -14.571785      -396.5184 
   7   1.0000     -14.550253      -395.9325 
   8   1.0000     -10.512635      -286.0633 
   9   1.0000     -10.510422      -286.0031 
  10   1.0000     -10.476901      -285.0910 
  11   1.0000     -10.463993      -284.7397 
  12   1.0000     -10.433446      -283.9085 
  13   1.0000     -10.409418      -283.2547 
  14   1.0000     -10.399703      -282.9903 
  15   1.0000     -10.378441      -282.4117 
  16   1.0000     -10.369261      -282.1619 
  17   1.0000     -10.349351      -281.6201 
  18   1.0000      -1.230017       -33.4705 
  19   1.0000      -1.223267       -33.2868 
  20   1.0000      -1.189622       -32.3713 
  21   1.0000      -1.184273       -32.2257 
  22   1.0000      -1.122850       -30.5543 
  23   1.0000      -1.120457       -30.4892 
  24   1.0000      -1.074814       -29.2472 
  25   1.0000      -1.059792       -28.8384 
  26   1.0000      -0.964559       -26.2470 
  27   1.0000      -0.960202       -26.1284 
  28   1.0000      -0.852837       -23.2069 
  29   1.0000      -0.849041       -23.1036 
  30   1.0000      -0.817867       -22.2553 
  31   1.0000      -0.807795       -21.9812 
  32   1.0000      -0.794721       -21.6255 
  33   1.0000      -0.784348       -21.3432 
  34   1.0000      -0.697484       -18.9795 
  35   1.0000      -0.695821       -18.9343 
  36   1.0000      -0.692045       -18.8315 
  37   1.0000      -0.682775       -18.5792 
  38   1.0000      -0.645282       -17.5590 
  39   1.0000      -0.639880       -17.4120 
  40   1.0000      -0.630210       -17.1489 
  41   1.0000      -0.604841       -16.4586 
  42   1.0000      -0.596541       -16.2327 
  43   1.0000      -0.591957       -16.1080 
  44   1.0000      -0.572127       -15.5684 
  45   1.0000      -0.567316       -15.4375 
  46   1.0000      -0.566530       -15.4161 
  47   1.0000      -0.551816       -15.0157 
  48   1.0000      -0.547997       -14.9118 
  49   1.0000      -0.543672       -14.7941 
  50   1.0000      -0.528783       -14.3889 
  51   1.0000      -0.523645       -14.2491 
  52   1.0000      -0.521328       -14.1861 
  53   1.0000      -0.514096       -13.9893 
  54   1.0000      -0.499816       -13.6007 
  55   1.0000      -0.497851       -13.5472 
  56   1.0000      -0.490476       -13.3465 
  57   1.0000      -0.479077       -13.0363 
  58   1.0000      -0.423215       -11.5163 
  59   1.0000      -0.418592       -11.3905 
  60   1.0000      -0.407438       -11.0870 
  61   1.0000      -0.397884       -10.8270 
  62   1.0000      -0.388168       -10.5626 
  63   1.0000      -0.385469       -10.4892 
  64   1.0000      -0.382769       -10.4157 
  65   1.0000      -0.345814        -9.4101 
  66   1.0000      -0.220178        -5.9914 
  67   0.0000       0.012453         0.3389 
  68   0.0000       0.018497         0.5033 
  69   0.0000       0.033595         0.9142 
  70   0.0000       0.037860         1.0302 
  71   0.0000       0.043955         1.1961 
  72   0.0000       0.056656         1.5417 
  73   0.0000       0.058822         1.6006 
  74   0.0000       0.063566         1.7297 
  75   0.0000       0.067576         1.8388 
  76   0.0000       0.070117         1.9080 
  77   0.0000       0.071944         1.9577 

                 SPIN DOWN ORBITALS
  NO   OCC          E(Eh)            E(eV) 
   0   1.0000     -19.334861      -526.1283 
   1   1.0000     -19.325155      -525.8642 
   2   1.0000     -19.319617      -525.7135 
   3   1.0000     -19.315606      -525.6044 
   4   1.0000     -14.584285      -396.8586 
   5   1.0000     -14.584219      -396.8568 
   6   1.0000     -14.571795      -396.5187 
   7   1.0000     -14.549263      -395.9056 
   8   1.0000     -10.512977      -286.0727 
   9   1.0000     -10.510433      -286.0034 
  10   1.0000     -10.476882      -285.0905 
  11   1.0000     -10.464181      -284.7448 
  12   1.0000     -10.433220      -283.9023 
  13   1.0000     -10.399288      -282.9790 
  14   1.0000     -10.389221      -282.7051 
  15   1.0000     -10.378461      -282.4123 
  16   1.0000     -10.369815      -282.1770 
  17   1.0000     -10.349338      -281.6198 
  18   1.0000      -1.229703       -33.4619 
  19   1.0000      -1.219328       -33.1796 
  20   1.0000      -1.189477       -32.3673 
  21   1.0000      -1.176392       -32.0112 
  22   1.0000      -1.122594       -30.5473 
  23   1.0000      -1.109760       -30.1981 
  24   1.0000      -1.074669       -29.2432 
  25   1.0000      -1.054492       -28.6942 
  26   1.0000      -0.961998       -26.1773 
  27   1.0000      -0.938822       -25.5466 
  28   1.0000      -0.848973       -23.1017 
  29   1.0000      -0.840393       -22.8682 
  30   1.0000      -0.817620       -22.2486 
  31   1.0000      -0.796715       -21.6797 
  32   1.0000      -0.794072       -21.6078 
  33   1.0000      -0.779432       -21.2094 
  34   1.0000      -0.697260       -18.9734 
  35   1.0000      -0.695562       -18.9272 
  36   1.0000      -0.680358       -18.5135 
  37   1.0000      -0.674120       -18.3437 
  38   1.0000      -0.644571       -17.5397 
  39   1.0000      -0.631953       -17.1963 
  40   1.0000      -0.621772       -16.9193 
  41   1.0000      -0.596465       -16.2306 
  42   1.0000      -0.593975       -16.1629 
  43   1.0000      -0.584980       -15.9181 
  44   1.0000      -0.566698       -15.4206 
  45   1.0000      -0.561657       -15.2835 
  46   1.0000      -0.559409       -15.2223 
  47   1.0000      -0.548371       -14.9219 
  48   1.0000      -0.543133       -14.7794 
  49   1.0000      -0.534923       -14.5560 
  50   1.0000      -0.521297       -14.1852 
  51   1.0000      -0.518139       -14.0993 
  52   1.0000      -0.515403       -14.0248 
  53   1.0000      -0.502834       -13.6828 
  54   1.0000      -0.498549       -13.5662 
  55   1.0000      -0.492992       -13.4150 
  56   1.0000      -0.478050       -13.0084 
  57   1.0000      -0.447124       -12.1669 
  58   1.0000      -0.418932       -11.3997 
  59   1.0000      -0.416329       -11.3289 
  60   1.0000      -0.402635       -10.9562 
  61   1.0000      -0.387066       -10.5326 
  62   1.0000      -0.379618       -10.3299 
  63   1.0000      -0.377295       -10.2667 
  64   1.0000      -0.345773        -9.4090 
  65   0.0000      -0.100439        -2.7331 
  66   0.0000       0.011259         0.3064 
  67   0.0000       0.018495         0.5033 
  68   0.0000       0.031255         0.8505 
  69   0.0000       0.036878         1.0035 
  70   0.0000       0.042818         1.1651 
  71   0.0000       0.056433         1.5356 
  72   0.0000       0.059505         1.6192 
  73   0.0000       0.060255         1.6396 
  74   0.0000       0.066221         1.8020 
  75   0.0000       0.067063         1.8249 
*Only the first 10 virtual orbitals were printed.

                    ********************************
                    * MULLIKEN POPULATION ANALYSIS *
                    ********************************

--------------------------------------------
MULLIKEN ATOMIC CHARGES AND SPIN POPULATIONS
--------------------------------------------
   0 O :   -0.675948    0.199262
   1 O :   -0.667273    0.000447
   2 O :   -0.611330    0.074159
   3 O :   -0.672458    0.001639
   4 N :   -0.052265    0.227787
   5 N :   -0.088929    0.019917
   6 N :    0.028519    0.041684
   7 N :    0.016609   -0.000350
   8 C :    0.771291    0.332832
   9 C :    0.427987    0.022842
  10 C :   -0.272611    0.926124
  11 C :    0.164916    0.015804
  12 C :   -1.291600    0.006855
  13 C :   -1.360274   -0.010112
  14 C :    0.519036    0.159637
  15 C :    0.639841   -0.018351
  16 C :    0.383791   -0.043409
  17 C :    0.446664    0.001319
  18 H :    0.214747    0.004921
  19 H :    0.134221   -0.003338
  20 H :    0.155922    0.019670
  21 H :    0.348127    0.006847
  22 H :    0.332231    0.019975
  23 H :    0.347558   -0.000015
  24 H :    0.323049    0.001662
  25 H :    0.199017    0.002743
  26 H :    0.119769   -0.011921
  27 H :    0.068926    0.000828
  28 H :    0.000476   -0.002151
  29 H :    0.049993    0.002694
Sum of atomic charges         :   -0.0000000
Sum of atomic spin populations:    2.0000000

-----------------------------------------------------
MULLIKEN REDUCED ORBITAL CHARGES AND SPIN POPULATIONS
-----------------------------------------------------
CHARGE
  0 O s       :     4.087448  s :     4.087448
      pz      :     1.736511  p :     4.558370
      px      :     1.387021
      py      :     1.434838
      dz2     :     0.002489  d :     0.028258
      dxz     :     0.001514
      dyz     :     0.006598
      dx2y2   :     0.011874
      dxy     :     0.005783
      f0      :     0.000185  f :     0.001872
      f+1     :     0.000139
      f-1     :     0.000281
      f+2     :     0.000216
      f-2     :     0.000316
[...]
[1739883062.127233] [ohm:79564:0]        ib_iface.c:1059 UCX  ERROR ibv_create_cq(cqe=256) failed: Connection timed out
[1739883062.129245] [ohm:79550:0]        ib_iface.c:1059 UCX  ERROR ibv_create_cq(cqe=256) failed: Connection timed out
[1739883062.131306] [ohm:79552:0]        ib_iface.c:1059 UCX  ERROR ibv_create_cq(cqe=256) failed: Connection timed out
[1739883062.133059] [ohm:79571:0]        ib_iface.c:1059 UCX  ERROR ibv_create_cq(cqe=256) failed: Connection timed out
[1739883062.134971] [ohm:79642:0]        ib_iface.c:1059 UCX  ERROR ibv_create_cq(cqe=256) failed: Connection timed out
[1739883062.135598] [ohm:79579:0]        ib_iface.c:1059 UCX  ERROR ibv_create_cq(cqe=256) failed: Connection timed out
[1739883062.136164] [ohm:79554:0]        ib_iface.c:1059 UCX  ERROR ibv_create_cq(cqe=256) failed: Connection timed out
[1739883062.138184] [ohm:79556:0]        ib_iface.c:1059 UCX  ERROR ibv_create_cq(cqe=256) failed: Connection timed out
[1739883062.138897] [ohm:79590:0]        ib_iface.c:1059 UCX  ERROR ibv_create_cq(cqe=256) failed: Connection timed out
[1739883062.140009] [ohm:79595:0]        ib_iface.c:1059 UCX  ERROR ibv_create_cq(cqe=256) failed: Connection timed out
[1739883062.140104] [ohm:79535:0]        ib_iface.c:1059 UCX  ERROR ibv_create_cq(cqe=256) failed: Connection timed out


           ************************************************************
           *        Program running with 64 parallel MPI-processes    *
           *              working on a common directory               *
           ************************************************************

------------------------------------------------------------------------------
                              ORCA PROPERTY CALCULATIONS
------------------------------------------------------------------------------

GBWName                                 ... orca.gbw
Number of atoms                         ...     30
Number of basis functions               ...    882
Max core memory                         ...   1024 MB

Electric properties:
Dipole moment                           ... YES
Quadrupole moment                       ...  NO
Static polarizability (Dipole/Dipole)   ...  NO
Static polarizability (Dipole/Quad.)    ...  NO
Static polarizability (Quad./Quad.)     ...  NO
Static polarizability (Velocity)        ...  NO

Atomic electric properties:
Dipole moment                           ...  NO
Quadrupole moment                       ...  NO
Static polarizability                   ...  NO

Choice of electric origin               ... Center of mass
Position of electric origin             ...     0.038883    -0.038163     0.081673

General magnetic properties:
Magnetizability                         ...  NO

EPR properties:
g-Tensor (aka g-matrix)                 ...  NO
Zero-Field splitting spin-orbit         ...  NO
Zero-field splitting spin-spin          ...  NO
Hyperfine couplings                     ...  NO (   0 nuclei)
Quadrupole couplings                    ...  NO (   0 nuclei)
Contact density                         ...  NO (   0 nuclei)

NMR properties:
Chemical shifts                         ...  NO (   0 nuclei)
Spin-rotation constants                 ...  NO (   0 nuclei)
Spin-spin couplings                     ...  NO (   0 nuclei,    0 pairs)

Choice of magnetic origin               ... GIAO
Position of magnetic origin             ...     0.000000     0.000000     0.000000

Properties with geometric perturbations:
SCF Hessian                             ...  NO
IR spectrum                             ...  NO
VCD spectrum                            ...  NO
X-ray spectroscopy properties:
SCF XES/XAS/RIXS spectra                ...  NO


-------------
DIPOLE MOMENT
-------------

Method             : SCF
Type of density    : Electron Density
Multiplicity       :   3
Irrep              :   0
Energy             :  -908.7366701598758709 Eh
Relativity type    : 
Basis              : AO
                                X                 Y                 Z
Electronic contribution:     -2.730742653     -10.040773157      -6.271271385
Nuclear contribution   :      1.991536545      11.033235913       8.660924055
                        -----------------------------------------
Total Dipole Moment    :     -0.739206108       0.992462757       2.389652670
                        -----------------------------------------
Magnitude (a.u.)       :      2.691068166
Magnitude (Debye)      :      6.840151683



--------------------
Rotational spectrum 
--------------------
 
Rotational constants in cm-1:             0.017907             0.015609             0.012226 
Rotational constants in MHz :           536.848441           467.945655           366.514515 

Dipole components along the rotational axes: 
x,y,z [a.u.] :     1.423822     0.962449     2.070814 
x,y,z [Debye]:     3.619069     2.446352     5.263590 

 

-------------
DIPOLE MOMENT
-------------

Method             : TDA/CIS
Type of density    : Electron Density
Level              : Relaxed density
State              :   1
Multiplicity       :   3
Irrep              :   0
Energy             :     0.0000000000000000 Eh
Relativity type    : 
Basis              : AO
                                X                 Y                 Z
Electronic contribution:     -2.860125986     -10.239945850      -6.221176087
Nuclear contribution   :      1.991536545      11.033235913       8.660924055
                        -----------------------------------------
Total Dipole Moment    :     -0.868589442       0.793290063       2.439747968
                        -----------------------------------------
Magnitude (a.u.)       :      2.708528547
Magnitude (Debye)      :      6.884532444



--------------------
Rotational spectrum 
--------------------
 
Rotational constants in cm-1:             0.017907             0.015609             0.012226 
Rotational constants in MHz :           536.848441           467.945655           366.514515 

Dipole components along the rotational axes: 
x,y,z [a.u.] :     1.512270     0.742041     2.120977 
x,y,z [Debye]:     3.843885     1.886117     5.391094 

 

Dipole moment calculation done in   0.2 sec 

Maximum memory used throughout the entire PROP-calculation: 81.4 MB
[1739883064.579064] [ohm:79843:0]        ib_iface.c:1059 UCX  ERROR ibv_create_cq(cqe=256) failed: Connection timed out
[1739883064.628321] [ohm:79854:0]        ib_iface.c:1059 UCX  ERROR ibv_create_cq(cqe=256) failed: Connection timed out
[1739883064.630185] [ohm:79851:0]        ib_iface.c:1059 UCX  ERROR ibv_create_cq(cqe=256) failed: Connection timed out
[1739883064.632929] [ohm:79849:0]        ib_iface.c:1059 UCX  ERROR ibv_create_cq(cqe=256) failed: Connection timed out
[1739883064.640187] [ohm:79848:0]        ib_iface.c:1059 UCX  ERROR ibv_create_cq(cqe=256) failed: Connection timed out
[1739883064.648411] [ohm:79840:0]        ib_iface.c:1059 UCX  ERROR ibv_create_cq(cqe=256) failed: Connection timed out
[1739883064.650069] [ohm:79850:0]        ib_iface.c:1059 UCX  ERROR ibv_create_cq(cqe=256) failed: Connection timed out
[1739883064.662019] [ohm:79842:0]        ib_iface.c:1059 UCX  ERROR ibv_create_cq(cqe=256) failed: Connection timed out
[1739883064.662590] [ohm:79853:0]        ib_iface.c:1059 UCX  ERROR ibv_create_cq(cqe=256) failed: Connection timed out
[1739883064.673705] [ohm:79845:0]        ib_iface.c:1059 UCX  ERROR ibv_create_cq(cqe=256) failed: Connection timed out
[1739883064.682923] [ohm:79858:0]        ib_iface.c:1059 UCX  ERROR ibv_create_cq(cqe=256) failed: Connection timed out
[1739883064.685436] [ohm:79857:0]        ib_iface.c:1059 UCX  ERROR ibv_create_cq(cqe=256) failed: Connection timed out
[1739883064.688950] [ohm:79861:0]        ib_iface.c:1059 UCX  ERROR ibv_create_cq(cqe=256) failed: Connection timed out
[1739883064.689133] [ohm:79893:0]        ib_iface.c:1059 UCX  ERROR ibv_create_cq(cqe=256) failed: Connection timed out
[1739883064.698194] [ohm:79852:0]        ib_iface.c:1059 UCX  ERROR ibv_create_cq(cqe=256) failed: Connection timed out
[1739883064.703774] [ohm:79900:0]        ib_iface.c:1059 UCX  ERROR ibv_create_cq(cqe=256) failed: Connection timed out
[1739883064.712456] [ohm:79839:0]        ib_iface.c:1059 UCX  ERROR ibv_create_cq(cqe=256) failed: Connection timed out
[1739883064.745332] [ohm:79934:0]        ib_iface.c:1059 UCX  ERROR ibv_create_cq(cqe=256) failed: Connection timed out
[1739883064.753407] [ohm:79961:0]        ib_iface.c:1059 UCX  ERROR ibv_create_cq(cqe=256) failed: Connection timed out
[1739883064.771255] [ohm:79860:0]        ib_iface.c:1059 UCX  ERROR ibv_create_cq(cqe=256) failed: Connection timed out
[1739883064.775043] [ohm:79878:0]        ib_iface.c:1059 UCX  ERROR ibv_create_cq(cqe=256) failed: Connection timed out
[1739883064.775111] [ohm:79844:0]        ib_iface.c:1059 UCX  ERROR ibv_create_cq(cqe=256) failed: Connection timed out
[1739883064.780187] [ohm:79847:0]        ib_iface.c:1059 UCX  ERROR ibv_create_cq(cqe=256) failed: Connection timed out
[1739883064.783839] [ohm:79950:0]        ib_iface.c:1059 UCX  ERROR ibv_create_cq(cqe=256) failed: Connection timed out
[1739883064.789274] [ohm:79841:0]        ib_iface.c:1059 UCX  ERROR ibv_create_cq(cqe=256) failed: Connection timed out
[1739883064.811304] [ohm:79881:0]        ib_iface.c:1059 UCX  ERROR ibv_create_cq(cqe=256) failed: Connection timed out
[1739883064.811680] [ohm:79919:0]        ib_iface.c:1059 UCX  ERROR ibv_create_cq(cqe=256) failed: Connection timed out
[1739883064.823885] [ohm:79907:0]        ib_iface.c:1059 UCX  ERROR ibv_create_cq(cqe=256) failed: Connection timed out
[1739883064.828724] [ohm:79859:0]        ib_iface.c:1059 UCX  ERROR ibv_create_cq(cqe=256) failed: Connection timed out
[1739883064.828761] [ohm:79869:0]        ib_iface.c:1059 UCX  ERROR ibv_create_cq(cqe=256) failed: Connection timed out
[1739883064.829974] [ohm:79971:0]        ib_iface.c:1059 UCX  ERROR ibv_create_cq(cqe=256) failed: Connection timed out
[1739883064.831982] [ohm:79866:0]        ib_iface.c:1059 UCX  ERROR ibv_create_cq(cqe=256) failed: Connection timed out
[1739883064.835729] [ohm:79863:0]        ib_iface.c:1059 UCX  ERROR ibv_create_cq(cqe=256) failed: Connection timed out
[1739883064.836353] [ohm:79945:0]        ib_iface.c:1059 UCX  ERROR ibv_create_cq(cqe=256) failed: Connection timed out
[1739883064.839508] [ohm:79856:0]        ib_iface.c:1059 UCX  ERROR ibv_create_cq(cqe=256) failed: Connection timed out
[1739883064.840972] [ohm:79916:0]        ib_iface.c:1059 UCX  ERROR ibv_create_cq(cqe=256) failed: Connection timed out
[1739883064.846444] [ohm:79942:0]        ib_iface.c:1059 UCX  ERROR ibv_create_cq(cqe=256) failed: Connection timed out
[1739883064.848246] [ohm:79941:0]        ib_iface.c:1059 UCX  ERROR ibv_create_cq(cqe=256) failed: Connection timed out
[1739883064.848282] [ohm:79887:0]        ib_iface.c:1059 UCX  ERROR ibv_create_cq(cqe=256) failed: Connection timed out
[1739883064.852139] [ohm:79864:0]        ib_iface.c:1059 UCX  ERROR ibv_create_cq(cqe=256) failed: Connection timed out
[1739883064.872453] [ohm:79871:0]        ib_iface.c:1059 UCX  ERROR ibv_create_cq(cqe=256) failed: Connection timed out
[1739883064.874632] [ohm:79947:0]        ib_iface.c:1059 UCX  ERROR ibv_create_cq(cqe=256) failed: Connection timed out
[1739883064.878808] [ohm:79974:0]        ib_iface.c:1059 UCX  ERROR ibv_create_cq(cqe=256) failed: Connection timed out
[1739883064.888203] [ohm:79931:0]        ib_iface.c:1059 UCX  ERROR ibv_create_cq(cqe=256) failed: Connection timed out
[1739883064.889566] [ohm:79896:0]        ib_iface.c:1059 UCX  ERROR ibv_create_cq(cqe=256) failed: Connection timed out
[1739883064.891500] [ohm:79981:0]        ib_iface.c:1059 UCX  ERROR ibv_create_cq(cqe=256) failed: Connection timed out
[1739883064.892028] [ohm:79953:0]        ib_iface.c:1059 UCX  ERROR ibv_create_cq(cqe=256) failed: Connection timed out
[1739883064.892754] [ohm:79928:0]        ib_iface.c:1059 UCX  ERROR ibv_create_cq(cqe=256) failed: Connection timed out
[1739883064.893094] [ohm:79875:0]        ib_iface.c:1059 UCX  ERROR ibv_create_cq(cqe=256) failed: Connection timed out
[1739883064.896071] [ohm:79910:0]        ib_iface.c:1059 UCX  ERROR ibv_create_cq(cqe=256) failed: Connection timed out
[1739883064.896650] [ohm:79868:0]        ib_iface.c:1059 UCX  ERROR ibv_create_cq(cqe=256) failed: Connection timed out
[1739883064.905333] [ohm:79937:0]        ib_iface.c:1059 UCX  ERROR ibv_create_cq(cqe=256) failed: Connection timed out
[1739883064.907082] [ohm:79977:0]        ib_iface.c:1059 UCX  ERROR ibv_create_cq(cqe=256) failed: Connection timed out
[1739883064.912009] [ohm:79891:0]        ib_iface.c:1059 UCX  ERROR ibv_create_cq(cqe=256) failed: Connection timed out
[1739883064.912169] [ohm:79924:0]        ib_iface.c:1059 UCX  ERROR ibv_create_cq(cqe=256) failed: Connection timed out
[1739883064.914638] [ohm:79862:0]        ib_iface.c:1059 UCX  ERROR ibv_create_cq(cqe=256) failed: Connection timed out
[1739883064.914628] [ohm:79966:0]        ib_iface.c:1059 UCX  ERROR ibv_create_cq(cqe=256) failed: Connection timed out
[1739883064.916020] [ohm:79903:0]        ib_iface.c:1059 UCX  ERROR ibv_create_cq(cqe=256) failed: Connection timed out
[1739883064.917272] [ohm:79884:0]        ib_iface.c:1059 UCX  ERROR ibv_create_cq(cqe=256) failed: Connection timed out
[1739883064.919682] [ohm:79846:0]        ib_iface.c:1059 UCX  ERROR ibv_create_cq(cqe=256) failed: Connection timed out
[1739883064.919792] [ohm:79965:0]        ib_iface.c:1059 UCX  ERROR ibv_create_cq(cqe=256) failed: Connection timed out
[1739883064.920480] [ohm:79865:0]        ib_iface.c:1059 UCX  ERROR ibv_create_cq(cqe=256) failed: Connection timed out
[1739883064.921250] [ohm:79855:0]        ib_iface.c:1059 UCX  ERROR ibv_create_cq(cqe=256) failed: Connection timed out
[1739883064.921351] [ohm:79957:0]        ib_iface.c:1059 UCX  ERROR ibv_create_cq(cqe=256) failed: Connection timed out

--------------------------------
SUGGESTED CITATIONS FOR THIS RUN
--------------------------------

Below you find a list of papers that are relevant to this ORCA run
We neither can nor want to force you to cite these papers, but we appreciate if you do
You receive ORCA, which is the product of decades of hard work by many enthusiastic individuals, for free
The only thing we kindly ask in return is that you cite our papers,
We deeply appreciate it, if you show your appreciation for ORCA by not just citing the generic ORCA reference.

Please note that relegating all ORCA citations to the supporting information does *not* help us.
SI sections are not indexed - citations you put there will not count into any citation statistics
But we need these citations in order to attract the funding resources that allow us to do what we are doing

Therefore, if you are a happy ORCA user, please consider citing a few of the papers listed below in the main body of your paper

In addition to the list printed below, the program has created the file orca.bibtex that contains the list in bibtex format
You can import this file easily into all common literature databanks and citation aid programs


List of essential papers. We consider these as the minimum necessary citations

  1. Neese,F.
     Software update: the ORCA program system, version 5.0
     WIRES Comput. Molec. Sci., 2022 12(1)e1606
     doi.org/10.1002/wcms.1606

List of papers to cite with high priority. The work reported in these papers was absolutely
necessary for this run to complete.
Our perspective: the developers of density functionals and basis sets usually get cited in chemistry papers
Good! But without the algorithms to do something with them, the functionals or basis sets would not do anything.
Hence, in our opinion, the algorithm design and method developments papers are equally worthy of getting cited

  1. Neese,F.; Olbrich,G.
     Efficient use of the resolution of the identity approximation in time-dependent density functional calculations with hybrid density functionals
     Chem. Phys. Lett., 2002 362 170-178
     doi.org/10.1016/s0009-2614(02)01053-9
  2. Neese,F.
     An improvement of the resolution of the identity approximation for the formation of the Coulomb matrix
     J. Comp. Chem., 2003 24(14)1740-1747
     doi.org/10.1002/jcc.10318
  3. Neese,F.; Wennmohs,F.; Hansen,A.; Becker,U.
     Efficient, approximate and parallel Hartree-Fock and hybrid DFT calculations. A 'chain-of-spheres' algorithm for the Hartree-Fock exchange
     Chem. Phys., 2009 356(1-3)98-109
     doi.org/10.1016/j.chemphys.2008.10.036
  4. Petrenko,T.; Kossmann,S.; Neese,F.
     Efficient time-dependent density functional theory approximations for hybrid density functionals: Analytical gradients and parallelization
     J. Chem. Phys., 2011 134 054116
     doi.org/10.1063/1.3533441
  5. Helmich-Paris,B.; de Souza,B.; Neese,F.; Izsák,R.
     An improved chain of spheres for exchange algorithm
     J. Chem. Phys., 2021 155 104109
     doi.org/doi: 10.1063/5.0058766.
  6. Neese,F.
     The SHARK Integral Generation and Digestion System
     J. Comp. Chem., 2022  1-16
     doi.org/10.1002/jcc.26942
  7. Lehtola,S.; Steigemann,C.; Oliveira,M.; Marques,M.
     Recent developments in Libxc - A comprehensive library of functionals for density functional theory
     Software X, 2018 7 
     doi.org/10.1016/j.softx.2017.11.002
  8. Grimme,S.; Antony,J.; Ehrlich,S.; Krieg,H.
     A consistent and accurate ab initio parametrization of density functional dispersion correction (DFT-D) for the 94 elements H-Pu
     J. Chem. Phys., 2010 132 154104-XXXX
     doi.org/10.1063/1.3382344
  9. Grimme,S.; Ehrlich,S.; Goerigk,L.
     Effect of the damping function in dispersion corrected density functional theory
     J. Comput. Chem., 2011 32(7)1456-1465
     doi.org/10.1002/jcc.21759

List of suggested additional citations. These are papers that are important in the 'surrounding' of 
of this run, or papers that preceded the highly important papers. If you like your results we are grateful for a citation.

  1. Izsak,R.; Neese,F.
     An overlap fitted chain of spheres exchange method
     J. Chem. Phys., 2011 135 144105
     doi.org/10.1063/1.3646921
  2. Izsak,R.; Hansen,A.; Neese,F.
     The resolution of identity and chain of spheres approximations for the LPNO-CCSD singles Fock term
     Molec. Phys., 2012 110 2413-2417
     doi.org/10.1080/00268976.2012.687466
  3. Neese,F.
     The ORCA program system
     WIRES Comput. Molec. Sci., 2012 2(1)73-78
     doi.org/10.1002/wcms.81
  4. Izsak,R.; Neese,F.; Klopper,W.
     Robust fitting techniques in the chain of spheres approximation to the Fock exchange: The role of the complementary space
     J. Chem. Phys., 2013 139 
     doi.org/10.1063/1.4819264
  5. Neese,F.
     Software update: the ORCA program system, version 4.0
     WIRES Comput. Molec. Sci., 2018 8(1)1-6
     doi.org/10.1002/wcms.1327
  6. Neese,F.; Wennmohs,F.; Becker,U.; Riplinger,C.
     The ORCA quantum chemistry program package
     J. Chem. Phys., 2020 152 Art. No. L224108
     doi.org/10.1063/5.0004608

List of optional additional citations

  1. Neese,F.
     Approximate second-order SCF convergence for spin unrestricted wavefunctions
     Chem. Phys. Lett., 2000 325(1-3)93-98
     doi.org/10.1016/s0009-2614(00)00662-x

Timings for individual modules:

Sum of individual times          ...      305.349 sec (=   5.089 min)
Startup calculation              ...        6.305 sec (=   0.105 min)   2.1 %
SCF iterations                   ...      147.753 sec (=   2.463 min)  48.4 %
Property integrals               ...        4.210 sec (=   0.070 min)   1.4 %
Property calculations            ...        2.832 sec (=   0.047 min)   0.9 %
CIS module                       ...      144.250 sec (=   2.404 min)  47.2 %
                             ****ORCA TERMINATED NORMALLY****
TOTAL RUN TIME: 0 days 0 hours 5 minutes 7 seconds 379 msec
