30
Properties=species:S:1:pos:R:3:momenta:R:3:forces:R:3 Coordinates=T from=T ORCA-job=T orca=T E=T -908.932838358981=T energy=-24728.442952703375 free_energy=-24728.442952703375 stress="1.8545489614627913e-06 7.94238045577677e-07 6.214818730911174e-07 7.94238045577677e-07 3.491782240936384e-06 1.0683837021852567e-06 6.214818730911174e-07 1.0683837021852567e-06 -1.6907440173244334e-06" pbc="F F F"
O        2.88450400       1.10149799      -0.83775594       0.22217476       0.96458641      -0.07847689       0.04199023       0.11698071       0.01628404
O       -0.55283178       0.90966380      -2.03509247      -0.82252927       0.74164204       0.09155456       0.98996322       0.01333038      -1.98227782
O        1.32900018      -3.18735968      -1.18800294       0.12646273       0.20803153      -0.16796061       0.13234645      -0.68928072      -0.73313908
O       -3.21279599      -1.58546779       0.58629355      -0.09795449      -0.24746728      -0.12453089      -0.83698473      -1.07035499       0.31534612
N        0.81545597      -2.04084386       0.70259465       0.80096889      -0.04139735       0.04729575       0.12067186       0.76190818       0.18226062
N       -2.47292853       0.41256351       1.46353018      -1.27145601       0.13769621       0.71601961       0.00426110       0.54997507      -1.05979458
N        1.94640366      -1.00438314      -1.02034473      -0.12903502       0.06431257      -0.27490341       1.02644221       2.33625421       0.69962585
N       -1.90344043      -0.29124904      -0.69186335       0.24658974       0.36321648      -0.45609321      -0.30618164       0.31043292       0.54667689
C        1.84257462       0.17588569       1.07169115       0.51601152      -0.12759492       0.23378430      -2.10119404      -0.69826618       1.53881350
C       -1.24077732       1.88521889      -0.04368508      -0.27945487      -0.64726718      -0.66447885      -0.15998936       0.95279050       0.54285239
C        1.00662966      -0.89582706       1.49840995       0.76926662      -0.80088140      -0.39603149       1.41287580       0.65910875      -1.71531456
C       -1.96688313       1.69411655       1.16981465      -0.44016568      -0.12693772      -0.03807265      -0.39298471      -1.61460998       1.02833207
C        2.35553733       1.26816385       1.94665725       0.10638501       0.45942643      -1.01168006       0.10575478       1.17957331       1.58545814
C       -0.51417115       3.18379328      -0.13250702      -0.48635319      -0.46402408      -0.43074052       1.68533570      -0.67960474       0.84064788
C        2.26520564       0.23715162      -0.28282087       0.58175639      -0.91416944       0.45374593      -0.17396171      -2.19900910      -1.78724141
C       -1.18222915       0.85271909      -1.02504429      -0.00659490       0.37563027       0.64070572      -0.39946305       0.63006808       1.69797236
C        1.39629365      -2.16632484      -0.57237850      -0.29891330      -0.00031896       0.06609206      -0.81646952       0.10936719       1.51412867
C       -2.61631310      -0.57896458       0.43224563       0.16612440       0.03123586       0.16962064       1.15093610       1.56115593       0.94920958
H        0.49188519      -0.85735236       2.42059037      -0.05681955       0.06950201       0.13203270      -0.11587946       0.00009941       0.64367802
H       -2.02887147       2.39479276       1.98216524       0.04714201       0.08670331       0.10375769       0.07294289       0.10938660      -0.17497112
H        1.64563152       1.98514782       2.55829043      -0.03158537      -0.12923016       0.12915369       0.50466150      -1.51928953      -0.85563990
H        3.03279219       0.79258111       2.67408804       0.22056709       0.04036025       0.15722893      -0.36047182       0.18853337       0.13894247
H        2.99783472       1.99813593       1.45539320      -0.07948733      -0.26322702       0.05557584      -0.12028768      -0.32131871      -0.49243382
H       -1.13306966       4.00642495       0.28726611      -0.13897927       0.00535670       0.15065052       0.44106434      -0.23451180      -0.87841569
H        0.46583294       3.21488554       0.51421827      -0.16636381       0.01153774       0.29034642      -1.34041346      -0.35619150      -0.21467413
H        0.03747771       3.22999531      -1.07748926       0.03322263       0.14403191      -0.10974874      -0.94647590       0.60938776      -0.30842605
H        0.25449807      -2.84081666       1.01574231       0.01204500      -0.05257926      -0.00110389       0.40672976       0.53718485      -0.22309386
H       -2.99846531       0.26888758       2.32358175      -0.10169543       0.21417151       0.04254261       0.11224314      -0.02511310      -0.50461905
H        2.48158793      -0.97655696      -1.86439038       0.25334657      -0.10213610       0.16441313      -0.14041810      -0.45639814      -0.40804267
H       -1.89504360      -1.02308238      -1.33422446       0.30532412      -0.00021036       0.10930110       0.00295609      -0.76158874      -0.90214486
