
                                 *****************
                                 * O   R   C   A *
                                 *****************

                                            #,                                       
                                            ###                                      
                                            ####                                     
                                            #####                                    
                                            ######                                   
                                           ########,                                 
                                     ,,################,,,,,                         
                               ,,#################################,,                 
                          ,,##########################################,,             
                       ,#########################################, ''#####,          
                    ,#############################################,,   '####,        
                  ,##################################################,,,,####,       
                ,###########''''           ''''###############################       
              ,#####''   ,,,,##########,,,,          '''####'''          '####       
            ,##' ,,,,###########################,,,                        '##       
           ' ,,###''''                  '''############,,,                           
         ,,##''                                '''############,,,,        ,,,,,,###''
      ,#''                                            '''#######################'''  
     '                                                          ''''####''''         
             ,#######,   #######,   ,#######,      ##                                
            ,#'     '#,  ##    ##  ,#'     '#,    #''#        ,####,   ,####,        
            ##       ##  ##   ,#'  ##            #'  '#       #'       #'  '#        
            ##       ##  #######   ##           ,######,      #####,   #    #        
            '#,     ,#'  ##    ##  '#,     ,#' ,#      #,     #,   #   #,  ,#        
             '#######'   ##     ##  '#######'  #'      '#     '####' # '####'        



                #########################################################
                #                        -***-                          #
                #          Department of theory and spectroscopy        #
                #                                                       #
                #                      Frank Neese                      #
                #                                                       #
                #     Directorship, Architecture, Infrastructure        #
                #                    SHARK, DRIVERS                     #
                #        Core code/Algorithms in most modules           #
                #                                                       #
                #        Max Planck Institute fuer Kohlenforschung      #
                #                Kaiser Wilhelm Platz 1                 #
                #                 D-45470 Muelheim/Ruhr                 #
                #                      Germany                          #
                #                                                       #
                #                  All rights reserved                  #
                #                        -***-                          #
                #########################################################


                         Program Version 6.0.0  -   RELEASE  -


 With contributions from (in alphabetic order):
   Daniel Aravena         : Magnetic Suceptibility
   Michael Atanasov       : Ab Initio Ligand Field Theory (pilot matlab implementation)
   Alexander A. Auer      : GIAO ZORA, VPT2 properties, NMR spectrum
   Ute Becker             : All parallelization in ORCA, NUMFREQ, NUMCALC
   Giovanni Bistoni       : ED, misc. LED, open-shell LED, HFLD
   Martin Brehm           : Molecular dynamics
   Dmytro Bykov           : pre 5.0 version of the SCF Hessian
   Marcos Casanova-Páez   : Triplet and SCS-CIS(D). UHF-(DLPNO)-IP/EA/STEOM-CCSD. UHF-CVS-IP/STEOM-CCSD
   Vijay G. Chilkuri      : MRCI spin determinant printing, contributions to CSF-ICE
   Pauline Colinet        : FMM embedding
   Dipayan Datta          : RHF DLPNO-CCSD density
   Achintya Kumar Dutta   : EOM-CC, STEOM-CC
   Nicolas Foglia         : Exact transition moments, OPA infrastructure, MCD improvements
   Dmitry Ganyushin       : Spin-Orbit,Spin-Spin,Magnetic field MRCI
   Miquel Garcia          : C-PCM and meta-GGA Hessian, CCSD/C-PCM, Gaussian charge scheme
   Tiago L. C. Gouveia    : GS-ROHF, GS-ROCIS
   Yang Guo               : DLPNO-NEVPT2, F12-NEVPT2, CIM, IAO-localization
   Andreas Hansen         : Spin unrestricted coupled pair/coupled cluster methods
   Ingolf Harden          : AUTO-CI MPn and infrastructure 
   Benjamin Helmich-Paris : MC-RPA, TRAH-(SCF,CASSCF), AVAS, COSX integrals, SCF dyn. polar.
   Lee Huntington         : MR-EOM, pCC
   Robert Izsak           : Overlap fitted RIJCOSX, COSX-SCS-MP3, EOM
   Riya Kayal             : Wick's Theorem for AUTO-CI, AUTO-CI UHF-CCSDT
   Emily Kempfer          : AUTO-CI, RHF CISDT and CCSDT
   Christian Kollmar      : KDIIS, OOCD, Brueckner-CCSD(T), CCSD density, CASPT2, CASPT2-K, improved NEVPT2
   Axel Koslowski         : Symmetry handling
   Simone Kossmann        : Meta GGA functionals, TD-DFT gradient, OOMP2, (MP2 Hessian; deprecated post 5.0)
   Lucas Lang             : DCDCAS
   Marvin Lechner         : AUTO-CI (C++ implementation), FIC-MRCC
   Spencer Leger          : CASSCF response
   Dagmar Lenk            : GEPOL surface, SMD, ORCA-2-JSON
   Dimitrios Liakos       : Extrapolation schemes; Compound Job, initial MDCI parallelization
   Dimitrios Manganas     : Further ROCIS development; embedding schemes. LFT, Crystal Embedding
   Dimitrios Pantazis     : SARC Basis sets
   Anastasios Papadopoulos: AUTO-CI, single reference methods and gradients
   Taras Petrenko         : pre 6.0 DFT Hessian and TD-DFT gradient, (ASA, deprecated), ECA, 1-Electron XAS/XES, NRVS
   Peter Pinski           : DLPNO-MP2, DLPNO-MP2 Gradient
   Christoph Reimann      : Effective Core Potentials
   Marius Retegan         : Local ZFS, SOC
   Christoph Riplinger    : Optimizer, TS searches, QM/MM, DLPNO-CCSD(T), (RO)-DLPNO pert. Triples
   Michael Roemelt        : Original ROCIS implementation
   Masaaki Saitow         : Open-shell DLPNO-CCSD energy and density
   Barbara Sandhoefer     : DKH picture change effects
   Kantharuban Sivalingam : CASSCF convergence/infrastructure, NEVPT2 and variants, FIC-MRCI
   Bernardo de Souza      : ESD, SOC TD-DFT
   Georgi Stoychev        : AutoAux, RI-MP2 NMR, DLPNO-MP2 response, X2C
   Van Anh Tran           : RI-MP2 g-tensors
   Willem Van den Heuvel  : Paramagnetic NMR
   Zikuan Wang            : NOTCH, Electric field optimization 
   Frank Wennmohs         : Technical directorship and infrastructure
   Hang Xu                : AUTO-CI-Response properties 


 We gratefully acknowledge several colleagues who have allowed us to
 interface, adapt or use parts of their codes:
   Stefan Grimme, W. Hujo, H. Kruse, P. Pracht,  : VdW corrections, initial TS optimization,
                  C. Bannwarth, S. Ehlert,         DFT functionals, gCP, sTDA/sTD-DF
                  L. Wittmann, M. Mueller
   Ed Valeev, F. Pavosevic, A. Kumar             : LibInt (2-el integral package), F12 methods
   Garnet Chan, S. Sharma, J. Yang, R. Olivares  : DMRG
   Ulf Ekstrom                                   : XCFun DFT Library
   Mihaly Kallay                                 : mrcc  (arbitrary order and MRCC methods)
   Frank Weinhold                                : gennbo (NPA and NBO analysis)
   Simon Mueller                                 : openCOSMO-RS
   Christopher J. Cramer and Donald G. Truhlar   : smd solvation model
   Lars Goerigk                                  : TD-DFT with DH, B97 family of functionals
   V. Asgeirsson, H. Jonsson                     : NEB implementation
   FAccTs GmbH                                   : IRC, NEB, NEB-TS, DLPNO-Multilevel, CI-OPT
                                                   MM, QMMM, 2- and 3-layer-ONIOM, Crystal-QMMM,
                                                   LR-CPCM, SF, NACMEs, symmetry and pop. for TD-DFT,
                                                   nearIR, NL-DFT gradient (VV10), updates on ESD,
                                                   ML-optimized integration grids, MBIS, APM,
                                                   GOAT, DOCKER, SOLVATOR, interface openCOSMO-RS
   S Lehtola, MJT Oliveira, MAL Marques          : LibXC Library
   Liviu Ungur et al                             : ANISO software


 Your calculation uses the libint2 library for the computation of 2-el integrals
 For citations please refer to: http://libint.valeyev.net

 Your ORCA version has been built with support for libXC version: 6.2.2
 For citations please refer to: https://libxc.gitlab.io

 This ORCA versions uses:
   CBLAS   interface :  Fast vector & matrix operations
   LAPACKE interface :  Fast linear algebra routines
   SCALAPACK package :  Parallel linear algebra routines
   Shared memory     :  Shared parallel matrices
   BLAS/LAPACK       :  OpenBLAS 0.3.27  USE64BITINT DYNAMIC_ARCH NO_AFFINITY Zen SINGLE_THREADED
        Core in use  :  Zen
   Copyright (c) 2011-2014, The OpenBLAS Project


Your calculation utilizes the atom-pairwise dispersion correction
with the Becke-Johnson damping scheme (D3BJ)


Warning: RI is on but no J-basis has been assigned. Assigning Def2/J (nothing to worry about!)
================================================================================

----- Orbital basis set information -----
Your calculation utilizes the basis: def2-TZVPPD
   F. Weigend and R. Ahlrichs, Phys. Chem. Chem. Phys. 7, 3297 (2005).
   D. Rappoport and F. Furche, J. Chem. Phys. 133, 134105 (2010)
   D. Rappoport, J. Chem. Phys. 155, 124102 (2021).

----- AuxJ basis set information -----
Your calculation utilizes the auxiliary basis: def2/J
   F. Weigend, Phys. Chem. Chem. Phys. 8, 1057 (2006).

================================================================================
                                        WARNINGS
                       Please study these warnings very carefully!
================================================================================

Using LibXC functional ID 531 : wB97M-V exchange-correlation functional
[ 1]  N. Mardirossian and M. Head-Gordon.,  J. Chem. Phys. 144, 214110 (2016)
Using LibXC functional ID 531 : wB97M-V exchange-correlation functional
[ 1]  N. Mardirossian and M. Head-Gordon.,  J. Chem. Phys. 144, 214110 (2016)

WARNING: B97M-V or wB97M-V functional requested.
  ===> : libXC variant has now been activated.
         Any manually given DFX/HFX/RangeSep scaling parameters are IGNORED!

Your calculation utilizes LibXC
 by S Lehtola, C Steigemann, MJT Oliveira & MAL Marques
Please cite in your paper:
 S Lehtola, C Steigemann, MJT Oliveira & MAL Marques, SoftwareX, 7, (2018), 1.
   


WARNING: your system is open-shell and RHF/RKS was chosen
  ===> : WILL SWITCH to UHF/UKS

INFO   : Checking CIS options ...

WARNING: CIS/ROCIS methods need fully converged wavefunctions
  ===> : Setting SCFConvForced true
         You can overwrite this default with %scf ConvForced false 


================================================================================
                                       INPUT FILE
================================================================================
NAME = orca.inp
|  1> ! Engrad def2-TZVPPD wB97M-D3BJ 
|  2> %pal nprocs 8 end%pal nprocs 32 end 
|  3> %tddft Nroots 2 Iroot 1 
|  4> sf true 
|  5> end 
|  6> *xyz 0 3 
|  7> O   0.69771923 1.44347206 -0.08318823
|  8> C   0.61147669 0.15140824 0.43911488
|  9> C   -0.4143859 -0.8138275 -0.31650929
| 10> H   1.31401157 -0.33064376 1.07151389
| 11> H   0.1602632 -1.60232074 -0.75721235
| 12> H   -0.94765276 -0.22913084 -1.10109489
| 13> H   -1.15832888 -1.25343088 0.36977223
| 14> *
| 15> 
| 16>                          ****END OF INPUT****
================================================================================

                     *******************************
                     * Energy+Gradient Calculation *
                     *******************************

---------------------------------
CARTESIAN COORDINATES (ANGSTROEM)
---------------------------------
  O      0.697719    1.443472   -0.083188
  C      0.611477    0.151408    0.439115
  C     -0.414386   -0.813828   -0.316509
  H      1.314012   -0.330644    1.071514
  H      0.160263   -1.602321   -0.757212
  H     -0.947653   -0.229131   -1.101095
  H     -1.158329   -1.253431    0.369772

----------------------------
CARTESIAN COORDINATES (A.U.)
----------------------------
  NO LB      ZA    FRAG     MASS         X           Y           Z
   0 O     8.0000    0    15.999    1.318498    2.727767   -0.157203
   1 C     6.0000    0    12.011    1.155523    0.286120    0.829807
   2 C     6.0000    0    12.011   -0.783076   -1.537911   -0.598116
   3 H     1.0000    0     1.008    2.483122   -0.624826    2.024868
   4 H     1.0000    0     1.008    0.302854   -3.027947   -1.430924
   5 H     1.0000    0     1.008   -1.790804   -0.432995   -2.080768
   6 H     1.0000    0     1.008   -2.188924   -2.368641    0.698768

--------------------------------
INTERNAL COORDINATES (ANGSTROEM)
--------------------------------
 O      0   0   0     0.000000000000     0.00000000     0.00000000
 C      1   0   0     1.396304848296     0.00000000     0.00000000
 C      2   1   0     1.598449865846   114.93494864     0.00000000
 H      2   1   3     1.061064510843   127.04488834   161.48873593
 H      3   2   1     1.070589727557   107.14870540   115.28433242
 H      3   2   1     1.114369010659   108.85098562   355.53314695
 H      3   2   1     1.103487477905   112.28673475   234.85233008

---------------------------
INTERNAL COORDINATES (A.U.)
---------------------------
 O      0   0   0     0.000000000000     0.00000000     0.00000000
 C      1   0   0     2.638633762745     0.00000000     0.00000000
 C      2   1   0     3.020632485252   114.93494864     0.00000000
 H      2   1   3     2.005121335916   127.04488834   161.48873593
 H      3   2   1     2.023121386871   107.14870540   115.28433242
 H      3   2   1     2.105852242274   108.85098562   355.53314695
 H      3   2   1     2.085289125451   112.28673475   234.85233008

---------------------
BASIS SET INFORMATION
---------------------
There are 3 groups of distinct atoms

 Group   1 Type O   : 12s7p3d1f contracted to 6s4p3d1f pattern {621111/4111/111/1}
 Group   2 Type C   : 12s6p3d1f contracted to 6s3p3d1f pattern {621111/411/111/1}
 Group   3 Type H   : 5s3p1d contracted to 3s3p1d pattern {311/111/1}

Atom   0O    basis set group =>   1
Atom   1C    basis set group =>   2
Atom   2C    basis set group =>   2
Atom   3H    basis set group =>   3
Atom   4H    basis set group =>   3
Atom   5H    basis set group =>   3
Atom   6H    basis set group =>   3
---------------------------------
AUXILIARY/J BASIS SET INFORMATION
---------------------------------
There are 3 groups of distinct atoms

 Group   1 Type O   : 12s5p4d2f1g contracted to 6s4p3d1f1g pattern {711111/2111/211/2/1}
 Group   2 Type C   : 12s5p4d2f1g contracted to 6s4p3d1f1g pattern {711111/2111/211/2/1}
 Group   3 Type H   : 5s2p1d contracted to 3s1p1d pattern {311/2/1}

Atom   0O    basis set group =>   1
Atom   1C    basis set group =>   2
Atom   2C    basis set group =>   2
Atom   3H    basis set group =>   3
Atom   4H    basis set group =>   3
Atom   5H    basis set group =>   3
Atom   6H    basis set group =>   3
[1741043120.871491] [ohm:305265:0]        ib_iface.c:1059 UCX  ERROR ibv_create_cq(cqe=256) failed: Connection timed out
[1741043120.897948] [ohm:305239:0]        ib_iface.c:1059 UCX  ERROR ibv_create_cq(cqe=256) failed: Connection timed out
[1741043120.901902] [ohm:305253:0]        ib_iface.c:1059 UCX  ERROR ibv_create_cq(cqe=256) failed: Connection timed out
[1741043120.908626] [ohm:305249:0]        ib_iface.c:1059 UCX  ERROR ibv_create_cq(cqe=256) failed: Connection timed out
[1741043120.923277] [ohm:305250:0]        ib_iface.c:1059 UCX  ERROR ibv_create_cq(cqe=256) failed: Connection timed out
[1741043120.928874] [ohm:305246:0]        ib_iface.c:1059 UCX  ERROR ibv_create_cq(cqe=256) failed: Connection timed out
[1741043120.934111] [ohm:305244:0]        ib_iface.c:1059 UCX  ERROR ibv_create_cq(cqe=256) failed: Connection timed out
[1741043120.948227] [ohm:305247:0]        ib_iface.c:1059 UCX  ERROR ibv_create_cq(cqe=256) failed: Connection timed out
[1741043120.951332] [ohm:305240:0]        ib_iface.c:1059 UCX  ERROR ibv_create_cq(cqe=256) failed: Connection timed out
[1741043120.954312] [ohm:305242:0]        ib_iface.c:1059 UCX  ERROR ibv_create_cq(cqe=256) failed: Connection timed out
[1741043120.961023] [ohm:305261:0]        ib_iface.c:1059 UCX  ERROR ibv_create_cq(cqe=256) failed: Connection timed out
[1741043120.964700] [ohm:305243:0]        ib_iface.c:1059 UCX  ERROR ibv_create_cq(cqe=256) failed: Connection timed out
[1741043120.965535] [ohm:305257:0]        ib_iface.c:1059 UCX  ERROR ibv_create_cq(cqe=256) failed: Connection timed out
[1741043120.972233] [ohm:305288:0]        ib_iface.c:1059 UCX  ERROR ibv_create_cq(cqe=256) failed: Connection timed out
[1741043120.979372] [ohm:305241:0]        ib_iface.c:1059 UCX  ERROR ibv_create_cq(cqe=256) failed: Connection timed out
[1741043120.982174] [ohm:305258:0]        ib_iface.c:1059 UCX  ERROR ibv_create_cq(cqe=256) failed: Connection timed out
[1741043120.982281] [ohm:305251:0]        ib_iface.c:1059 UCX  ERROR ibv_create_cq(cqe=256) failed: Connection timed out
[1741043120.982365] [ohm:305262:0]        ib_iface.c:1059 UCX  ERROR ibv_create_cq(cqe=256) failed: Connection timed out
[1741043120.993210] [ohm:305252:0]        ib_iface.c:1059 UCX  ERROR ibv_create_cq(cqe=256) failed: Connection timed out
[1741043120.996420] [ohm:305245:0]        ib_iface.c:1059 UCX  ERROR ibv_create_cq(cqe=256) failed: Connection timed out
[1741043120.998730] [ohm:305260:0]        ib_iface.c:1059 UCX  ERROR ibv_create_cq(cqe=256) failed: Connection timed out
[1741043121.006069] [ohm:305248:0]        ib_iface.c:1059 UCX  ERROR ibv_create_cq(cqe=256) failed: Connection timed out
[1741043121.007760] [ohm:305255:0]        ib_iface.c:1059 UCX  ERROR ibv_create_cq(cqe=256) failed: Connection timed out
[1741043121.011620] [ohm:305254:0]        ib_iface.c:1059 UCX  ERROR ibv_create_cq(cqe=256) failed: Connection timed out
[1741043121.012035] [ohm:305282:0]        ib_iface.c:1059 UCX  ERROR ibv_create_cq(cqe=256) failed: Connection timed out
[1741043121.012251] [ohm:305311:0]        ib_iface.c:1059 UCX  ERROR ibv_create_cq(cqe=256) failed: Connection timed out
[1741043121.018222] [ohm:305256:0]        ib_iface.c:1059 UCX  ERROR ibv_create_cq(cqe=256) failed: Connection timed out
[1741043121.018356] [ohm:305294:0]        ib_iface.c:1059 UCX  ERROR ibv_create_cq(cqe=256) failed: Connection timed out
[1741043121.028794] [ohm:305259:0]        ib_iface.c:1059 UCX  ERROR ibv_create_cq(cqe=256) failed: Connection timed out
[1741043121.033045] [ohm:305289:0]        ib_iface.c:1059 UCX  ERROR ibv_create_cq(cqe=256) failed: Connection timed out
[1741043121.037927] [ohm:305275:0]        ib_iface.c:1059 UCX  ERROR ibv_create_cq(cqe=256) failed: Connection timed out
[1741043121.054499] [ohm:305279:0]        ib_iface.c:1059 UCX  ERROR ibv_create_cq(cqe=256) failed: Connection timed out


           ************************************************************
           *        Program running with 32 parallel MPI-processes    *
           *              working on a common directory               *
           ************************************************************
------------------------------------------------------------------------------
                             ORCA STARTUP CALCULATIONS
                           -- RI-GTO INTEGRALS CHOSEN --
------------------------------------------------------------------------------
------------------------------------------------------------------------------
                   ___                                                        
                  /   \      - P O W E R E D   B Y -                         
                 /     \                                                     
                 |  |  |   _    _      __       _____    __    __             
                 |  |  |  | |  | |    /  \     |  _  \  |  |  /  |          
                  \  \/   | |  | |   /    \    | | | |  |  | /  /          
                 / \  \   | |__| |  /  /\  \   | |_| |  |  |/  /          
                |  |  |   |  __  | /  /__\  \  |    /   |      \           
                |  |  |   | |  | | |   __   |  |    \   |  |\   \          
                \     /   | |  | | |  |  |  |  | |\  \  |  | \   \       
                 \___/    |_|  |_| |__|  |__|  |_| \__\ |__|  \__/        
                                                                              
                      - O R C A' S   B I G   F R I E N D -                    
                                      &                                       
                       - I N T E G R A L  F E E D E R -                       
                                                                              
 v1 FN, 2020, v2 2021, v3 2022-2024                                           
------------------------------------------------------------------------------


----------------------
SHARK INTEGRAL PACKAGE
----------------------

Number of atoms                             ...      7
Number of basis functions                   ...    182
Number of shells                            ...     68
Maximum angular momentum                    ...      3
Integral batch strategy                     ... SHARK/LIBINT Hybrid
RI-J (if used) integral strategy            ... SPLIT-RIJ (Revised 2003 algorithm where possible)
Printlevel                                  ...      1
Contraction scheme used                     ... SEGMENTED contraction
Prescreening option                         ... SCHWARTZ
   Thresh                                   ... 2.500e-11
   Tcut                                     ... 2.500e-12
   Tpresel                                  ... 2.500e-12 
Coulomb Range Separation                    ... NOT USED
Exchange Range Separation                   ... Long Range
   Mu parameter                             ... 3.000e-01
   Scaling (regular/separated)              ... 1.500e-01 8.500e-01
Multipole approximations                    ... NOT USED
Finite Nucleus Model                        ... NOT USED
CABS basis                                  ... NOT available
Auxiliary Coulomb fitting basis             ... AVAILABLE
   # of basis functions in Aux-J            ...    191
   # of shells in Aux-J                     ...     65
   Maximum angular momentum in Aux-J        ...      4
Auxiliary J/K fitting basis                 ... NOT available
Auxiliary Correlation fitting basis         ... NOT available
Auxiliary 'external' fitting basis          ... NOT available

Checking pre-screening integrals            ... done (  0.1 sec) Dimension = 68
Check shell pair data                       ... done (  0.1 sec)
Shell pair information
Shell pair cut-off parameter TPreSel        ...   2.5e-12
Total number of shell pairs                 ...      2346
Shell pairs after pre-screening             ...      2321
Total number of primitive shell pairs       ...      5434
Primitive shell pairs kept                  ...      4777
          la=0 lb=0:    453 shell pairs
          la=1 lb=0:    654 shell pairs
          la=1 lb=1:    253 shell pairs
          la=2 lb=0:    384 shell pairs
          la=2 lb=1:    285 shell pairs
          la=2 lb=2:     91 shell pairs
          la=3 lb=0:     90 shell pairs
          la=3 lb=1:     66 shell pairs
          la=3 lb=2:     39 shell pairs
          la=3 lb=3:      6 shell pairs

Calculating one electron integrals          ... done (  0.5 sec)
Calculating RI/J V-Matrix + Cholesky decomp.... done (  0.9 sec)
Calculating Nuclear repulsion               ... done (  0.0 sec) ENN=     65.192832557804 Eh

Diagonalization of the overlap matrix:
Smallest eigenvalue                        ... 2.183e-05
Time for diagonalization                   ...    0.040 sec
Threshold for overlap eigenvalues          ... 1.000e-07
Number of eigenvalues below threshold      ... 0
Time for construction of square roots      ...    0.113 sec
Total time needed                          ...    0.415 sec

-------------------
DFT GRID GENERATION
-------------------

General Integration Accuracy     IntAcc      ... 4.388
Radial Grid Type                 RadialGrid  ... OptM3 with GC (2021)
Angular Grid (max. ang.)         AngularGrid ... 4 (Lebedev-302)
Angular grid pruning method      GridPruning ... 4 (adaptive)
Weight generation scheme         WeightScheme... mBecke (2022)
Basis function cutoff            BFCut       ... 1.0000e-11
Integration weight cutoff        WCut        ... 1.0000e-14
Partially contracted basis set               ... off
Rotationally invariant grid construction     ... off
Angular grids for H and He will be reduced by one unit
Diffuse basis detected: some atoms will have their outermost
                        angular grid increased by 1.

Total number of grid points                  ...    33193
Total number of batches                      ...      523
Average number of points per batch           ...       63
Average number of grid points per atom       ...     4742

--------------------
COSX GRID GENERATION
--------------------

GRIDX 1
-------
General Integration Accuracy     IntAcc      ... 3.816
Radial Grid Type                 RadialGrid  ... OptM3 with GC (2021)
Angular Grid (max. ang.)         AngularGrid ... 1 (Lebedev-50)
Angular grid pruning method      GridPruning ... 4 (adaptive)
Weight generation scheme         WeightScheme... mBecke (2022)
Basis function cutoff            BFCut       ... 1.0000e-11
Integration weight cutoff        WCut        ... 1.0000e-14
Partially contracted basis set               ... on
Rotationally invariant grid construction     ... off
Angular grids for H and He will be reduced by one unit
Diffuse basis detected: some atoms will have their outermost
                        angular grid increased by 1.

Total number of grid points                  ...     4181
Total number of batches                      ...       36
Average number of points per batch           ...      116
Average number of grid points per atom       ...      597
UseSFitting                                  ... on

GRIDX 2
-------
General Integration Accuracy     IntAcc      ... 4.020
Radial Grid Type                 RadialGrid  ... OptM3 with GC (2021)
Angular Grid (max. ang.)         AngularGrid ... 2 (Lebedev-110)
Angular grid pruning method      GridPruning ... 4 (adaptive)
Weight generation scheme         WeightScheme... mBecke (2022)
Basis function cutoff            BFCut       ... 1.0000e-11
Integration weight cutoff        WCut        ... 1.0000e-14
Partially contracted basis set               ... on
Rotationally invariant grid construction     ... off
Angular grids for H and He will be reduced by one unit
Diffuse basis detected: some atoms will have their outermost
                        angular grid increased by 1.

Total number of grid points                  ...    10325
Total number of batches                      ...       84
Average number of points per batch           ...      122
Average number of grid points per atom       ...     1475
UseSFitting                                  ... on

GRIDX 3
-------
General Integration Accuracy     IntAcc      ... 4.338
Radial Grid Type                 RadialGrid  ... OptM3 with GC (2021)
Angular Grid (max. ang.)         AngularGrid ... 3 (Lebedev-194)
Angular grid pruning method      GridPruning ... 4 (adaptive)
Weight generation scheme         WeightScheme... mBecke (2022)
Basis function cutoff            BFCut       ... 1.0000e-11
Integration weight cutoff        WCut        ... 1.0000e-14
Partially contracted basis set               ... on
Rotationally invariant grid construction     ... off
Angular grids for H and He will be reduced by one unit
Diffuse basis detected: some atoms will have their outermost
                        angular grid increased by 1.

Total number of grid points                  ...    23196
Total number of batches                      ...      185
Average number of points per batch           ...      125
Average number of grid points per atom       ...     3314
UseSFitting                                  ... on
Initializing property integral containers    ... done (  0.0 sec)

SHARK setup successfully completed in   6.9 seconds

Maximum memory used throughout the entire STARTUP-calculation: 13.8 MB
[1741043129.608176] [ohm:305443:0]        ib_iface.c:1059 UCX  ERROR ibv_create_cq(cqe=256) failed: Connection timed out
[1741043129.608993] [ohm:305448:0]        ib_iface.c:1059 UCX  ERROR ibv_create_cq(cqe=256) failed: Connection timed out
[1741043129.614538] [ohm:305452:0]        ib_iface.c:1059 UCX  ERROR ibv_create_cq(cqe=256) failed: Connection timed out
[1741043129.617521] [ohm:305444:0]        ib_iface.c:1059 UCX  ERROR ibv_create_cq(cqe=256) failed: Connection timed out
[1741043129.618567] [ohm:305445:0]        ib_iface.c:1059 UCX  ERROR ibv_create_cq(cqe=256) failed: Connection timed out
[1741043129.631175] [ohm:305459:0]        ib_iface.c:1059 UCX  ERROR ibv_create_cq(cqe=256) failed: Connection timed out
[1741043129.642065] [ohm:305451:0]        ib_iface.c:1059 UCX  ERROR ibv_create_cq(cqe=256) failed: Connection timed out
[1741043129.652019] [ohm:305461:0]        ib_iface.c:1059 UCX  ERROR ibv_create_cq(cqe=256) failed: Connection timed out
[1741043129.684728] [ohm:305449:0]        ib_iface.c:1059 UCX  ERROR ibv_create_cq(cqe=256) failed: Connection timed out
[1741043129.701325] [ohm:305472:0]        ib_iface.c:1059 UCX  ERROR ibv_create_cq(cqe=256) failed: Connection timed out
[1741043129.707881] [ohm:305447:0]        ib_iface.c:1059 UCX  ERROR ibv_create_cq(cqe=256) failed: Connection timed out
[1741043129.708174] [ohm:305474:0]        ib_iface.c:1059 UCX  ERROR ibv_create_cq(cqe=256) failed: Connection timed out
[1741043129.709993] [ohm:305446:0]        ib_iface.c:1059 UCX  ERROR ibv_create_cq(cqe=256) failed: Connection timed out
[1741043129.722136] [ohm:305466:0]        ib_iface.c:1059 UCX  ERROR ibv_create_cq(cqe=256) failed: Connection timed out
[1741043129.726797] [ohm:305489:0]        ib_iface.c:1059 UCX  ERROR ibv_create_cq(cqe=256) failed: Connection timed out
[1741043129.730362] [ohm:305484:0]        ib_iface.c:1059 UCX  ERROR ibv_create_cq(cqe=256) failed: Connection timed out
[1741043129.733975] [ohm:305473:0]        ib_iface.c:1059 UCX  ERROR ibv_create_cq(cqe=256) failed: Connection timed out
[1741043129.736866] [ohm:305475:0]        ib_iface.c:1059 UCX  ERROR ibv_create_cq(cqe=256) failed: Connection timed out
[1741043129.739517] [ohm:305454:0]        ib_iface.c:1059 UCX  ERROR ibv_create_cq(cqe=256) failed: Connection timed out
[1741043129.742164] [ohm:305486:0]        ib_iface.c:1059 UCX  ERROR ibv_create_cq(cqe=256) failed: Connection timed out
[1741043129.743535] [ohm:305499:0]        ib_iface.c:1059 UCX  ERROR ibv_create_cq(cqe=256) failed: Connection timed out
[1741043129.749478] [ohm:305470:0]        ib_iface.c:1059 UCX  ERROR ibv_create_cq(cqe=256) failed: Connection timed out
[1741043129.756611] [ohm:305469:0]        ib_iface.c:1059 UCX  ERROR ibv_create_cq(cqe=256) failed: Connection timed out
[1741043129.773371] [ohm:305450:0]        ib_iface.c:1059 UCX  ERROR ibv_create_cq(cqe=256) failed: Connection timed out
[1741043129.774528] [ohm:305468:0]        ib_iface.c:1059 UCX  ERROR ibv_create_cq(cqe=256) failed: Connection timed out
[1741043129.775616] [ohm:305476:0]        ib_iface.c:1059 UCX  ERROR ibv_create_cq(cqe=256) failed: Connection timed out
[1741043129.778852] [ohm:305490:0]        ib_iface.c:1059 UCX  ERROR ibv_create_cq(cqe=256) failed: Connection timed out
[1741043129.783082] [ohm:305471:0]        ib_iface.c:1059 UCX  ERROR ibv_create_cq(cqe=256) failed: Connection timed out
[1741043129.783040] [ohm:305453:0]        ib_iface.c:1059 UCX  ERROR ibv_create_cq(cqe=256) failed: Connection timed out
[1741043129.785351] [ohm:305457:0]        ib_iface.c:1059 UCX  ERROR ibv_create_cq(cqe=256) failed: Connection timed out
[1741043129.787200] [ohm:305465:0]        ib_iface.c:1059 UCX  ERROR ibv_create_cq(cqe=256) failed: Connection timed out
[1741043129.794105] [ohm:305478:0]        ib_iface.c:1059 UCX  ERROR ibv_create_cq(cqe=256) failed: Connection timed out


           ************************************************************
           *        Program running with 32 parallel MPI-processes    *
           *              working on a common directory               *
           ************************************************************
-------------------------------------------------------------------------------
                                 ORCA GUESS
                   Start orbitals & Density for SCF / CASSCF
-------------------------------------------------------------------------------

------------
SCF SETTINGS
------------
Hamiltonian:
 Density Functional     Method          .... DFT(GTOs)
  Functional kind                       .... Exchange-Correlation
  Functional name                       .... wB97M-V exchange-correlation functional
  Functional family                     .... Hybrid MGGA
  Functional refs                              
    [ 0] N. Mardirossian and M. Head-Gordon.,  J. Chem. Phys. 144, 214110 (2016), doi: 10.1063/1.4952647
  Fraction of HF Exchange (short range) .... 0.1500
  Fraction of HF Exchange (long range)  .... 1.0000
  Range separation parameter mu         .... 0.3000
  Functional external parameters        .... 17
    Parameter  0 _cx00      =  8.500000e-01 : u^00 coefficient for exchange
    Parameter  1 _cx01      =  1.007000e+00 : u^01 coefficient for exchange
    Parameter  2 _cx10      =  2.590000e-01 : u^10 coefficient for exchange
    Parameter  3 _css00     =  4.430000e-01 : u^00 coefficient for same-spin correlation
    Parameter  4 _css04     = -1.437000e+00 : u^04 coefficient for same-spin correlation
    Parameter  5 _css10     = -4.535000e+00 : u^10 coefficient for same-spin correlation
    Parameter  6 _css20     = -3.390000e+00 : u^20 coefficient for same-spin correlation
    Parameter  7 _css43     =  4.278000e+00 : u^43 coefficient for same-spin correlation
    Parameter  8 _cos00     =  1.000000e+00 : u^00 coefficient for opposite-spin correlation
    Parameter  9 _cos10     =  1.358000e+00 : u^10 coefficient for opposite-spin correlation
    Parameter 10 _cos20     =  2.924000e+00 : u^20 coefficient for opposite-spin correlation
    Parameter 11 _cos21     = -8.812000e+00 : u^21 coefficient for opposite-spin correlation
    Parameter 12 _cos60     = -1.390000e+00 : u^60 coefficient for opposite-spin correlation
    Parameter 13 _cos61     =  9.142000e+00 : u^61 coefficient for opposite-spin correlation
    Parameter 14 _alpha     =  1.000000e+00 : fraction of HF exchange
    Parameter 15 _beta      = -8.500000e-01 : fraction of short-range exchange
    Parameter 16 _omega     =  3.000000e-01 : range-separation constant
 Long-range corrected/Screened/Range-Separated Hybrid DFT is turned on
   Amount of maximum screened exact exchange              ....  0.850000
   Range separation parameter mu (erf(mu*r12)/r12)        ....  0.300000
 RI-approximation to the Coulomb term is turned on
   Number of AuxJ basis functions       .... 191
   RIJ-COSX (HFX calculated with COS-X)).... on


General Settings:
 Integral files         IntName         .... orca
 Hartree-Fock type      HFTyp           .... UHF
 Total Charge           Charge          ....    0
 Multiplicity           Mult            ....    3
 Number of Electrons    NEL             ....   24
 Basis Dimension        Dim             ....  182
 Nuclear Repulsion      ENuc            ....     65.1928325578 Eh

Convergence Acceleration:
 AO-DIIS                CNVDIIS         .... on
   Start iteration      DIISMaxIt       ....    12
   Startup error        DIISStart       ....  0.200000
   # of expansion vecs  DIISMaxEq       ....     5
   Bias factor          DIISBfac        ....   1.050
   Max. coefficient     DIISMaxC        ....  10.000
 MO-DIIS                CNVKDIIS        .... off
 Trust-Rad. Augm. Hess. CNVTRAH         .... auto
   Auto Start mean grad. ratio tolernc. ....  1.125000
   Auto Start start iteration           ....    50
   Auto Start num. interpolation iter.  ....    10
   Max. Number of Micro iterations      ....    24
   Max. Number of Macro iterations      .... Maxiter - #DIIS iter
   Number of Davidson start vectors     ....     2
   Converg. threshold    (grad. norm)   ....   1.000e-05
   Grad. Scal. Fac. for Micro threshold ....   0.100
   Minimum threshold for Micro iter.    ....   1.000e-02
   NR start threshold (gradient norm)   ....   1.000e-04
   Initial trust radius                 ....   0.400
   Minimum AH scaling param. (alpha)    ....   1.000
   Maximum AH scaling param. (alpha)    .... 1000.000
   Quad. conv. algorithm                .... NR
   White noise on init. David. guess    .... on
   Maximum white noise                  ....   0.010
   Pseudo random numbers                .... off
   Inactive MOs                         .... canonical
   Orbital update algorithm             .... Taylor
   Preconditioner                       .... Diag
   Full preconditioner red. dimension   ....   250
 SOSCF                  CNVSOSCF        .... on
   Start iteration      SOSCFMaxIt      ....   150
   Startup grad/error   SOSCFStart      ....  0.003300
   Hessian update       SOSCFHessUp     .... L-BFGS
 Level Shifting         CNVShift        .... on
   Level shift para.    LevelShift      ....    0.2500
   Turn off err/grad.   ShiftErr        ....    0.0010
 Zerner damping         CNVZerner       .... off
 Static damping         CNVDamp         .... on
   Fraction old density DampFac         ....    0.7000
   Max. Damping (<1)    DampMax         ....    0.9800
   Min. Damping (>=0)   DampMin         ....    0.0000
   Turn off err/grad.   DampErr         ....    0.1000

SCF Procedure:
 Maximum # iterations   MaxIter         ....   125
 SCF integral mode      SCFMode         .... Direct
   Integral package                     .... SHARK and LIBINT hybrid scheme
 Reset frequency        DirectResetFreq ....    20
 Integral Threshold     Thresh          ....  2.500e-11 Eh
 Primitive CutOff       TCut            ....  2.500e-12 Eh

Convergence Tolerance:
 Convergence Check Mode ConvCheckMode   .... Total+1el-Energy
 Convergence forced     ConvForced      .... 1
 Energy Change          TolE            ....  1.000e-08 Eh
 1-El. energy change                    ....  1.000e-05 Eh
 Orbital Gradient       TolG            ....  1.000e-05
 Orbital Rotation angle TolX            ....  1.000e-05
 DIIS Error             TolErr          ....  5.000e-07

------------------------------
INITIAL GUESS: MODEL POTENTIAL
------------------------------
Loading Hartree-Fock densities                     ... done
Calculating cut-offs                               ... done
Initializing the effective Hamiltonian             ... done
Setting up the integral package (SHARK)            ... done
Starting the Coulomb interaction                   ... done (   0.9 sec)
Making the grid                                    ... done (   1.1 sec)
Mapping shells                                     ... done
Starting the XC term evaluation                    ... done (   0.1 sec)
  promolecular density results
     # of electrons  =     23.996536167
     EX              =    -19.425631548
     EC              =     -0.758897383
     EX+EC           =    -20.184528931
Transforming the Hamiltonian                       ... done (   0.8 sec)
Diagonalizing the Hamiltonian                      ... done (   0.5 sec)
Back transforming the eigenvectors                 ... done (   0.1 sec)
Now organizing SCF variables                       ... done
                      ------------------
                      INITIAL GUESS DONE (   5.1 sec)
                      ------------------
             **** ENERGY FILE WAS UPDATED (orca.en.tmp) ****
Finished Guess after   8.4 sec
Maximum memory used throughout the entire GUESS-calculation: 9.6 MB
[1741043138.493346] [ohm:305657:0]        ib_iface.c:1059 UCX  ERROR ibv_create_cq(cqe=256) failed: Connection timed out
[1741043138.530707] [ohm:305659:0]        ib_iface.c:1059 UCX  ERROR ibv_create_cq(cqe=256) failed: Connection timed out
[1741043138.553252] [ohm:305671:0]        ib_iface.c:1059 UCX  ERROR ibv_create_cq(cqe=256) failed: Connection timed out
[1741043138.569818] [ohm:305660:0]        ib_iface.c:1059 UCX  ERROR ibv_create_cq(cqe=256) failed: Connection timed out
[1741043138.570880] [ohm:305662:0]        ib_iface.c:1059 UCX  ERROR ibv_create_cq(cqe=256) failed: Connection timed out
[1741043138.571901] [ohm:305658:0]        ib_iface.c:1059 UCX  ERROR ibv_create_cq(cqe=256) failed: Connection timed out
[1741043138.592468] [ohm:305663:0]        ib_iface.c:1059 UCX  ERROR ibv_create_cq(cqe=256) failed: Connection timed out
[1741043138.593948] [ohm:305667:0]        ib_iface.c:1059 UCX  ERROR ibv_create_cq(cqe=256) failed: Connection timed out
[1741043138.595004] [ohm:305661:0]        ib_iface.c:1059 UCX  ERROR ibv_create_cq(cqe=256) failed: Connection timed out
[1741043138.604786] [ohm:305689:0]        ib_iface.c:1059 UCX  ERROR ibv_create_cq(cqe=256) failed: Connection timed out
[1741043138.610914] [ohm:305666:0]        ib_iface.c:1059 UCX  ERROR ibv_create_cq(cqe=256) failed: Connection timed out
[1741043138.617630] [ohm:305687:0]        ib_iface.c:1059 UCX  ERROR ibv_create_cq(cqe=256) failed: Connection timed out
[1741043138.620838] [ohm:305682:0]        ib_iface.c:1059 UCX  ERROR ibv_create_cq(cqe=256) failed: Connection timed out
[1741043138.624135] [ohm:305694:0]        ib_iface.c:1059 UCX  ERROR ibv_create_cq(cqe=256) failed: Connection timed out
[1741043138.626791] [ohm:305656:0]        ib_iface.c:1059 UCX  ERROR ibv_create_cq(cqe=256) failed: Connection timed out
[1741043138.627217] [ohm:305672:0]        ib_iface.c:1059 UCX  ERROR ibv_create_cq(cqe=256) failed: Connection timed out
[1741043138.628272] [ohm:305691:0]        ib_iface.c:1059 UCX  ERROR ibv_create_cq(cqe=256) failed: Connection timed out
[1741043138.633310] [ohm:305683:0]        ib_iface.c:1059 UCX  ERROR ibv_create_cq(cqe=256) failed: Connection timed out
[1741043138.638648] [ohm:305693:0]        ib_iface.c:1059 UCX  ERROR ibv_create_cq(cqe=256) failed: Connection timed out
[1741043138.639368] [ohm:305664:0]        ib_iface.c:1059 UCX  ERROR ibv_create_cq(cqe=256) failed: Connection timed out
[1741043138.640831] [ohm:305679:0]        ib_iface.c:1059 UCX  ERROR ibv_create_cq(cqe=256) failed: Connection timed out
[1741043138.647246] [ohm:305668:0]        ib_iface.c:1059 UCX  ERROR ibv_create_cq(cqe=256) failed: Connection timed out
[1741043138.650759] [ohm:305675:0]        ib_iface.c:1059 UCX  ERROR ibv_create_cq(cqe=256) failed: Connection timed out
[1741043138.651892] [ohm:305701:0]        ib_iface.c:1059 UCX  ERROR ibv_create_cq(cqe=256) failed: Connection timed out
[1741043138.652630] [ohm:305686:0]        ib_iface.c:1059 UCX  ERROR ibv_create_cq(cqe=256) failed: Connection timed out
[1741043138.654847] [ohm:305677:0]        ib_iface.c:1059 UCX  ERROR ibv_create_cq(cqe=256) failed: Connection timed out
[1741043138.671543] [ohm:305665:0]        ib_iface.c:1059 UCX  ERROR ibv_create_cq(cqe=256) failed: Connection timed out
[1741043138.682782] [ohm:305717:0]        ib_iface.c:1059 UCX  ERROR ibv_create_cq(cqe=256) failed: Connection timed out
[1741043138.685770] [ohm:305690:0]        ib_iface.c:1059 UCX  ERROR ibv_create_cq(cqe=256) failed: Connection timed out
[1741043138.689041] [ohm:305699:0]        ib_iface.c:1059 UCX  ERROR ibv_create_cq(cqe=256) failed: Connection timed out
[1741043138.692631] [ohm:305695:0]        ib_iface.c:1059 UCX  ERROR ibv_create_cq(cqe=256) failed: Connection timed out
[1741043138.694537] [ohm:305688:0]        ib_iface.c:1059 UCX  ERROR ibv_create_cq(cqe=256) failed: Connection timed out


           ************************************************************
           *        Program running with 32 parallel MPI-processes    *
           *              working on a common directory               *
           ************************************************************

-------------------------------------------------------------------------------------------
                                      ORCA LEAN-SCF
                              memory conserving SCF solver
-------------------------------------------------------------------------------------------

----------------------------------------D-I-I-S--------------------------------------------
Iteration    Energy (Eh)           Delta-E    RMSDP     MaxDP     DIISErr   Damp  Time(sec)
-------------------------------------------------------------------------------------------
               ***  Starting incremental Fock matrix formation  ***
    1    -153.7239347703743988     0.00e+00  7.82e-04  2.60e-02  7.30e-02  0.700   0.3
    2    -153.7463790380784872    -2.24e-02  7.02e-04  2.40e-02  4.35e-02  0.700   0.3
                               ***Turning on AO-DIIS***
    3    -153.7589058570594034    -1.25e-02  5.58e-04  2.06e-02  2.24e-02  0.700   0.5
    4    -153.7667266551682133    -7.82e-03  1.35e-03  4.76e-02  1.53e-02  0.000   0.3
    5    -153.7849312747330828    -1.82e-02  1.21e-04  4.11e-03  5.30e-03  0.000   0.3
    6    -153.7854329657540688    -5.02e-04  7.67e-05  2.43e-03  3.86e-03  0.000   0.2
                              *** Initializing SOSCF ***
---------------------------------------S-O-S-C-F--------------------------------------
Iteration    Energy (Eh)           Delta-E    RMSDP     MaxDP     MaxGrad    Time(sec)
--------------------------------------------------------------------------------------
    7    -153.7857320913382182    -2.99e-04  5.92e-05  1.71e-03  2.51e-03     0.3
               *** Restarting incremental Fock matrix formation ***
    8    -153.7858761437641419    -1.44e-04  3.03e-05  7.67e-04  2.95e-03     0.7
    9    -153.7859142261435750    -3.81e-05  4.22e-05  1.19e-03  1.36e-03     0.3
   10    -153.7859407178269180    -2.65e-05  1.53e-05  5.33e-04  2.94e-04     0.3
   11    -153.7859419382096462    -1.22e-06  7.11e-06  2.33e-04  9.06e-05     0.2
   12    -153.7859421582766686    -2.20e-07  1.83e-06  6.25e-05  4.72e-05     0.5
   13    -153.7859422113214691    -5.30e-08  1.54e-06  4.38e-05  3.21e-05     0.2
   14    -153.7859422294687306    -1.81e-08  6.36e-07  2.42e-05  1.07e-05     0.2
   15    -153.7859422322971454    -2.83e-09  4.05e-07  1.64e-05  5.87e-06     0.2
                 **** Energy Check signals convergence ****

               *****************************************************
               *                     SUCCESS                       *
               *           SCF CONVERGED AFTER  15 CYCLES          *
               *****************************************************

Recomputing exchange energy using gridx3       ... done (    0.264 sec)
Old exchange energy                            :     -6.179952298 Eh
New exchange energy                            :     -6.179959850 Eh
Exchange energy change after final integration :     -0.000007552 Eh
Total energy after final integration           :   -153.785949784 Eh
             **** ENERGY FILE WAS UPDATED (orca.en.tmp) ****

----------------
TOTAL SCF ENERGY
----------------

Total Energy       :       -153.78594978389975 Eh           -4184.72844 eV

Components:
Nuclear Repulsion  :         65.19283255780441 Eh            1773.98716 eV
Electronic Energy  :       -218.97877479010154 Eh           -5958.71540 eV
One Electron Energy:       -336.95268503972557 Eh           -9168.94870 eV
Two Electron Energy:        117.97391024962403 Eh            3210.23330 eV

Virial components:
Potential Energy   :       -306.79507061527426 Eh           -8348.31829 eV
Kinetic Energy     :        153.00912083137450 Eh            4163.58985 eV
Virial Ratio       :          2.00507701075795

DFT components:
N(Alpha)           :       12.999987279930 electrons
N(Beta)            :       10.999985535244 electrons
N(Total)           :       23.999972815174 electrons
E(XC)              :      -14.640833496864 Eh       

---------------
SCF CONVERGENCE
---------------

  Last Energy change         ...    2.8284e-09  Tolerance :   1.0000e-08
  Last MAX-Density change    ...    1.6366e-05  Tolerance :   1.0000e-07
  Last RMS-Density change    ...    4.0518e-07  Tolerance :   5.0000e-09
  Last DIIS Error            ...    2.5107e-03  Tolerance :   5.0000e-07
  Last Orbital Gradient      ...    5.8654e-06  Tolerance :   1.0000e-05
  Last Orbital Rotation      ...    1.9501e-05  Tolerance :   1.0000e-05


----------------------
UHF SPIN CONTAMINATION
----------------------

Warning: in a DFT calculation there is little theoretical justification to 
         calculate <S**2> as in Hartree-Fock theory. We will do it anyways
         but you should keep in mind that the values have only limited relevance

Expectation value of <S**2>     :     2.005938
Ideal value S*(S+1) for S=1.0   :     2.000000
Deviation                       :     0.005938

----------------
ORBITAL ENERGIES
----------------
                 SPIN UP ORBITALS
  NO   OCC          E(Eh)            E(eV) 
   0   1.0000     -19.427028      -528.6363 
   1   1.0000     -10.407668      -283.2070 
   2   1.0000     -10.371092      -282.2118 
   3   1.0000      -1.173755       -31.9395 
   4   1.0000      -0.867690       -23.6110 
   5   1.0000      -0.729778       -19.8583 
   6   1.0000      -0.607746       -16.5376 
   7   1.0000      -0.557656       -15.1746 
   8   1.0000      -0.550120       -14.9695 
   9   1.0000      -0.509627       -13.8677 
  10   1.0000      -0.500273       -13.6131 
  11   1.0000      -0.452925       -12.3247 
  12   1.0000      -0.273312        -7.4372 
  13   0.0000       0.041289         1.1235 
  14   0.0000       0.060322         1.6415 
  15   0.0000       0.079443         2.1617 
  16   0.0000       0.092188         2.5086 
  17   0.0000       0.106052         2.8858 
  18   0.0000       0.126398         3.4395 
  19   0.0000       0.128687         3.5017 
  20   0.0000       0.135501         3.6872 
  21   0.0000       0.172873         4.7041 
  22   0.0000       0.177666         4.8345 
  23   0.0000       0.193594         5.2680 

                 SPIN DOWN ORBITALS
  NO   OCC          E(Eh)            E(eV) 
   0   1.0000     -19.398589      -527.8624 
   1   1.0000     -10.395384      -282.8728 
   2   1.0000     -10.369845      -282.1778 
   3   1.0000      -1.104072       -30.0433 
   4   1.0000      -0.850420       -23.1411 
   5   1.0000      -0.694618       -18.9015 
   6   1.0000      -0.565917       -15.3994 
   7   1.0000      -0.528874       -14.3914 
   8   1.0000      -0.503814       -13.7095 
   9   1.0000      -0.489698       -13.3254 
  10   1.0000      -0.446914       -12.1611 
  11   0.0000      -0.076580        -2.0839 
  12   0.0000       0.039770         1.0822 
  13   0.0000       0.050240         1.3671 
  14   0.0000       0.061472         1.6727 
  15   0.0000       0.080899         2.2014 
  16   0.0000       0.093959         2.5568 
  17   0.0000       0.109151         2.9702 
  18   0.0000       0.127664         3.4739 
  19   0.0000       0.129259         3.5173 
  20   0.0000       0.135912         3.6984 
  21   0.0000       0.174421         4.7462 
*Only the first 10 virtual orbitals were printed.

                    ********************************
                    * MULLIKEN POPULATION ANALYSIS *
                    ********************************

--------------------------------------------
MULLIKEN ATOMIC CHARGES AND SPIN POPULATIONS
--------------------------------------------
   0 O :   -0.275814    1.025037
   1 C :   -0.070805    0.830815
   2 C :   -0.595036    0.054792
   3 H :    0.285983    0.036620
   4 H :    0.212275    0.024431
   5 H :    0.236981    0.004528
   6 H :    0.206416    0.023777
Sum of atomic charges         :    0.0000000
Sum of atomic spin populations:    2.0000000

-----------------------------------------------------
MULLIKEN REDUCED ORBITAL CHARGES AND SPIN POPULATIONS
-----------------------------------------------------
CHARGE
  0 O s       :     3.991041  s :     3.991041
      pz      :     1.499447  p :     4.248753
      px      :     1.364573
      py      :     1.384733
      dz2     :     0.005226  d :     0.034798
      dxz     :     0.002239
      dyz     :     0.010440
      dx2y2   :     0.007505
      dxy     :     0.009388
      f0      :     0.000123  f :     0.001222
      f+1     :     0.000020
      f-1     :     0.000249
      f+2     :     0.000274
      f-2     :     0.000101
      f+3     :     0.000221
      f-3     :     0.000233

  1 C s       :     3.405663  s :     3.405663
      pz      :     0.941313  p :     2.600948
      px      :     1.001283
      py      :     0.658352
      dz2     :     0.008463  d :     0.054291
      dxz     :     0.006142
      dyz     :     0.018242
      dx2y2   :    -0.002633
      dxy     :     0.024077
      f0      :     0.000788  f :     0.009902
      f+1     :     0.000420
      f-1     :     0.002113
      f+2     :     0.001781
      f-2     :     0.001381
      f+3     :     0.001873
      f-3     :     0.001545

  2 C s       :     3.280780  s :     3.280780
      pz      :     1.100713  p :     3.233705
      px      :     1.043212
      py      :     1.089779
      dz2     :     0.001261  d :     0.078133
      dxz     :     0.017667
      dyz     :     0.026200
      dx2y2   :     0.008495
      dxy     :     0.024510
      f0      :     0.000125  f :     0.002419
      f+1     :     0.000305
      f-1     :     0.000252
      f+2     :     0.000252
      f-2     :     0.000914
      f+3     :     0.000262
      f-3     :     0.000308

  3 H s       :     0.677065  s :     0.677065
      pz      :     0.005176  p :     0.034566
      px      :     0.023295
      py      :     0.006095
      dz2     :     0.000695  d :     0.002387
      dxz     :     0.000471
      dyz     :     0.000377
      dx2y2   :     0.000476
      dxy     :     0.000369

  4 H s       :     0.735832  s :     0.735832
      pz      :     0.014460  p :     0.049688
      px      :     0.008257
      py      :     0.026971
      dz2     :     0.000319  d :     0.002204
      dxz     :     0.000328
      dyz     :     0.000427
      dx2y2   :     0.000628
      dxy     :     0.000502

  5 H s       :     0.724525  s :     0.724525
      pz      :     0.017369  p :     0.036353
      px      :     0.015412
      py      :     0.003573
      dz2     :     0.000525  d :     0.002141
      dxz     :     0.000468
      dyz     :     0.000458
      dx2y2   :     0.000355
      dxy     :     0.000335

  6 H s       :     0.740501  s :     0.740501
      pz      :     0.010718  p :     0.050944
      px      :     0.017505
      py      :     0.022722
      dz2     :     0.000513  d :     0.002139
      dxz     :     0.000464
      dyz     :     0.000371
      dx2y2   :     0.000391
      dxy     :     0.000401


SPIN
  0 O s       :    -0.007074  s :    -0.007074
      pz      :     0.372392  p :     1.027628
      px      :     0.587700
      py      :     0.067535
      dz2     :     0.001052  d :     0.004589
      dxz     :     0.000483
      dyz     :     0.002177
      dx2y2   :     0.001161
      dxy     :    -0.000284
      f0      :    -0.000018  f :    -0.000106
      f+1     :     0.000015
      f-1     :     0.000026
      f+2     :    -0.000066
      f-2     :     0.000005
      f+3     :     0.000005
      f-3     :    -0.000074

  1 C s       :     0.015768  s :     0.015768
      pz      :     0.390327  p :     0.770307
      px      :     0.323331
      py      :     0.056650
      dz2     :     0.009542  d :     0.044430
      dxz     :    -0.001190
      dyz     :     0.010117
      dx2y2   :     0.001048
      dxy     :     0.024912
      f0      :    -0.000227  f :     0.000311
      f+1     :    -0.000050
      f-1     :     0.000229
      f+2     :     0.000051
      f-2     :    -0.000027
      f+3     :     0.000368
      f-3     :    -0.000034

  2 C s       :     0.033756  s :     0.033756
      pz      :    -0.003102  p :     0.013541
      px      :    -0.001724
      py      :     0.018367
      dz2     :    -0.003180  d :     0.006771
      dxz     :     0.000105
      dyz     :     0.008024
      dx2y2   :    -0.001675
      dxy     :     0.003496
      f0      :     0.000033  f :     0.000725
      f+1     :     0.000182
      f-1     :     0.000183
      f+2     :     0.000108
      f-2     :     0.000041
      f+3     :     0.000028
      f-3     :     0.000150

  3 H s       :     0.006193  s :     0.006193
      pz      :     0.004993  p :     0.029468
      px      :     0.020946
      py      :     0.003530
      dz2     :     0.000610  d :     0.000958
      dxz     :     0.000022
      dyz     :     0.000031
      dx2y2   :     0.000135
      dxy     :     0.000160

  4 H s       :     0.020654  s :     0.020654
      pz      :     0.000462  p :     0.003664
      px      :     0.003635
      py      :    -0.000433
      dz2     :     0.000003  d :     0.000114
      dxz     :     0.000009
      dyz     :     0.000023
      dx2y2   :     0.000039
      dxy     :     0.000040

  5 H s       :     0.006196  s :     0.006196
      pz      :    -0.001361  p :    -0.001726
      px      :    -0.000768
      py      :     0.000402
      dz2     :     0.000013  d :     0.000059
      dxz     :     0.000019
      dyz     :    -0.000003
      dx2y2   :     0.000025
      dxy     :     0.000004

  6 H s       :     0.022074  s :     0.022074
      pz      :     0.000929  p :     0.001601
      px      :     0.001306
      py      :    -0.000634
      dz2     :     0.000038  d :     0.000102
      dxz     :     0.000018
      dyz     :     0.000019
      dx2y2   :     0.000008
      dxy     :     0.000020



                     *******************************
                     * LOEWDIN POPULATION ANALYSIS *
                     *******************************

-------------------------------------------
LOEWDIN ATOMIC CHARGES AND SPIN POPULATIONS
-------------------------------------------
   0 O :    0.051084    1.050636
   1 C :   -0.074302    0.679257
   2 C :    0.151064    0.124589
   3 H :   -0.050274    0.104524
   4 H :   -0.050079    0.021631
   5 H :   -0.008307   -0.001099
   6 H :   -0.019187    0.020461

----------------------------------------------------
LOEWDIN REDUCED ORBITAL CHARGES AND SPIN POPULATIONS
----------------------------------------------------
CHARGE
  0 O s       :     3.517579  s :     3.517579
      pz      :     1.428393  p :     4.185196
      px      :     1.279194
      py      :     1.477610
      dz2     :     0.034960  d :     0.242507
      dxz     :     0.013482
      dyz     :     0.071832
      dx2y2   :     0.054790
      dxy     :     0.067443
      f0      :     0.000299  f :     0.003633
      f+1     :     0.000031
      f-1     :     0.000844
      f+2     :     0.000723
      f-2     :     0.000348
      f+3     :     0.000756
      f-3     :     0.000633

  1 C s       :     2.729012  s :     2.729012
      pz      :     0.880769  p :     2.574883
      px      :     0.895613
      py      :     0.798501
      dz2     :     0.094826  d :     0.708050
      dxz     :     0.086485
      dyz     :     0.181171
      dx2y2   :     0.184679
      dxy     :     0.160889
      f0      :     0.006042  f :     0.062356
      f+1     :     0.002272
      f-1     :     0.012216
      f+2     :     0.012083
      f-2     :     0.007289
      f+3     :     0.011334
      f-3     :     0.011120

  2 C s       :     2.665780  s :     2.665780
      pz      :     0.918105  p :     2.713260
      px      :     0.904227
      py      :     0.890928
      dz2     :     0.045507  d :     0.443087
      dxz     :     0.112816
      dyz     :     0.103466
      dx2y2   :     0.069361
      dxy     :     0.111937
      f0      :     0.004080  f :     0.026808
      f+1     :     0.003291
      f-1     :     0.003315
      f+2     :     0.002223
      f-2     :     0.005295
      f+3     :     0.004476
      f-3     :     0.004128

  3 H s       :     0.717435  s :     0.717435
      pz      :     0.109460  p :     0.298268
      px      :     0.116100
      py      :     0.072708
      dz2     :     0.008891  d :     0.034571
      dxz     :     0.007621
      dyz     :     0.005539
      dx2y2   :     0.005568
      dxy     :     0.006952

  4 H s       :     0.713369  s :     0.713369
      pz      :     0.094350  p :     0.304192
      px      :     0.097234
      py      :     0.112608
      dz2     :     0.004758  d :     0.032518
      dxz     :     0.004889
      dyz     :     0.007133
      dx2y2   :     0.007987
      dxy     :     0.007751

  5 H s       :     0.700456  s :     0.700456
      pz      :     0.102745  p :     0.280213
      px      :     0.085751
      py      :     0.091717
      dz2     :     0.007048  d :     0.027637
      dxz     :     0.006090
      dyz     :     0.006165
      dx2y2   :     0.003826
      dxy     :     0.004509

  6 H s       :     0.710404  s :     0.710404
      pz      :     0.096669  p :     0.280162
      px      :     0.099704
      py      :     0.083789
      dz2     :     0.005767  d :     0.028620
      dxz     :     0.006955
      dyz     :     0.005091
      dx2y2   :     0.005358
      dxy     :     0.005449


SPIN
  0 O s       :     0.011076  s :     0.011076
      pz      :     0.355367  p :     0.961680
      px      :     0.545700
      py      :     0.060613
      dz2     :     0.016109  d :     0.076718
      dxz     :     0.005705
      dyz     :     0.023476
      dx2y2   :     0.006009
      dxy     :     0.025418
      f0      :     0.000008  f :     0.001162
      f+1     :     0.000020
      f-1     :     0.000506
      f+2     :     0.000064
      f-2     :     0.000197
      f+3     :     0.000325
      f-3     :     0.000042

  1 C s       :     0.013222  s :     0.013222
      pz      :     0.291796  p :     0.548479
      px      :     0.220902
      py      :     0.035781
      dz2     :     0.023446  d :     0.104847
      dxz     :     0.005213
      dyz     :     0.023699
      dx2y2   :     0.000225
      dxy     :     0.052263
      f0      :    -0.000068  f :     0.012709
      f+1     :     0.000508
      f-1     :     0.003896
      f+2     :     0.002100
      f-2     :     0.001645
      f+3     :     0.003688
      f-3     :     0.000941

  2 C s       :     0.005327  s :     0.005327
      pz      :     0.005007  p :     0.039650
      px      :     0.007996
      py      :     0.026647
      dz2     :     0.017240  d :     0.075106
      dxz     :     0.001211
      dyz     :     0.024520
      dx2y2   :     0.023721
      dxy     :     0.008414
      f0      :     0.000339  f :     0.004506
      f+1     :     0.001020
      f-1     :     0.001061
      f+2     :     0.000643
      f-2     :     0.000228
      f+3     :     0.000350
      f-3     :     0.000865

  3 H s       :     0.013741  s :     0.013741
      pz      :     0.039536  p :     0.079717
      px      :     0.033026
      py      :     0.007156
      dz2     :     0.007064  d :     0.011066
      dxz     :     0.000562
      dyz     :     0.000500
      dx2y2   :     0.000923
      dxy     :     0.002017

  4 H s       :     0.014237  s :     0.014237
      pz      :     0.001230  p :     0.006731
      px      :     0.001354
      py      :     0.004147
      dz2     :    -0.000003  d :     0.000663
      dxz     :     0.000027
      dyz     :     0.000093
      dx2y2   :     0.000387
      dxy     :     0.000159

  5 H s       :    -0.001020  s :    -0.001020
      pz      :     0.000537  p :    -0.000794
      px      :    -0.000272
      py      :    -0.001059
      dz2     :     0.000180  d :     0.000715
      dxz     :     0.000235
      dyz     :     0.000006
      dx2y2   :     0.000261
      dxy     :     0.000033

  6 H s       :     0.014851  s :     0.014851
      pz      :     0.000166  p :     0.005138
      px      :     0.002009
      py      :     0.002963
      dz2     :     0.000201  d :     0.000472
      dxz     :     0.000025
      dyz     :     0.000091
      dx2y2   :     0.000012
      dxy     :     0.000143



                      *****************************
                      * MAYER POPULATION ANALYSIS *
                      *****************************

  NA   - Mulliken gross atomic population
  ZA   - Total nuclear charge
  QA   - Mulliken gross atomic charge
  VA   - Mayer's total valence
  BVA  - Mayer's bonded valence
  FA   - Mayer's free valence

  ATOM       NA         ZA         QA         VA         BVA        FA
  0 O      8.2758     8.0000    -0.2758     2.0333     1.2051     0.8281
  1 C      6.0708     6.0000    -0.0708     3.3175     2.6777     0.6398
  2 C      6.5950     6.0000    -0.5950     3.6946     3.6902     0.0044
  3 H      0.7140     1.0000     0.2860     0.9302     0.9286     0.0016
  4 H      0.7877     1.0000     0.2123     1.0220     1.0212     0.0007
  5 H      0.7630     1.0000     0.2370     0.9908     0.9907     0.0001
  6 H      0.7936     1.0000     0.2064     1.0300     1.0295     0.0005

  Mayer bond orders larger than 0.100000
B(  0-O ,  1-C ) :   1.0765 B(  1-C ,  2-C ) :   0.6902 B(  1-C ,  3-H ) :   0.9436 
B(  2-C ,  4-H ) :   0.9825 B(  2-C ,  5-H ) :   0.9467 B(  2-C ,  6-H ) :   1.0013 


-------
TIMINGS
-------

Total SCF time: 0 days 0 hours 0 min 11 sec 

Total time                  ....      11.019 sec
Sum of individual times     ....      11.000 sec  ( 99.8%)

SCF preparation             ....       5.860 sec  ( 53.2%)
Fock matrix formation       ....       3.756 sec  ( 34.1%)
  Startup                   ....       0.038 sec  (  1.0% of F)
  Split-RI-J                ....       0.226 sec  (  6.0% of F)
  Chain of spheres X        ....       2.124 sec  ( 56.5% of F)
  XC integration            ....       1.216 sec  ( 32.4% of F)
    XC Preparation          ....       0.000 sec  (  0.0% of XC)
    Basis function eval.    ....       0.062 sec  (  5.1% of XC)
    Density eval.           ....       0.268 sec  ( 22.0% of XC)
    XC-Functional eval.     ....       0.021 sec  (  1.7% of XC)
    XC-Potential eval.      ....       0.396 sec  ( 32.6% of XC)
Diagonalization             ....       0.000 sec  (  0.0%)
Density matrix formation    ....       0.489 sec  (  4.4%)
Total Energy calculation    ....       0.075 sec  (  0.7%)
Population analysis         ....       0.033 sec  (  0.3%)
Orbital Transformation      ....       0.063 sec  (  0.6%)
Orbital Orthonormalization  ....       0.000 sec  (  0.0%)
DIIS solution               ....       0.544 sec  (  4.9%)
SOSCF solution              ....       0.173 sec  (  1.6%)
Finished LeanSCF after  11.0 sec

Maximum memory used throughout the entire LEANSCF-calculation: 14.6 MB
[1741043150.000074] [ohm:305876:0]        ib_iface.c:1059 UCX  ERROR ibv_create_cq(cqe=256) failed: Connection timed out
[1741043150.006343] [ohm:305878:0]        ib_iface.c:1059 UCX  ERROR ibv_create_cq(cqe=256) failed: Connection timed out
[1741043150.026686] [ohm:305873:0]        ib_iface.c:1059 UCX  ERROR ibv_create_cq(cqe=256) failed: Connection timed out
[1741043150.041364] [ohm:305881:0]        ib_iface.c:1059 UCX  ERROR ibv_create_cq(cqe=256) failed: Connection timed out
[1741043150.042160] [ohm:305884:0]        ib_iface.c:1059 UCX  ERROR ibv_create_cq(cqe=256) failed: Connection timed out
[1741043150.072471] [ohm:305895:0]        ib_iface.c:1059 UCX  ERROR ibv_create_cq(cqe=256) failed: Connection timed out
[1741043150.075421] [ohm:305880:0]        ib_iface.c:1059 UCX  ERROR ibv_create_cq(cqe=256) failed: Connection timed out
[1741043150.076446] [ohm:305882:0]        ib_iface.c:1059 UCX  ERROR ibv_create_cq(cqe=256) failed: Connection timed out
[1741043150.079067] [ohm:305894:0]        ib_iface.c:1059 UCX  ERROR ibv_create_cq(cqe=256) failed: Connection timed out
[1741043150.083179] [ohm:305890:0]        ib_iface.c:1059 UCX  ERROR ibv_create_cq(cqe=256) failed: Connection timed out
[1741043150.086169] [ohm:305874:0]        ib_iface.c:1059 UCX  ERROR ibv_create_cq(cqe=256) failed: Connection timed out
[1741043150.096572] [ohm:305886:0]        ib_iface.c:1059 UCX  ERROR ibv_create_cq(cqe=256) failed: Connection timed out
[1741043150.125904] [ohm:305908:0]        ib_iface.c:1059 UCX  ERROR ibv_create_cq(cqe=256) failed: Connection timed out
[1741043150.134248] [ohm:305900:0]        ib_iface.c:1059 UCX  ERROR ibv_create_cq(cqe=256) failed: Connection timed out
[1741043150.146521] [ohm:305879:0]        ib_iface.c:1059 UCX  ERROR ibv_create_cq(cqe=256) failed: Connection timed out
[1741043150.149436] [ohm:305875:0]        ib_iface.c:1059 UCX  ERROR ibv_create_cq(cqe=256) failed: Connection timed out
[1741043150.150892] [ohm:305889:0]        ib_iface.c:1059 UCX  ERROR ibv_create_cq(cqe=256) failed: Connection timed out
[1741043150.159941] [ohm:305892:0]        ib_iface.c:1059 UCX  ERROR ibv_create_cq(cqe=256) failed: Connection timed out
[1741043150.163626] [ohm:305914:0]        ib_iface.c:1059 UCX  ERROR ibv_create_cq(cqe=256) failed: Connection timed out
[1741043150.182291] [ohm:305919:0]        ib_iface.c:1059 UCX  ERROR ibv_create_cq(cqe=256) failed: Connection timed out
[1741043150.182937] [ohm:305887:0]        ib_iface.c:1059 UCX  ERROR ibv_create_cq(cqe=256) failed: Connection timed out
[1741043150.192109] [ohm:305877:0]        ib_iface.c:1059 UCX  ERROR ibv_create_cq(cqe=256) failed: Connection timed out
[1741043150.193873] [ohm:305899:0]        ib_iface.c:1059 UCX  ERROR ibv_create_cq(cqe=256) failed: Connection timed out
[1741043150.194025] [ohm:305885:0]        ib_iface.c:1059 UCX  ERROR ibv_create_cq(cqe=256) failed: Connection timed out
[1741043150.197381] [ohm:305893:0]        ib_iface.c:1059 UCX  ERROR ibv_create_cq(cqe=256) failed: Connection timed out
[1741043150.204798] [ohm:305922:0]        ib_iface.c:1059 UCX  ERROR ibv_create_cq(cqe=256) failed: Connection timed out
[1741043150.211769] [ohm:305891:0]        ib_iface.c:1059 UCX  ERROR ibv_create_cq(cqe=256) failed: Connection timed out
[1741043150.220767] [ohm:305906:0]        ib_iface.c:1059 UCX  ERROR ibv_create_cq(cqe=256) failed: Connection timed out
[1741043150.225179] [ohm:305883:0]        ib_iface.c:1059 UCX  ERROR ibv_create_cq(cqe=256) failed: Connection timed out
[1741043150.227014] [ohm:305898:0]        ib_iface.c:1059 UCX  ERROR ibv_create_cq(cqe=256) failed: Connection timed out
[1741043150.231375] [ohm:305920:0]        ib_iface.c:1059 UCX  ERROR ibv_create_cq(cqe=256) failed: Connection timed out
[1741043150.232869] [ohm:305888:0]        ib_iface.c:1059 UCX  ERROR ibv_create_cq(cqe=256) failed: Connection timed out


           ************************************************************
           *        Program running with 32 parallel MPI-processes    *
           *              working on a common directory               *
           ************************************************************

------------------------------------------------------------------------------
                         ORCA PROPERTY INTEGRAL CALCULATIONS
------------------------------------------------------------------------------

GBWName                                   ... orca.gbw
Number of atoms                           ...      7
Number of basis functions                 ...    182
Max core memory                           ...   1024 MB

Dipole integrals                          ... YES
Quadrupole integrals                      ...  NO
Linear momentum integrals                 ... YES
Angular momentum integrals                ... YES
Higher moments length integrals           ...  NO
Higher moments velocity integrals         ...  NO
Kinetic energy integrals                  ...  NO
GIAO right hand sides                     ...  NO
GIAO dipole derivative integrals          ...  NO
SOC integrals                             ...  NO
EPR diamagnetic integrals (GIAO)          ...  NO
EPR gauge integrals                       ...  NO
Field gradient integrals                  ...  NO (   0 nuclei)
Spin-dipole/Fermi contact integrals       ...  NO (   0 nuclei)
Contact density integrals                 ...  NO (   0 nuclei)
Nucleus-orbit integrals                   ...  NO (   0 nuclei)
Geometric perturbations                   ...  NO (   7 nuclei)

Choice of electric origin   ... Center of mass
Position of electric origin ... (  0.5531,  0.5017, -0.0120) 
Choice of magnetic origin   ... GIAO
Position of magnetic origin ... (  0.0000,  0.0000,  0.0000) 

Calculating integrals                     ... Electric Dipole (Length)     done (  0.3 sec)
Calculating integrals                     ... Linear Momentum              done (  0.7 sec)
Calculating integrals                     ... Angular Momentum  (ElOri)    done (  1.0 sec)

Property integrals calculated in   2.1 sec

Maximum memory used throughout the entire PROPINT-calculation: 10.2 MB
[1741043154.488537] [ohm:306062:0]        ib_iface.c:1059 UCX  ERROR ibv_create_cq(cqe=256) failed: Connection timed out
[1741043154.508017] [ohm:306082:0]        ib_iface.c:1059 UCX  ERROR ibv_create_cq(cqe=256) failed: Connection timed out
[1741043154.531984] [ohm:306064:0]        ib_iface.c:1059 UCX  ERROR ibv_create_cq(cqe=256) failed: Connection timed out
[1741043154.558607] [ohm:306063:0]        ib_iface.c:1059 UCX  ERROR ibv_create_cq(cqe=256) failed: Connection timed out
[1741043154.561746] [ohm:306060:0]        ib_iface.c:1059 UCX  ERROR ibv_create_cq(cqe=256) failed: Connection timed out
[1741043154.564494] [ohm:306066:0]        ib_iface.c:1059 UCX  ERROR ibv_create_cq(cqe=256) failed: Connection timed out
[1741043154.565699] [ohm:306065:0]        ib_iface.c:1059 UCX  ERROR ibv_create_cq(cqe=256) failed: Connection timed out
[1741043154.583539] [ohm:306071:0]        ib_iface.c:1059 UCX  ERROR ibv_create_cq(cqe=256) failed: Connection timed out
[1741043154.584847] [ohm:306075:0]        ib_iface.c:1059 UCX  ERROR ibv_create_cq(cqe=256) failed: Connection timed out
[1741043154.590854] [ohm:306104:0]        ib_iface.c:1059 UCX  ERROR ibv_create_cq(cqe=256) failed: Connection timed out
[1741043154.594264] [ohm:306069:0]        ib_iface.c:1059 UCX  ERROR ibv_create_cq(cqe=256) failed: Connection timed out
[1741043154.605556] [ohm:306061:0]        ib_iface.c:1059 UCX  ERROR ibv_create_cq(cqe=256) failed: Connection timed out
[1741043154.612746] [ohm:306098:0]        ib_iface.c:1059 UCX  ERROR ibv_create_cq(cqe=256) failed: Connection timed out
[1741043154.623808] [ohm:306112:0]        ib_iface.c:1059 UCX  ERROR ibv_create_cq(cqe=256) failed: Connection timed out
[1741043154.629189] [ohm:306058:0]        ib_iface.c:1059 UCX  ERROR ibv_create_cq(cqe=256) failed: Connection timed out
[1741043154.641101] [ohm:306076:0]        ib_iface.c:1059 UCX  ERROR ibv_create_cq(cqe=256) failed: Connection timed out
[1741043154.643885] [ohm:306068:0]        ib_iface.c:1059 UCX  ERROR ibv_create_cq(cqe=256) failed: Connection timed out
[1741043154.647664] [ohm:306090:0]        ib_iface.c:1059 UCX  ERROR ibv_create_cq(cqe=256) failed: Connection timed out
[1741043154.655259] [ohm:306067:0]        ib_iface.c:1059 UCX  ERROR ibv_create_cq(cqe=256) failed: Connection timed out
[1741043154.655457] [ohm:306072:0]        ib_iface.c:1059 UCX  ERROR ibv_create_cq(cqe=256) failed: Connection timed out
[1741043154.655874] [ohm:306078:0]        ib_iface.c:1059 UCX  ERROR ibv_create_cq(cqe=256) failed: Connection timed out
[1741043154.660211] [ohm:306073:0]        ib_iface.c:1059 UCX  ERROR ibv_create_cq(cqe=256) failed: Connection timed out
[1741043154.661924] [ohm:306100:0]        ib_iface.c:1059 UCX  ERROR ibv_create_cq(cqe=256) failed: Connection timed out
[1741043154.662851] [ohm:306080:0]        ib_iface.c:1059 UCX  ERROR ibv_create_cq(cqe=256) failed: Connection timed out
[1741043154.666152] [ohm:306059:0]        ib_iface.c:1059 UCX  ERROR ibv_create_cq(cqe=256) failed: Connection timed out
[1741043154.667178] [ohm:306070:0]        ib_iface.c:1059 UCX  ERROR ibv_create_cq(cqe=256) failed: Connection timed out
[1741043154.668660] [ohm:306093:0]        ib_iface.c:1059 UCX  ERROR ibv_create_cq(cqe=256) failed: Connection timed out
[1741043154.674082] [ohm:306110:0]        ib_iface.c:1059 UCX  ERROR ibv_create_cq(cqe=256) failed: Connection timed out
[1741043154.678776] [ohm:306102:0]        ib_iface.c:1059 UCX  ERROR ibv_create_cq(cqe=256) failed: Connection timed out
[1741043154.679265] [ohm:306074:0]        ib_iface.c:1059 UCX  ERROR ibv_create_cq(cqe=256) failed: Connection timed out
[1741043154.690071] [ohm:306077:0]        ib_iface.c:1059 UCX  ERROR ibv_create_cq(cqe=256) failed: Connection timed out
[1741043154.691175] [ohm:306109:0]        ib_iface.c:1059 UCX  ERROR ibv_create_cq(cqe=256) failed: Connection timed out


           ************************************************************
           *        Program running with 32 parallel MPI-processes    *
           *              working on a common directory               *
           ************************************************************
------------------------------------------------------------------------------
                        ORCA TD-DFT/TDA CALCULATION
------------------------------------------------------------------------------

Input orbitals are from        ... orca.gbw
CI-vector output               ... orca.cis
Solver                         ... FN-2001
Tamm-Dancoff approximation     ... operative
CIS-Integral strategy          ... AO-integrals
Integral handling              ... AO integral Direct
Max. core memory used          ... 512 MB
Reference state                ... UHF
Follow IRoot                   ... off
Number of operators            ... 2
Orbital ranges used for CIS calculation:
 Operator 0:  Orbitals   3... 12  to  11...181

-------------------
XC-INTEGRATION GRID
-------------------

General Integration Accuracy     IntAcc      ... 3.467
Radial Grid Type                 RadialGrid  ... OptM3 with GC (2021)
Angular Grid (max. ang.)         AngularGrid ... 1 (Lebedev-50)
Angular grid pruning method      GridPruning ... 4 (adaptive)
Weight generation scheme         WeightScheme... mBecke (2022)
Basis function cutoff            BFCut       ... 1.0000e-11
Integration weight cutoff        WCut        ... 1.0000e-14
Partially contracted basis set               ... off
Rotationally invariant grid construction     ... off
Angular grids for H and He will be reduced by one unit
Diffuse basis detected: some atoms will have their outermost
                        angular grid increased by 1.

Total number of grid points                  ...     4755
Total number of batches                      ...       78
Average number of points per batch           ...       60
[...]
=> NOW LEAVING ORCA_CIS


-------------------------------------------------------------------------------
                          DFT DISPERSION CORRECTION                            
                                                                               
                              DFTD3 V3.1  Rev 1                                
                          USING Becke-Johnson damping                          
-------------------------------------------------------------------------------
The WB97M functional is recognized
Active option DFTDOPT                   ...         4   

molecular C6(AA) [au] = 395.393904 


            DFT-D V3
 parameters
 s6 scaling factor         :     1.0000 
 a1 scaling factor         :     0.5660 
 s8 scaling factor         :     0.3908 
 a2 scaling factor         :     3.1280 
 ad hoc parameters k1-k3   :    16.0000     1.3333    -4.0000 

 Edisp/kcal,au: -3.384422989037  -0.005393420766 
 E6   /kcal   :  -2.727515104 
 E8   /kcal   :  -0.656907885 
 % E8         :  19.409745377 

-------------------------   ----------------
Dispersion correction           -0.005393421
-------------------------   ----------------


-------------------------   --------------------
FINAL SINGLE POINT ENERGY      -153.863963885933
-------------------------   --------------------

[1741043171.239204] [ohm:306302:0]        ib_iface.c:1059 UCX  ERROR ibv_create_cq(cqe=256) failed: Connection timed out
[1741043171.261015] [ohm:306301:0]        ib_iface.c:1059 UCX  ERROR ibv_create_cq(cqe=256) failed: Connection timed out
[1741043171.266924] [ohm:306297:0]        ib_iface.c:1059 UCX  ERROR ibv_create_cq(cqe=256) failed: Connection timed out
[1741043171.294569] [ohm:306295:0]        ib_iface.c:1059 UCX  ERROR ibv_create_cq(cqe=256) failed: Connection timed out
[1741043171.319327] [ohm:306294:0]        ib_iface.c:1059 UCX  ERROR ibv_create_cq(cqe=256) failed: Connection timed out
[1741043171.325590] [ohm:306313:0]        ib_iface.c:1059 UCX  ERROR ibv_create_cq(cqe=256) failed: Connection timed out
[1741043171.327911] [ohm:306296:0]        ib_iface.c:1059 UCX  ERROR ibv_create_cq(cqe=256) failed: Connection timed out
[1741043171.338842] [ohm:306303:0]        ib_iface.c:1059 UCX  ERROR ibv_create_cq(cqe=256) failed: Connection timed out
[1741043171.342898] [ohm:306305:0]        ib_iface.c:1059 UCX  ERROR ibv_create_cq(cqe=256) failed: Connection timed out
[1741043171.343291] [ohm:306300:0]        ib_iface.c:1059 UCX  ERROR ibv_create_cq(cqe=256) failed: Connection timed out
[1741043171.344818] [ohm:306298:0]        ib_iface.c:1059 UCX  ERROR ibv_create_cq(cqe=256) failed: Connection timed out
[1741043171.348720] [ohm:306315:0]        ib_iface.c:1059 UCX  ERROR ibv_create_cq(cqe=256) failed: Connection timed out
[1741043171.351318] [ohm:306293:0]        ib_iface.c:1059 UCX  ERROR ibv_create_cq(cqe=256) failed: Connection timed out
[1741043171.352317] [ohm:306328:0]        ib_iface.c:1059 UCX  ERROR ibv_create_cq(cqe=256) failed: Connection timed out
[1741043171.352860] [ohm:306311:0]        ib_iface.c:1059 UCX  ERROR ibv_create_cq(cqe=256) failed: Connection timed out
[1741043171.356304] [ohm:306304:0]        ib_iface.c:1059 UCX  ERROR ibv_create_cq(cqe=256) failed: Connection timed out
[1741043171.361998] [ohm:306299:0]        ib_iface.c:1059 UCX  ERROR ibv_create_cq(cqe=256) failed: Connection timed out
[1741043171.363165] [ohm:306308:0]        ib_iface.c:1059 UCX  ERROR ibv_create_cq(cqe=256) failed: Connection timed out
[1741043171.367081] [ohm:306348:0]        ib_iface.c:1059 UCX  ERROR ibv_create_cq(cqe=256) failed: Connection timed out
[1741043171.369357] [ohm:306336:0]        ib_iface.c:1059 UCX  ERROR ibv_create_cq(cqe=256) failed: Connection timed out
[1741043171.372140] [ohm:306317:0]        ib_iface.c:1059 UCX  ERROR ibv_create_cq(cqe=256) failed: Connection timed out
[1741043171.387141] [ohm:306321:0]        ib_iface.c:1059 UCX  ERROR ibv_create_cq(cqe=256) failed: Connection timed out
[1741043171.387619] [ohm:306331:0]        ib_iface.c:1059 UCX  ERROR ibv_create_cq(cqe=256) failed: Connection timed out
[1741043171.388183] [ohm:306310:0]        ib_iface.c:1059 UCX  ERROR ibv_create_cq(cqe=256) failed: Connection timed out
[1741043171.392523] [ohm:306306:0]        ib_iface.c:1059 UCX  ERROR ibv_create_cq(cqe=256) failed: Connection timed out
[1741043171.392778] [ohm:306337:0]        ib_iface.c:1059 UCX  ERROR ibv_create_cq(cqe=256) failed: Connection timed out
[1741043171.401296] [ohm:306334:0]        ib_iface.c:1059 UCX  ERROR ibv_create_cq(cqe=256) failed: Connection timed out
[1741043171.402425] [ohm:306330:0]        ib_iface.c:1059 UCX  ERROR ibv_create_cq(cqe=256) failed: Connection timed out
[1741043171.408364] [ohm:306307:0]        ib_iface.c:1059 UCX  ERROR ibv_create_cq(cqe=256) failed: Connection timed out
[1741043171.408663] [ohm:306318:0]        ib_iface.c:1059 UCX  ERROR ibv_create_cq(cqe=256) failed: Connection timed out
[1741043171.408713] [ohm:306320:0]        ib_iface.c:1059 UCX  ERROR ibv_create_cq(cqe=256) failed: Connection timed out
[1741043171.411282] [ohm:306342:0]        ib_iface.c:1059 UCX  ERROR ibv_create_cq(cqe=256) failed: Connection timed out


           ************************************************************
           *        Program running with 32 parallel MPI-processes    *
           *              working on a common directory               *
           ************************************************************

------------------------------------------------------------------------------
                              ORCA PROPERTY CALCULATIONS
------------------------------------------------------------------------------

GBWName                                 ... orca.gbw
Number of atoms                         ...      7
Number of basis functions               ...    182
Max core memory                         ...   1024 MB

Electric properties:
Dipole moment                           ... YES
Quadrupole moment                       ...  NO
Static polarizability (Dipole/Dipole)   ...  NO
Static polarizability (Dipole/Quad.)    ...  NO
Static polarizability (Quad./Quad.)     ...  NO
Static polarizability (Velocity)        ...  NO

Atomic electric properties:
Dipole moment                           ...  NO
Quadrupole moment                       ...  NO
Static polarizability                   ...  NO

Choice of electric origin               ... Center of mass
Position of electric origin             ...     0.553080     0.501674    -0.011954

General magnetic properties:
Magnetizability                         ...  NO

EPR properties:
g-Tensor (aka g-matrix)                 ...  NO
Zero-Field splitting spin-orbit         ...  NO
Zero-field splitting spin-spin          ...  NO
Hyperfine couplings                     ...  NO (   0 nuclei)
Quadrupole couplings                    ...  NO (   0 nuclei)
Contact density                         ...  NO (   0 nuclei)

NMR properties:
Chemical shifts                         ...  NO (   0 nuclei)
Spin-rotation constants                 ...  NO (   0 nuclei)
Spin-spin couplings                     ...  NO (   0 nuclei,    0 pairs)

Choice of magnetic origin               ... GIAO
Position of magnetic origin             ...     0.000000     0.000000     0.000000

Properties with geometric perturbations:
SCF Hessian                             ...  NO
IR spectrum                             ...  NO
VCD spectrum                            ...  NO
X-ray spectroscopy properties:
SCF XES/XAS/RIXS spectra                ...  NO


-------------
DIPOLE MOMENT
-------------

Method             : SCF
Type of density    : Electron Density
Multiplicity       :   3
Irrep              :   0
Energy             :  -153.7859497838997527 Eh
Relativity type    : 
Basis              : AO
                                X                 Y                 Z
Electronic contribution:      1.612852165       3.470325280       0.412555740
Nuclear contribution   :     -1.684993435      -4.183191469      -0.368637292
                        -----------------------------------------
Total Dipole Moment    :     -0.072141270      -0.712866189       0.043918447
                        -----------------------------------------
Magnitude (a.u.)       :      0.717851932
Magnitude (Debye)      :      1.824634605



--------------------
Rotational spectrum 
--------------------
 
Rotational constants in cm-1:             1.487883             0.309896             0.269739 
Rotational constants in MHz :         44605.620358          9290.451991          8086.563235 

Dipole components along the rotational axes: 
x,y,z [a.u.] :     0.658509    -0.260233     0.118138 
x,y,z [Debye]:     1.673796    -0.661460     0.300282 

 

-------------
DIPOLE MOMENT
-------------

Method             : TDA/CIS
Type of density    : Electron Density
Level              : Relaxed density
State              :   1
Multiplicity       :   3
Irrep              :   0
Energy             :     0.0000000000000000 Eh
Relativity type    : 
Basis              : AO
                                X                 Y                 Z
Electronic contribution:      1.466798274       2.690768271       0.720867735
Nuclear contribution   :     -1.684993435      -4.183191469      -0.368637292
                        -----------------------------------------
Total Dipole Moment    :     -0.218195161      -1.492423198       0.352230443
                        -----------------------------------------
Magnitude (a.u.)       :      1.548871336
Magnitude (Debye)      :      3.936918064



--------------------
Rotational spectrum 
--------------------
 
Rotational constants in cm-1:             1.487883             0.309896             0.269739 
Rotational constants in MHz :         44605.620358          9290.451991          8086.563235 

Dipole components along the rotational axes: 
x,y,z [a.u.] :     1.380539    -0.701622     0.029002 
x,y,z [Debye]:     3.509051    -1.783382     0.073718 

 

Dipole moment calculation done in   0.9 sec 

Maximum memory used throughout the entire PROP-calculation: 7.4 MB
[1741043175.197655] [ohm:306478:0]        ib_iface.c:1059 UCX  ERROR ibv_create_cq(cqe=256) failed: Connection timed out
[1741043175.207777] [ohm:306480:0]        ib_iface.c:1059 UCX  ERROR ibv_create_cq(cqe=256) failed: Connection timed out
[1741043175.238880] [ohm:306492:0]        ib_iface.c:1059 UCX  ERROR ibv_create_cq(cqe=256) failed: Connection timed out
[1741043175.252402] [ohm:306481:0]        ib_iface.c:1059 UCX  ERROR ibv_create_cq(cqe=256) failed: Connection timed out
[1741043175.254606] [ohm:306483:0]        ib_iface.c:1059 UCX  ERROR ibv_create_cq(cqe=256) failed: Connection timed out
[1741043175.263924] [ohm:306496:0]        ib_iface.c:1059 UCX  ERROR ibv_create_cq(cqe=256) failed: Connection timed out
[1741043175.269365] [ohm:306482:0]        ib_iface.c:1059 UCX  ERROR ibv_create_cq(cqe=256) failed: Connection timed out
[1741043175.275788] [ohm:306521:0]        ib_iface.c:1059 UCX  ERROR ibv_create_cq(cqe=256) failed: Connection timed out
[1741043175.292873] [ohm:306489:0]        ib_iface.c:1059 UCX  ERROR ibv_create_cq(cqe=256) failed: Connection timed out
[1741043175.293720] [ohm:306506:0]        ib_iface.c:1059 UCX  ERROR ibv_create_cq(cqe=256) failed: Connection timed out
[1741043175.293789] [ohm:306494:0]        ib_iface.c:1059 UCX  ERROR ibv_create_cq(cqe=256) failed: Connection timed out
[1741043175.297093] [ohm:306490:0]        ib_iface.c:1059 UCX  ERROR ibv_create_cq(cqe=256) failed: Connection timed out
[1741043175.306815] [ohm:306495:0]        ib_iface.c:1059 UCX  ERROR ibv_create_cq(cqe=256) failed: Connection timed out
[1741043175.313277] [ohm:306499:0]        ib_iface.c:1059 UCX  ERROR ibv_create_cq(cqe=256) failed: Connection timed out
[1741043175.317070] [ohm:306484:0]        ib_iface.c:1059 UCX  ERROR ibv_create_cq(cqe=256) failed: Connection timed out
[1741043175.321468] [ohm:306525:0]        ib_iface.c:1059 UCX  ERROR ibv_create_cq(cqe=256) failed: Connection timed out
[1741043175.326051] [ohm:306498:0]        ib_iface.c:1059 UCX  ERROR ibv_create_cq(cqe=256) failed: Connection timed out
[1741043175.327467] [ohm:306493:0]        ib_iface.c:1059 UCX  ERROR ibv_create_cq(cqe=256) failed: Connection timed out
[1741043175.328443] [ohm:306487:0]        ib_iface.c:1059 UCX  ERROR ibv_create_cq(cqe=256) failed: Connection timed out
[1741043175.328773] [ohm:306503:0]        ib_iface.c:1059 UCX  ERROR ibv_create_cq(cqe=256) failed: Connection timed out
[1741043175.330900] [ohm:306485:0]        ib_iface.c:1059 UCX  ERROR ibv_create_cq(cqe=256) failed: Connection timed out
[1741043175.331486] [ohm:306476:0]        ib_iface.c:1059 UCX  ERROR ibv_create_cq(cqe=256) failed: Connection timed out
[1741043175.332785] [ohm:306507:0]        ib_iface.c:1059 UCX  ERROR ibv_create_cq(cqe=256) failed: Connection timed out
[1741043175.333550] [ohm:306488:0]        ib_iface.c:1059 UCX  ERROR ibv_create_cq(cqe=256) failed: Connection timed out
[1741043175.333744] [ohm:306475:0]        ib_iface.c:1059 UCX  ERROR ibv_create_cq(cqe=256) failed: Connection timed out
[1741043175.334838] [ohm:306491:0]        ib_iface.c:1059 UCX  ERROR ibv_create_cq(cqe=256) failed: Connection timed out
[1741043175.335328] [ohm:306477:0]        ib_iface.c:1059 UCX  ERROR ibv_create_cq(cqe=256) failed: Connection timed out
[1741043175.344527] [ohm:306497:0]        ib_iface.c:1059 UCX  ERROR ibv_create_cq(cqe=256) failed: Connection timed out
[1741043175.349536] [ohm:306486:0]        ib_iface.c:1059 UCX  ERROR ibv_create_cq(cqe=256) failed: Connection timed out
[1741043175.349530] [ohm:306505:0]        ib_iface.c:1059 UCX  ERROR ibv_create_cq(cqe=256) failed: Connection timed out
[1741043175.349932] [ohm:306474:0]        ib_iface.c:1059 UCX  ERROR ibv_create_cq(cqe=256) failed: Connection timed out
[1741043175.350295] [ohm:306479:0]        ib_iface.c:1059 UCX  ERROR ibv_create_cq(cqe=256) failed: Connection timed out

--------------------------------
SUGGESTED CITATIONS FOR THIS RUN
--------------------------------

Below you find a list of papers that are relevant to this ORCA run
We neither can nor want to force you to cite these papers, but we appreciate if you do
You receive ORCA, which is the product of decades of hard work by many enthusiastic individuals, for free
The only thing we kindly ask in return is that you cite our papers,
We deeply appreciate it, if you show your appreciation for ORCA by not just citing the generic ORCA reference.

Please note that relegating all ORCA citations to the supporting information does *not* help us.
SI sections are not indexed - citations you put there will not count into any citation statistics
But we need these citations in order to attract the funding resources that allow us to do what we are doing

Therefore, if you are a happy ORCA user, please consider citing a few of the papers listed below in the main body of your paper

In addition to the list printed below, the program has created the file orca.bibtex that contains the list in bibtex format
You can import this file easily into all common literature databanks and citation aid programs


List of essential papers. We consider these as the minimum necessary citations

  1. Neese,F.
     Software update: the ORCA program system, version 5.0
     WIRES Comput. Molec. Sci., 2022 12(1)e1606
     doi.org/10.1002/wcms.1606

List of papers to cite with high priority. The work reported in these papers was absolutely
necessary for this run to complete.
Our perspective: the developers of density functionals and basis sets usually get cited in chemistry papers
Good! But without the algorithms to do something with them, the functionals or basis sets would not do anything.
Hence, in our opinion, the algorithm design and method developments papers are equally worthy of getting cited

  1. Neese,F.; Olbrich,G.
     Efficient use of the resolution of the identity approximation in time-dependent density functional calculations with hybrid density functionals
     Chem. Phys. Lett., 2002 362 170-178
     doi.org/10.1016/s0009-2614(02)01053-9
  2. Neese,F.
     An improvement of the resolution of the identity approximation for the formation of the Coulomb matrix
     J. Comp. Chem., 2003 24(14)1740-1747
     doi.org/10.1002/jcc.10318
  3. Neese,F.; Wennmohs,F.; Hansen,A.; Becker,U.
     Efficient, approximate and parallel Hartree-Fock and hybrid DFT calculations. A 'chain-of-spheres' algorithm for the Hartree-Fock exchange
     Chem. Phys., 2009 356(1-3)98-109
     doi.org/10.1016/j.chemphys.2008.10.036
  4. Petrenko,T.; Kossmann,S.; Neese,F.
     Efficient time-dependent density functional theory approximations for hybrid density functionals: Analytical gradients and parallelization
     J. Chem. Phys., 2011 134 054116
     doi.org/10.1063/1.3533441
  5. Helmich-Paris,B.; de Souza,B.; Neese,F.; Izsák,R.
     An improved chain of spheres for exchange algorithm
     J. Chem. Phys., 2021 155 104109
     doi.org/doi: 10.1063/5.0058766.
  6. Neese,F.
     The SHARK Integral Generation and Digestion System
     J. Comp. Chem., 2022  1-16
     doi.org/10.1002/jcc.26942
  7. Lehtola,S.; Steigemann,C.; Oliveira,M.; Marques,M.
     Recent developments in Libxc - A comprehensive library of functionals for density functional theory
     Software X, 2018 7 
     doi.org/10.1016/j.softx.2017.11.002
  8. Grimme,S.; Antony,J.; Ehrlich,S.; Krieg,H.
     A consistent and accurate ab initio parametrization of density functional dispersion correction (DFT-D) for the 94 elements H-Pu
     J. Chem. Phys., 2010 132 154104-XXXX
     doi.org/10.1063/1.3382344
  9. Grimme,S.; Ehrlich,S.; Goerigk,L.
     Effect of the damping function in dispersion corrected density functional theory
     J. Comput. Chem., 2011 32(7)1456-1465
     doi.org/10.1002/jcc.21759

List of suggested additional citations. These are papers that are important in the 'surrounding' of 
of this run, or papers that preceded the highly important papers. If you like your results we are grateful for a citation.

  1. Izsak,R.; Neese,F.
     An overlap fitted chain of spheres exchange method
     J. Chem. Phys., 2011 135 144105
     doi.org/10.1063/1.3646921
  2. Izsak,R.; Hansen,A.; Neese,F.
     The resolution of identity and chain of spheres approximations for the LPNO-CCSD singles Fock term
     Molec. Phys., 2012 110 2413-2417
     doi.org/10.1080/00268976.2012.687466
  3. Neese,F.
     The ORCA program system
     WIRES Comput. Molec. Sci., 2012 2(1)73-78
     doi.org/10.1002/wcms.81
  4. Izsak,R.; Neese,F.; Klopper,W.
     Robust fitting techniques in the chain of spheres approximation to the Fock exchange: The role of the complementary space
     J. Chem. Phys., 2013 139 
     doi.org/10.1063/1.4819264
  5. Neese,F.
     Software update: the ORCA program system, version 4.0
     WIRES Comput. Molec. Sci., 2018 8(1)1-6
     doi.org/10.1002/wcms.1327
  6. Neese,F.; Wennmohs,F.; Becker,U.; Riplinger,C.
     The ORCA quantum chemistry program package
     J. Chem. Phys., 2020 152 Art. No. L224108
     doi.org/10.1063/5.0004608

List of optional additional citations

  1. Neese,F.
     Approximate second-order SCF convergence for spin unrestricted wavefunctions
     Chem. Phys. Lett., 2000 325(1-3)93-98
     doi.org/10.1016/s0009-2614(00)00662-x

Timings for individual modules:

Sum of individual times          ...       54.156 sec (=   0.903 min)
Startup calculation              ...        8.691 sec (=   0.145 min)  16.0 %
SCF iterations                   ...       20.505 sec (=   0.342 min)  37.9 %
Property integrals               ...        4.434 sec (=   0.074 min)   8.2 %
Property calculations            ...        3.815 sec (=   0.064 min)   7.0 %
CIS module                       ...       16.711 sec (=   0.279 min)  30.9 %
                             ****ORCA TERMINATED NORMALLY****
TOTAL RUN TIME: 0 days 0 hours 0 minutes 57 seconds 215 msec
