
                                 *****************
                                 * O   R   C   A *
                                 *****************

                                            #,                                       
                                            ###                                      
                                            ####                                     
                                            #####                                    
                                            ######                                   
                                           ########,                                 
                                     ,,################,,,,,                         
                               ,,#################################,,                 
                          ,,##########################################,,             
                       ,#########################################, ''#####,          
                    ,#############################################,,   '####,        
                  ,##################################################,,,,####,       
                ,###########''''           ''''###############################       
              ,#####''   ,,,,##########,,,,          '''####'''          '####       
            ,##' ,,,,###########################,,,                        '##       
           ' ,,###''''                  '''############,,,                           
         ,,##''                                '''############,,,,        ,,,,,,###''
      ,#''                                            '''#######################'''  
     '                                                          ''''####''''         
             ,#######,   #######,   ,#######,      ##                                
            ,#'     '#,  ##    ##  ,#'     '#,    #''#        ,####,   ,####,        
            ##       ##  ##   ,#'  ##            #'  '#       #'       #'  '#        
            ##       ##  #######   ##           ,######,      #####,   #    #        
            '#,     ,#'  ##    ##  '#,     ,#' ,#      #,     #,   #   #,  ,#        
             '#######'   ##     ##  '#######'  #'      '#     '####' # '####'        



                #########################################################
                #                        -***-                          #
                #          Department of theory and spectroscopy        #
                #                                                       #
                #                      Frank Neese                      #
                #                                                       #
                #     Directorship, Architecture, Infrastructure        #
                #                    SHARK, DRIVERS                     #
                #        Core code/Algorithms in most modules           #
                #                                                       #
                #        Max Planck Institute fuer Kohlenforschung      #
                #                Kaiser Wilhelm Platz 1                 #
                #                 D-45470 Muelheim/Ruhr                 #
                #                      Germany                          #
                #                                                       #
                #                  All rights reserved                  #
                #                        -***-                          #
                #########################################################


                         Program Version 6.0.0  -   RELEASE  -


 With contributions from (in alphabetic order):
   Daniel Aravena         : Magnetic Suceptibility
   Michael Atanasov       : Ab Initio Ligand Field Theory (pilot matlab implementation)
   Alexander A. Auer      : GIAO ZORA, VPT2 properties, NMR spectrum
   Ute Becker             : All parallelization in ORCA, NUMFREQ, NUMCALC
   Giovanni Bistoni       : ED, misc. LED, open-shell LED, HFLD
   Martin Brehm           : Molecular dynamics
   Dmytro Bykov           : pre 5.0 version of the SCF Hessian
   Marcos Casanova-Páez   : Triplet and SCS-CIS(D). UHF-(DLPNO)-IP/EA/STEOM-CCSD. UHF-CVS-IP/STEOM-CCSD
   Vijay G. Chilkuri      : MRCI spin determinant printing, contributions to CSF-ICE
   Pauline Colinet        : FMM embedding
   Dipayan Datta          : RHF DLPNO-CCSD density
   Achintya Kumar Dutta   : EOM-CC, STEOM-CC
   Nicolas Foglia         : Exact transition moments, OPA infrastructure, MCD improvements
   Dmitry Ganyushin       : Spin-Orbit,Spin-Spin,Magnetic field MRCI
   Miquel Garcia          : C-PCM and meta-GGA Hessian, CCSD/C-PCM, Gaussian charge scheme
   Tiago L. C. Gouveia    : GS-ROHF, GS-ROCIS
   Yang Guo               : DLPNO-NEVPT2, F12-NEVPT2, CIM, IAO-localization
   Andreas Hansen         : Spin unrestricted coupled pair/coupled cluster methods
   Ingolf Harden          : AUTO-CI MPn and infrastructure 
   Benjamin Helmich-Paris : MC-RPA, TRAH-(SCF,CASSCF), AVAS, COSX integrals, SCF dyn. polar.
   Lee Huntington         : MR-EOM, pCC
   Robert Izsak           : Overlap fitted RIJCOSX, COSX-SCS-MP3, EOM
   Riya Kayal             : Wick's Theorem for AUTO-CI, AUTO-CI UHF-CCSDT
   Emily Kempfer          : AUTO-CI, RHF CISDT and CCSDT
   Christian Kollmar      : KDIIS, OOCD, Brueckner-CCSD(T), CCSD density, CASPT2, CASPT2-K, improved NEVPT2
   Axel Koslowski         : Symmetry handling
   Simone Kossmann        : Meta GGA functionals, TD-DFT gradient, OOMP2, (MP2 Hessian; deprecated post 5.0)
   Lucas Lang             : DCDCAS
   Marvin Lechner         : AUTO-CI (C++ implementation), FIC-MRCC
   Spencer Leger          : CASSCF response
   Dagmar Lenk            : GEPOL surface, SMD, ORCA-2-JSON
   Dimitrios Liakos       : Extrapolation schemes; Compound Job, initial MDCI parallelization
   Dimitrios Manganas     : Further ROCIS development; embedding schemes. LFT, Crystal Embedding
   Dimitrios Pantazis     : SARC Basis sets
   Anastasios Papadopoulos: AUTO-CI, single reference methods and gradients
   Taras Petrenko         : pre 6.0 DFT Hessian and TD-DFT gradient, (ASA, deprecated), ECA, 1-Electron XAS/XES, NRVS
   Peter Pinski           : DLPNO-MP2, DLPNO-MP2 Gradient
   Christoph Reimann      : Effective Core Potentials
   Marius Retegan         : Local ZFS, SOC
   Christoph Riplinger    : Optimizer, TS searches, QM/MM, DLPNO-CCSD(T), (RO)-DLPNO pert. Triples
   Michael Roemelt        : Original ROCIS implementation
   Masaaki Saitow         : Open-shell DLPNO-CCSD energy and density
   Barbara Sandhoefer     : DKH picture change effects
   Kantharuban Sivalingam : CASSCF convergence/infrastructure, NEVPT2 and variants, FIC-MRCI
   Bernardo de Souza      : ESD, SOC TD-DFT
   Georgi Stoychev        : AutoAux, RI-MP2 NMR, DLPNO-MP2 response, X2C
   Van Anh Tran           : RI-MP2 g-tensors
   Willem Van den Heuvel  : Paramagnetic NMR
   Zikuan Wang            : NOTCH, Electric field optimization 
   Frank Wennmohs         : Technical directorship and infrastructure
   Hang Xu                : AUTO-CI-Response properties 


 We gratefully acknowledge several colleagues who have allowed us to
 interface, adapt or use parts of their codes:
   Stefan Grimme, W. Hujo, H. Kruse, P. Pracht,  : VdW corrections, initial TS optimization,
                  C. Bannwarth, S. Ehlert,         DFT functionals, gCP, sTDA/sTD-DF
                  L. Wittmann, M. Mueller
   Ed Valeev, F. Pavosevic, A. Kumar             : LibInt (2-el integral package), F12 methods
   Garnet Chan, S. Sharma, J. Yang, R. Olivares  : DMRG
   Ulf Ekstrom                                   : XCFun DFT Library
   Mihaly Kallay                                 : mrcc  (arbitrary order and MRCC methods)
   Frank Weinhold                                : gennbo (NPA and NBO analysis)
   Simon Mueller                                 : openCOSMO-RS
   Christopher J. Cramer and Donald G. Truhlar   : smd solvation model
   Lars Goerigk                                  : TD-DFT with DH, B97 family of functionals
   V. Asgeirsson, H. Jonsson                     : NEB implementation
   FAccTs GmbH                                   : IRC, NEB, NEB-TS, DLPNO-Multilevel, CI-OPT
                                                   MM, QMMM, 2- and 3-layer-ONIOM, Crystal-QMMM,
                                                   LR-CPCM, SF, NACMEs, symmetry and pop. for TD-DFT,
                                                   nearIR, NL-DFT gradient (VV10), updates on ESD,
                                                   ML-optimized integration grids, MBIS, APM,
                                                   GOAT, DOCKER, SOLVATOR, interface openCOSMO-RS
   S Lehtola, MJT Oliveira, MAL Marques          : LibXC Library
   Liviu Ungur et al                             : ANISO software


 Your calculation uses the libint2 library for the computation of 2-el integrals
 For citations please refer to: http://libint.valeyev.net

 Your ORCA version has been built with support for libXC version: 6.2.2
 For citations please refer to: https://libxc.gitlab.io

 This ORCA versions uses:
   CBLAS   interface :  Fast vector & matrix operations
   LAPACKE interface :  Fast linear algebra routines
   SCALAPACK package :  Parallel linear algebra routines
   Shared memory     :  Shared parallel matrices
   BLAS/LAPACK       :  OpenBLAS 0.3.27  USE64BITINT DYNAMIC_ARCH NO_AFFINITY Zen SINGLE_THREADED
        Core in use  :  Zen
   Copyright (c) 2011-2014, The OpenBLAS Project


Your calculation utilizes the atom-pairwise dispersion correction
with the Becke-Johnson damping scheme (D3BJ)


Warning: RI is on but no J-basis has been assigned. Assigning Def2/J (nothing to worry about!)
================================================================================

----- Orbital basis set information -----
Your calculation utilizes the basis: def2-TZVPPD
   F. Weigend and R. Ahlrichs, Phys. Chem. Chem. Phys. 7, 3297 (2005).
   D. Rappoport and F. Furche, J. Chem. Phys. 133, 134105 (2010)
   D. Rappoport, J. Chem. Phys. 155, 124102 (2021).

----- AuxJ basis set information -----
Your calculation utilizes the auxiliary basis: def2/J
   F. Weigend, Phys. Chem. Chem. Phys. 8, 1057 (2006).

================================================================================
                                        WARNINGS
                       Please study these warnings very carefully!
================================================================================

Using LibXC functional ID 531 : wB97M-V exchange-correlation functional
[ 1]  N. Mardirossian and M. Head-Gordon.,  J. Chem. Phys. 144, 214110 (2016)
Using LibXC functional ID 531 : wB97M-V exchange-correlation functional
[ 1]  N. Mardirossian and M. Head-Gordon.,  J. Chem. Phys. 144, 214110 (2016)

WARNING: B97M-V or wB97M-V functional requested.
  ===> : libXC variant has now been activated.
         Any manually given DFX/HFX/RangeSep scaling parameters are IGNORED!

Your calculation utilizes LibXC
 by S Lehtola, C Steigemann, MJT Oliveira & MAL Marques
Please cite in your paper:
 S Lehtola, C Steigemann, MJT Oliveira & MAL Marques, SoftwareX, 7, (2018), 1.
   


WARNING: your system is open-shell and RHF/RKS was chosen
  ===> : WILL SWITCH to UHF/UKS

INFO   : Checking CIS options ...

WARNING: CIS/ROCIS methods need fully converged wavefunctions
  ===> : Setting SCFConvForced true
         You can overwrite this default with %scf ConvForced false 


================================================================================
                                       INPUT FILE
================================================================================
NAME = orca.inp
|  1> ! Engrad def2-TZVPPD wB97M-D3BJ 
|  2> %pal nprocs 8 end%pal nprocs 64 end 
|  3> %tddft Nroots 2 Iroot 1 
|  4> sf true 
|  5> end 
|  6> *xyz 0 3 
|  7> O   2.884504 1.10149799 -0.83775594
|  8> O   -0.55283178 0.9096638 -2.03509247
|  9> O   1.32900018 -3.18735968 -1.18800294
| 10> O   -3.21279599 -1.58546779 0.58629355
| 11> N   0.81545597 -2.04084386 0.70259465
| 12> N   -2.47292853 0.41256351 1.46353018
| 13> N   1.94640366 -1.00438314 -1.02034473
| 14> N   -1.90344043 -0.29124904 -0.69186335
| 15> C   1.84257462 0.17588569 1.07169115
| 16> C   -1.24077732 1.88521889 -0.04368508
| 17> C   1.00662966 -0.89582706 1.49840995
| 18> C   -1.96688313 1.69411655 1.16981465
| 19> C   2.35553733 1.26816385 1.94665725
| 20> C   -0.51417115 3.18379328 -0.13250702
| 21> C   2.26520564 0.23715162 -0.28282087
| 22> C   -1.18222915 0.85271909 -1.02504429
| 23> C   1.39629365 -2.16632484 -0.5723785
| 24> C   -2.6163131 -0.57896458 0.43224563
| 25> H   0.49188519 -0.85735236 2.42059037
| 26> H   -2.02887147 2.39479276 1.98216524
| 27> H   1.64563152 1.98514782 2.55829043
| 28> H   3.03279219 0.79258111 2.67408804
| 29> H   2.99783472 1.99813593 1.4553932
| 30> H   -1.13306966 4.00642495 0.28726611
| 31> H   0.46583294 3.21488554 0.51421827
| 32> H   0.03747771 3.22999531 -1.07748926
| 33> H   0.25449807 -2.84081666 1.01574231
| 34> H   -2.99846531 0.26888758 2.32358175
| 35> H   2.48158793 -0.97655696 -1.86439038
| 36> H   -1.8950436 -1.02308238 -1.33422446
| 37> *
| 38> 
| 39>                          ****END OF INPUT****
================================================================================

                     *******************************
                     * Energy+Gradient Calculation *
                     *******************************

---------------------------------
CARTESIAN COORDINATES (ANGSTROEM)
---------------------------------
  O      2.884504    1.101498   -0.837756
  O     -0.552832    0.909664   -2.035092
  O      1.329000   -3.187360   -1.188003
  O     -3.212796   -1.585468    0.586294
  N      0.815456   -2.040844    0.702595
  N     -2.472929    0.412564    1.463530
  N      1.946404   -1.004383   -1.020345
  N     -1.903440   -0.291249   -0.691863
  C      1.842575    0.175886    1.071691
  C     -1.240777    1.885219   -0.043685
  C      1.006630   -0.895827    1.498410
  C     -1.966883    1.694117    1.169815
  C      2.355537    1.268164    1.946657
  C     -0.514171    3.183793   -0.132507
  C      2.265206    0.237152   -0.282821
  C     -1.182229    0.852719   -1.025044
  C      1.396294   -2.166325   -0.572378
  C     -2.616313   -0.578965    0.432246
  H      0.491885   -0.857352    2.420590
  H     -2.028871    2.394793    1.982165
  H      1.645632    1.985148    2.558290
  H      3.032792    0.792581    2.674088
  H      2.997835    1.998136    1.455393
  H     -1.133070    4.006425    0.287266
  H      0.465833    3.214886    0.514218
  H      0.037478    3.229995   -1.077489
  H      0.254498   -2.840817    1.015742
  H     -2.998465    0.268888    2.323582
  H      2.481588   -0.976557   -1.864390
  H     -1.895044   -1.023082   -1.334224

----------------------------
CARTESIAN COORDINATES (A.U.)
----------------------------
  NO LB      ZA    FRAG     MASS         X           Y           Z
   0 O     8.0000    0    15.999    5.450923    2.081530   -1.583129
   1 O     8.0000    0    15.999   -1.044701    1.719015   -3.845767
   2 O     8.0000    0    15.999    2.511446   -6.023237   -2.245000
   3 O     8.0000    0    15.999   -6.071305   -2.996100    1.107934
   4 N     7.0000    0    14.007    1.540988   -3.856636    1.327711
   5 N     7.0000    0    14.007   -4.673158    0.779632    2.765671
   6 N     7.0000    0    14.007    3.678170   -1.898009   -1.928172
   7 N     7.0000    0    14.007   -3.596981   -0.550381   -1.307432
   8 C     6.0000    0    12.011    3.481961    0.332376    2.025203
   9 C     6.0000    0    12.011   -2.344729    3.562547   -0.082553
  10 C     6.0000    0    12.011    1.902254   -1.692868    2.831584
  11 C     6.0000    0    12.011   -3.716870    3.201416    2.210629
  12 C     6.0000    0    12.011    4.451320    2.396482    3.678649
  13 C     6.0000    0    12.011   -0.971643    6.016497   -0.250402
  14 C     6.0000    0    12.011    4.280618    0.448152   -0.534454
  15 C     6.0000    0    12.011   -2.234089    1.611406   -1.937053
  16 C     6.0000    0    12.011    2.638613   -4.093761   -1.081639
  17 C     6.0000    0    12.011   -4.944115   -1.094084    0.816826
  18 H     1.0000    0     1.008    0.929528   -1.620161    4.574253
  19 H     1.0000    0     1.008   -3.834011    4.525502    3.745749
  20 H     1.0000    0     1.008    3.109793    3.751386    4.834468
  21 H     1.0000    0     1.008    5.731147    1.497761    5.053294
  22 H     1.0000    0     1.008    5.665087    3.775930    2.750295
  23 H     1.0000    0     1.008   -2.141191    7.571046    0.542854
  24 H     1.0000    0     1.008    0.880297    6.075253    0.971732
  25 H     1.0000    0     1.008    0.070823    6.103807   -2.036160
  26 H     1.0000    0     1.008    0.480932   -5.368365    1.919475
  27 H     1.0000    0     1.008   -5.666278    0.508124    4.390933
  28 H     1.0000    0     1.008    4.689522   -1.845425   -3.523187
  29 H     1.0000    0     1.008   -3.581113   -1.933346   -2.521319

--------------------------------
INTERNAL COORDINATES (ANGSTROEM)
--------------------------------
 O      0   0   0     0.000000000000     0.00000000     0.00000000
 O      1   0   0     3.644954373788     0.00000000     0.00000000
 O      1   2   0     4.575649157066    66.72999021     0.00000000
 O      2   1   3     4.491409123621   113.32931602    51.86378181
 N      3   1   2     2.269930710055    62.59517036   276.68996998
 N      4   2   1     2.304143450213    63.27607111    68.88693577
 N      3   1   2     2.274792937102     4.13415310   343.10512988
 N      4   2   1     2.241227167507     1.54098080    94.36725204
 C      1   2   3     2.363971901764    80.15848091   295.34713043
 C      2   1   3     2.321783838469    88.59955796   112.34215433
 C      5   3   1     1.407456160505   148.33329501   350.94574895
 C      6   4   2     1.408804086365   145.56694828    21.81784509
 C      9   1   2     1.490559625380    92.03630197   235.19679213
 C     10   2   1     1.490684845858    99.81648872    60.71994043
 C      1   2   3     1.199407369473    68.10732904   321.62812717
 C      2   1   3     1.191461738908   102.83870251    85.40832036
 C      3   1   2     1.194166657851    30.67820599   278.87175696
 C      4   2   1     1.180072587369    31.85722093    72.92358535
 H     11   5   3     1.056815451707   117.18426325   182.54867202
 H     12   6   4     1.074571164060   114.50820286   163.21474623
 H     13   9   1     1.179884494002   122.85634064   120.54845603
 H     13   9   1     1.101820603465   106.42609402   243.92711982
 H     13   9   1     1.089378511631   115.41835758   357.46119914
 H     14  10   2     1.111740846977   110.53266393   143.30664405
 H     14  10   2     1.174575815252   113.38695461   259.26343168
 H     14  10   2     1.095190634653   109.49239132     1.68796667
 H      5   3   1     1.026007652640    89.08802340   176.49316224
 H      6   4   2     1.018096450762    91.91943848   178.13708145
 H      7   3  17     0.999804760157    96.30210991   170.82741289
 H      8   4  18     0.973795840990    86.97642940   176.97205885

---------------------------
INTERNAL COORDINATES (A.U.)
---------------------------
 O      0   0   0     0.000000000000     0.00000000     0.00000000
 O      1   0   0     6.887965537097     0.00000000     0.00000000
 O      1   2   0     8.646723791763    66.72999021     0.00000000
 O      2   1   3     8.487533199039   113.32931602    51.86378181
 N      3   1   2     4.289547384980    62.59517036   276.68996998
 N      4   2   1     4.354200094171    63.27607111    68.88693577
 N      3   1   2     4.298735662500     4.13415310   343.10512988
 N      4   2   1     4.235305550493     1.54098080    94.36725204
 C      1   2   3     4.467259482618    80.15848091   295.34713043
 C      2   1   3     4.387535596872    88.59955796   112.34215433
 C      5   3   1     2.659706688855   148.33329501   350.94574895
 C      6   4   2     2.662253899578   145.56694828    21.81784509
 C      9   1   2     2.816749478248    92.03630197   235.19679213
 C     10   2   1     2.816986110659    99.81648872    60.71994043
 C      1   2   3     2.266551451311    68.10732904   321.62812717
 C      2   1   3     2.251536385581   102.83870251    85.40832036
 C      3   1   2     2.256647941599    30.67820599   278.87175696
 C      4   2   1     2.230014008275    31.85722093    72.92358535
 H     11   5   3     1.997091777823   117.18426325   182.54867202
 H     12   6   4     2.030645211482   114.50820286   163.21474623
 H     13   9   1     2.229658563323   122.85634064   120.54845603
 H     13   9   1     2.082139189260   106.42609402   243.92711982
 H     13   9   1     2.058627043161   115.41835758   357.46119914
 H     14  10   2     2.100885732680   110.53266393   143.30664405
 H     14  10   2     2.219626614353   113.38695461   259.26343168
 H     14  10   2     2.069610363929   109.49239132     1.68796667
 H      5   3   1     1.938873474797    89.08802340   176.49316224
 H      6   4   2     1.923923469857    91.91943848   178.13708145
 H      7   3  17     1.889357184088    96.30210991   170.82741289
 H      8   4  18     1.840207449823    86.97642940   176.97205885

---------------------
BASIS SET INFORMATION
---------------------
There are 4 groups of distinct atoms

 Group   1 Type O   : 12s7p3d1f contracted to 6s4p3d1f pattern {621111/4111/111/1}
 Group   2 Type N   : 12s6p3d1f contracted to 6s3p3d1f pattern {621111/411/111/1}
 Group   3 Type C   : 12s6p3d1f contracted to 6s3p3d1f pattern {621111/411/111/1}
 Group   4 Type H   : 5s3p1d contracted to 3s3p1d pattern {311/111/1}

Atom   0O    basis set group =>   1
Atom   1O    basis set group =>   1
Atom   2O    basis set group =>   1
Atom   3O    basis set group =>   1
Atom   4N    basis set group =>   2
Atom   5N    basis set group =>   2
Atom   6N    basis set group =>   2
Atom   7N    basis set group =>   2
Atom   8C    basis set group =>   3
Atom   9C    basis set group =>   3
Atom  10C    basis set group =>   3
Atom  11C    basis set group =>   3
Atom  12C    basis set group =>   3
Atom  13C    basis set group =>   3
Atom  14C    basis set group =>   3
Atom  15C    basis set group =>   3
Atom  16C    basis set group =>   3
Atom  17C    basis set group =>   3
Atom  18H    basis set group =>   4
Atom  19H    basis set group =>   4
Atom  20H    basis set group =>   4
Atom  21H    basis set group =>   4
Atom  22H    basis set group =>   4
Atom  23H    basis set group =>   4
Atom  24H    basis set group =>   4
Atom  25H    basis set group =>   4
Atom  26H    basis set group =>   4
Atom  27H    basis set group =>   4
Atom  28H    basis set group =>   4
Atom  29H    basis set group =>   4
---------------------------------
AUXILIARY/J BASIS SET INFORMATION
---------------------------------
There are 4 groups of distinct atoms

 Group   1 Type O   : 12s5p4d2f1g contracted to 6s4p3d1f1g pattern {711111/2111/211/2/1}
 Group   2 Type N   : 12s5p4d2f1g contracted to 6s4p3d1f1g pattern {711111/2111/211/2/1}
 Group   3 Type C   : 12s5p4d2f1g contracted to 6s4p3d1f1g pattern {711111/2111/211/2/1}
 Group   4 Type H   : 5s2p1d contracted to 3s1p1d pattern {311/2/1}

Atom   0O    basis set group =>   1
Atom   1O    basis set group =>   1
Atom   2O    basis set group =>   1
Atom   3O    basis set group =>   1
Atom   4N    basis set group =>   2
Atom   5N    basis set group =>   2
Atom   6N    basis set group =>   2
Atom   7N    basis set group =>   2
Atom   8C    basis set group =>   3
Atom   9C    basis set group =>   3
Atom  10C    basis set group =>   3
Atom  11C    basis set group =>   3
Atom  12C    basis set group =>   3
Atom  13C    basis set group =>   3
Atom  14C    basis set group =>   3
Atom  15C    basis set group =>   3
Atom  16C    basis set group =>   3
Atom  17C    basis set group =>   3
Atom  18H    basis set group =>   4
Atom  19H    basis set group =>   4
Atom  20H    basis set group =>   4
Atom  21H    basis set group =>   4
Atom  22H    basis set group =>   4
Atom  23H    basis set group =>   4
Atom  24H    basis set group =>   4
Atom  25H    basis set group =>   4
Atom  26H    basis set group =>   4
Atom  27H    basis set group =>   4
Atom  28H    basis set group =>   4
Atom  29H    basis set group =>   4
[1739883921.343120] [ohm:91374:0]        ib_iface.c:1059 UCX  ERROR ibv_create_cq(cqe=256) failed: Connection timed out
[1739883921.353550] [ohm:91379:0]        ib_iface.c:1059 UCX  ERROR ibv_create_cq(cqe=256) failed: Connection timed out
[1739883921.357694] [ohm:91380:0]        ib_iface.c:1059 UCX  ERROR ibv_create_cq(cqe=256) failed: Connection timed out
[1739883921.358261] [ohm:91375:0]        ib_iface.c:1059 UCX  ERROR ibv_create_cq(cqe=256) failed: Connection timed out
[1739883921.386556] [ohm:91382:0]        ib_iface.c:1059 UCX  ERROR ibv_create_cq(cqe=256) failed: Connection timed out
[1739883921.389830] [ohm:91384:0]        ib_iface.c:1059 UCX  ERROR ibv_create_cq(cqe=256) failed: Connection timed out
[1739883921.395161] [ohm:91377:0]        ib_iface.c:1059 UCX  ERROR ibv_create_cq(cqe=256) failed: Connection timed out
[1739883921.399042] [ohm:91373:0]        ib_iface.c:1059 UCX  ERROR ibv_create_cq(cqe=256) failed: Connection timed out
[1739883921.399303] [ohm:91381:0]        ib_iface.c:1059 UCX  ERROR ibv_create_cq(cqe=256) failed: Connection timed out
[1739883921.400062] [ohm:91385:0]        ib_iface.c:1059 UCX  ERROR ibv_create_cq(cqe=256) failed: Connection timed out
[1739883921.416065] [ohm:91378:0]        ib_iface.c:1059 UCX  ERROR ibv_create_cq(cqe=256) failed: Connection timed out
[1739883921.440497] [ohm:91399:0]        ib_iface.c:1059 UCX  ERROR ibv_create_cq(cqe=256) failed: Connection timed out
[1739883921.440850] [ohm:91464:0]        ib_iface.c:1059 UCX  ERROR ibv_create_cq(cqe=256) failed: Connection timed out
[1739883921.472341] [ohm:91469:0]        ib_iface.c:1059 UCX  ERROR ibv_create_cq(cqe=256) failed: Connection timed out
[1739883921.473010] [ohm:91388:0]        ib_iface.c:1059 UCX  ERROR ibv_create_cq(cqe=256) failed: Connection timed out
[1739883921.473416] [ohm:91461:0]        ib_iface.c:1059 UCX  ERROR ibv_create_cq(cqe=256) failed: Connection timed out
[1739883921.476208] [ohm:91396:0]        ib_iface.c:1059 UCX  ERROR ibv_create_cq(cqe=256) failed: Connection timed out
[1739883921.476460] [ohm:91466:0]        ib_iface.c:1059 UCX  ERROR ibv_create_cq(cqe=256) failed: Connection timed out
[1739883921.478821] [ohm:91391:0]        ib_iface.c:1059 UCX  ERROR ibv_create_cq(cqe=256) failed: Connection timed out
[1739883921.486109] [ohm:91390:0]        ib_iface.c:1059 UCX  ERROR ibv_create_cq(cqe=256) failed: Connection timed out
[1739883921.518269] [ohm:91395:0]        ib_iface.c:1059 UCX  ERROR ibv_create_cq(cqe=256) failed: Connection timed out
[1739883921.522610] [ohm:91437:0]        ib_iface.c:1059 UCX  ERROR ibv_create_cq(cqe=256) failed: Connection timed out
[1739883921.526364] [ohm:91508:0]        ib_iface.c:1059 UCX  ERROR ibv_create_cq(cqe=256) failed: Connection timed out
[1739883921.533948] [ohm:91393:0]        ib_iface.c:1059 UCX  ERROR ibv_create_cq(cqe=256) failed: Connection timed out
[1739883921.534186] [ohm:91387:0]        ib_iface.c:1059 UCX  ERROR ibv_create_cq(cqe=256) failed: Connection timed out
[1739883921.537954] [ohm:91394:0]        ib_iface.c:1059 UCX  ERROR ibv_create_cq(cqe=256) failed: Connection timed out
[1739883921.537971] [ohm:91438:0]        ib_iface.c:1059 UCX  ERROR ibv_create_cq(cqe=256) failed: Connection timed out
[1739883921.549616] [ohm:91468:0]        ib_iface.c:1059 UCX  ERROR ibv_create_cq(cqe=256) failed: Connection timed out
[1739883921.558705] [ohm:91383:0]        ib_iface.c:1059 UCX  ERROR ibv_create_cq(cqe=256) failed: Connection timed out
[1739883921.563386] [ohm:91413:0]        ib_iface.c:1059 UCX  ERROR ibv_create_cq(cqe=256) failed: Connection timed out
[1739883921.575416] [ohm:91476:0]        ib_iface.c:1059 UCX  ERROR ibv_create_cq(cqe=256) failed: Connection timed out
[1739883921.576606] [ohm:91401:0]        ib_iface.c:1059 UCX  ERROR ibv_create_cq(cqe=256) failed: Connection timed out
[1739883921.581227] [ohm:91392:0]        ib_iface.c:1059 UCX  ERROR ibv_create_cq(cqe=256) failed: Connection timed out
[1739883921.583093] [ohm:91398:0]        ib_iface.c:1059 UCX  ERROR ibv_create_cq(cqe=256) failed: Connection timed out
[1739883921.591549] [ohm:91416:0]        ib_iface.c:1059 UCX  ERROR ibv_create_cq(cqe=256) failed: Connection timed out
[1739883921.596986] [ohm:91400:0]        ib_iface.c:1059 UCX  ERROR ibv_create_cq(cqe=256) failed: Connection timed out
[1739883921.598660] [ohm:91449:0]        ib_iface.c:1059 UCX  ERROR ibv_create_cq(cqe=256) failed: Connection timed out
[1739883921.602010] [ohm:91459:0]        ib_iface.c:1059 UCX  ERROR ibv_create_cq(cqe=256) failed: Connection timed out
[1739883921.610562] [ohm:91422:0]        ib_iface.c:1059 UCX  ERROR ibv_create_cq(cqe=256) failed: Connection timed out
[1739883921.613406] [ohm:91426:0]        ib_iface.c:1059 UCX  ERROR ibv_create_cq(cqe=256) failed: Connection timed out
[1739883921.614381] [ohm:91429:0]        ib_iface.c:1059 UCX  ERROR ibv_create_cq(cqe=256) failed: Connection timed out
[1739883921.618832] [ohm:91408:0]        ib_iface.c:1059 UCX  ERROR ibv_create_cq(cqe=256) failed: Connection timed out
[1739883921.623833] [ohm:91486:0]        ib_iface.c:1059 UCX  ERROR ibv_create_cq(cqe=256) failed: Connection timed out
[1739883921.624429] [ohm:91405:0]        ib_iface.c:1059 UCX  ERROR ibv_create_cq(cqe=256) failed: Connection timed out
[1739883921.635474] [ohm:91475:0]        ib_iface.c:1059 UCX  ERROR ibv_create_cq(cqe=256) failed: Connection timed out
[1739883921.636932] [ohm:91443:0]        ib_iface.c:1059 UCX  ERROR ibv_create_cq(cqe=256) failed: Connection timed out
[1739883921.639204] [ohm:91372:0]        ib_iface.c:1059 UCX  ERROR ibv_create_cq(cqe=256) failed: Connection timed out
[1739883921.639466] [ohm:91418:0]        ib_iface.c:1059 UCX  ERROR ibv_create_cq(cqe=256) failed: Connection timed out
[1739883921.639870] [ohm:91503:0]        ib_iface.c:1059 UCX  ERROR ibv_create_cq(cqe=256) failed: Connection timed out
[1739883921.640396] [ohm:91501:0]        ib_iface.c:1059 UCX  ERROR ibv_create_cq(cqe=256) failed: Connection timed out
[1739883921.643907] [ohm:91376:0]        ib_iface.c:1059 UCX  ERROR ibv_create_cq(cqe=256) failed: Connection timed out
[1739883921.645249] [ohm:91483:0]        ib_iface.c:1059 UCX  ERROR ibv_create_cq(cqe=256) failed: Connection timed out
[1739883921.646299] [ohm:91506:0]        ib_iface.c:1059 UCX  ERROR ibv_create_cq(cqe=256) failed: Connection timed out
[1739883921.649201] [ohm:91389:0]        ib_iface.c:1059 UCX  ERROR ibv_create_cq(cqe=256) failed: Connection timed out
[1739883921.650692] [ohm:91497:0]        ib_iface.c:1059 UCX  ERROR ibv_create_cq(cqe=256) failed: Connection timed out
[1739883921.651055] [ohm:91386:0]        ib_iface.c:1059 UCX  ERROR ibv_create_cq(cqe=256) failed: Connection timed out
[1739883921.651176] [ohm:91397:0]        ib_iface.c:1059 UCX  ERROR ibv_create_cq(cqe=256) failed: Connection timed out
[1739883921.653561] [ohm:91491:0]        ib_iface.c:1059 UCX  ERROR ibv_create_cq(cqe=256) failed: Connection timed out
[1739883921.653885] [ohm:91433:0]        ib_iface.c:1059 UCX  ERROR ibv_create_cq(cqe=256) failed: Connection timed out
[1739883921.656848] [ohm:91514:0]        ib_iface.c:1059 UCX  ERROR ibv_create_cq(cqe=256) failed: Connection timed out
[1739883921.661801] [ohm:91454:0]        ib_iface.c:1059 UCX  ERROR ibv_create_cq(cqe=256) failed: Connection timed out
[1739883921.664258] [ohm:91496:0]        ib_iface.c:1059 UCX  ERROR ibv_create_cq(cqe=256) failed: Connection timed out
[1739883921.664354] [ohm:91490:0]        ib_iface.c:1059 UCX  ERROR ibv_create_cq(cqe=256) failed: Connection timed out
[1739883921.666893] [ohm:91513:0]        ib_iface.c:1059 UCX  ERROR ibv_create_cq(cqe=256) failed: Connection timed out


           ************************************************************
           *        Program running with 64 parallel MPI-processes    *
           *              working on a common directory               *
           ************************************************************
------------------------------------------------------------------------------
                             ORCA STARTUP CALCULATIONS
                           -- RI-GTO INTEGRALS CHOSEN --
------------------------------------------------------------------------------
------------------------------------------------------------------------------
                   ___                                                        
                  /   \      - P O W E R E D   B Y -                         
                 /     \                                                     
                 |  |  |   _    _      __       _____    __    __             
                 |  |  |  | |  | |    /  \     |  _  \  |  |  /  |          
                  \  \/   | |  | |   /    \    | | | |  |  | /  /          
                 / \  \   | |__| |  /  /\  \   | |_| |  |  |/  /          
                |  |  |   |  __  | /  /__\  \  |    /   |      \           
                |  |  |   | |  | | |   __   |  |    \   |  |\   \          
                \     /   | |  | | |  |  |  |  | |\  \  |  | \   \       
                 \___/    |_|  |_| |__|  |__|  |_| \__\ |__|  \__/        
                                                                              
                      - O R C A' S   B I G   F R I E N D -                    
                                      &                                       
                       - I N T E G R A L  F E E D E R -                       
                                                                              
 v1 FN, 2020, v2 2021, v3 2022-2024                                           
------------------------------------------------------------------------------


----------------------
SHARK INTEGRAL PACKAGE
----------------------

Number of atoms                             ...     30
Number of basis functions                   ...    882
Number of shells                            ...    322
Maximum angular momentum                    ...      3
Integral batch strategy                     ... SHARK/LIBINT Hybrid
RI-J (if used) integral strategy            ... SPLIT-RIJ (Revised 2003 algorithm where possible)
Printlevel                                  ...      1
Contraction scheme used                     ... SEGMENTED contraction
Prescreening option                         ... SCHWARTZ
   Thresh                                   ... 2.500e-11
   Tcut                                     ... 2.500e-12
   Tpresel                                  ... 2.500e-12 
Coulomb Range Separation                    ... NOT USED
Exchange Range Separation                   ... Long Range
   Mu parameter                             ... 3.000e-01
   Scaling (regular/separated)              ... 1.500e-01 8.500e-01
Multipole approximations                    ... NOT USED
Finite Nucleus Model                        ... NOT USED
CABS basis                                  ... NOT available
Auxiliary Coulomb fitting basis             ... AVAILABLE
   # of basis functions in Aux-J            ...   1014
   # of shells in Aux-J                     ...    330
   Maximum angular momentum in Aux-J        ...      4
Auxiliary J/K fitting basis                 ... NOT available
Auxiliary Correlation fitting basis         ... NOT available
Auxiliary 'external' fitting basis          ... NOT available

Checking pre-screening integrals            ... done (  0.0 sec) Dimension = 322
Check shell pair data                       ... done (  0.0 sec)
Shell pair information
Shell pair cut-off parameter TPreSel        ...   2.5e-12
Total number of shell pairs                 ...     52003
Shell pairs after pre-screening             ...     43899
Total number of primitive shell pairs       ...    129718
Primitive shell pairs kept                  ...     80993
          la=0 lb=0:   8502 shell pairs
          la=1 lb=0:  11661 shell pairs
          la=1 lb=1:   4043 shell pairs
          la=2 lb=0:   7896 shell pairs
          la=2 lb=1:   5457 shell pairs
          la=2 lb=2:   1881 shell pairs
          la=3 lb=0:   1952 shell pairs
          la=3 lb=1:   1421 shell pairs
          la=3 lb=2:    954 shell pairs
          la=3 lb=3:    132 shell pairs

Calculating one electron integrals          ... done (  0.2 sec)
Calculating RI/J V-Matrix + Cholesky decomp.... done (  0.1 sec)
Calculating Nuclear repulsion               ... done (  0.0 sec) ENN=   1381.707967404982 Eh

Diagonalization of the overlap matrix:
Smallest eigenvalue                        ... 8.208e-07
Time for diagonalization                   ...    0.123 sec
Threshold for overlap eigenvalues          ... 1.000e-07
Number of eigenvalues below threshold      ... 0

IMPORTANT:
Smallest eigenvalue of S below the DiffSThresh (1.000e-06) while
Thresh>1e-12 and/or TCut>1e-13! In order to avoid SCF convergence issues,
Thresh will be set to at least 1e-12 and TCut to at least 1e-13.
This can be turned off by adding %SCF DiffSThresh -1 END to the input.

Time for construction of square roots      ...    0.133 sec
Total time needed                          ...    0.274 sec

-------------------
DFT GRID GENERATION
-------------------

General Integration Accuracy     IntAcc      ... 4.388
Radial Grid Type                 RadialGrid  ... OptM3 with GC (2021)
Angular Grid (max. ang.)         AngularGrid ... 4 (Lebedev-302)
Angular grid pruning method      GridPruning ... 4 (adaptive)
Weight generation scheme         WeightScheme... mBecke (2022)
Basis function cutoff            BFCut       ... 1.0000e-11
Integration weight cutoff        WCut        ... 1.0000e-14
Partially contracted basis set               ... off
Rotationally invariant grid construction     ... off
Angular grids for H and He will be reduced by one unit
Diffuse basis detected: some atoms will have their outermost
                        angular grid increased by 1.

Total number of grid points                  ...   152973
Total number of batches                      ...     2407
Average number of points per batch           ...       63
Average number of grid points per atom       ...     5099

--------------------
COSX GRID GENERATION
--------------------

GRIDX 1
-------
General Integration Accuracy     IntAcc      ... 3.816
Radial Grid Type                 RadialGrid  ... OptM3 with GC (2021)
Angular Grid (max. ang.)         AngularGrid ... 1 (Lebedev-50)
Angular grid pruning method      GridPruning ... 4 (adaptive)
Weight generation scheme         WeightScheme... mBecke (2022)
Basis function cutoff            BFCut       ... 1.0000e-11
Integration weight cutoff        WCut        ... 1.0000e-14
Partially contracted basis set               ... on
Rotationally invariant grid construction     ... off
Angular grids for H and He will be reduced by one unit
Diffuse basis detected: some atoms will have their outermost
                        angular grid increased by 1.

Total number of grid points                  ...    19138
Total number of batches                      ...      166
Average number of points per batch           ...      115
Average number of grid points per atom       ...      638
UseSFitting                                  ... on

GRIDX 2
-------
General Integration Accuracy     IntAcc      ... 4.020
Radial Grid Type                 RadialGrid  ... OptM3 with GC (2021)
Angular Grid (max. ang.)         AngularGrid ... 2 (Lebedev-110)
Angular grid pruning method      GridPruning ... 4 (adaptive)
Weight generation scheme         WeightScheme... mBecke (2022)
Basis function cutoff            BFCut       ... 1.0000e-11
Integration weight cutoff        WCut        ... 1.0000e-14
Partially contracted basis set               ... on
Rotationally invariant grid construction     ... off
Angular grids for H and He will be reduced by one unit
Diffuse basis detected: some atoms will have their outermost
                        angular grid increased by 1.

Total number of grid points                  ...    46359
Total number of batches                      ...      376
Average number of points per batch           ...      123
Average number of grid points per atom       ...     1545
UseSFitting                                  ... on

GRIDX 3
-------
General Integration Accuracy     IntAcc      ... 4.338
Radial Grid Type                 RadialGrid  ... OptM3 with GC (2021)
Angular Grid (max. ang.)         AngularGrid ... 3 (Lebedev-194)
Angular grid pruning method      GridPruning ... 4 (adaptive)
Weight generation scheme         WeightScheme... mBecke (2022)
Basis function cutoff            BFCut       ... 1.0000e-11
Integration weight cutoff        WCut        ... 1.0000e-14
Partially contracted basis set               ... on
Rotationally invariant grid construction     ... off
Angular grids for H and He will be reduced by one unit
Diffuse basis detected: some atoms will have their outermost
                        angular grid increased by 1.

Total number of grid points                  ...   102121
Total number of batches                      ...      810
Average number of points per batch           ...      126
Average number of grid points per atom       ...     3404
UseSFitting                                  ... on
Initializing property integral containers    ... done (  0.0 sec)

SHARK setup successfully completed in   4.0 seconds

Maximum memory used throughout the entire STARTUP-calculation: 78.6 MB
[1739883927.500027] [ohm:91727:0]        ib_iface.c:1059 UCX  ERROR ibv_create_cq(cqe=256) failed: Connection timed out
[1739883927.500405] [ohm:91731:0]        ib_iface.c:1059 UCX  ERROR ibv_create_cq(cqe=256) failed: Connection timed out
[1739883927.512400] [ohm:91756:0]        ib_iface.c:1059 UCX  ERROR ibv_create_cq(cqe=256) failed: Connection timed out
[1739883927.518582] [ohm:91730:0]        ib_iface.c:1059 UCX  ERROR ibv_create_cq(cqe=256) failed: Connection timed out
[1739883927.532184] [ohm:91728:0]        ib_iface.c:1059 UCX  ERROR ibv_create_cq(cqe=256) failed: Connection timed out
[1739883927.538078] [ohm:91748:0]        ib_iface.c:1059 UCX  ERROR ibv_create_cq(cqe=256) failed: Connection timed out
[1739883927.567264] [ohm:91770:0]        ib_iface.c:1059 UCX  ERROR ibv_create_cq(cqe=256) failed: Connection timed out
[1739883927.596447] [ohm:91737:0]        ib_iface.c:1059 UCX  ERROR ibv_create_cq(cqe=256) failed: Connection timed out
[1739883927.609405] [ohm:91868:0]        ib_iface.c:1059 UCX  ERROR ibv_create_cq(cqe=256) failed: Connection timed out
[1739883927.611899] [ohm:91860:0]        ib_iface.c:1059 UCX  ERROR ibv_create_cq(cqe=256) failed: Connection timed out
[1739883927.615305] [ohm:91822:0]        ib_iface.c:1059 UCX  ERROR ibv_create_cq(cqe=256) failed: Connection timed out
[1739883927.625109] [ohm:91746:0]        ib_iface.c:1059 UCX  ERROR ibv_create_cq(cqe=256) failed: Connection timed out
[1739883927.627768] [ohm:91749:0]        ib_iface.c:1059 UCX  ERROR ibv_create_cq(cqe=256) failed: Connection timed out
[1739883927.628083] [ohm:91732:0]        ib_iface.c:1059 UCX  ERROR ibv_create_cq(cqe=256) failed: Connection timed out
[1739883927.629736] [ohm:91810:0]        ib_iface.c:1059 UCX  ERROR ibv_create_cq(cqe=256) failed: Connection timed out
[1739883927.632217] [ohm:91814:0]        ib_iface.c:1059 UCX  ERROR ibv_create_cq(cqe=256) failed: Connection timed out
[1739883927.636352] [ohm:91840:0]        ib_iface.c:1059 UCX  ERROR ibv_create_cq(cqe=256) failed: Connection timed out
[1739883927.642414] [ohm:91796:0]        ib_iface.c:1059 UCX  ERROR ibv_create_cq(cqe=256) failed: Connection timed out
[1739883927.646819] [ohm:91804:0]        ib_iface.c:1059 UCX  ERROR ibv_create_cq(cqe=256) failed: Connection timed out
[1739883927.655400] [ohm:91846:0]        ib_iface.c:1059 UCX  ERROR ibv_create_cq(cqe=256) failed: Connection timed out
[1739883927.686581] [ohm:91735:0]        ib_iface.c:1059 UCX  ERROR ibv_create_cq(cqe=256) failed: Connection timed out
[1739883927.698747] [ohm:91726:0]        ib_iface.c:1059 UCX  ERROR ibv_create_cq(cqe=256) failed: Connection timed out
[1739883927.699170] [ohm:91747:0]        ib_iface.c:1059 UCX  ERROR ibv_create_cq(cqe=256) failed: Connection timed out
[1739883927.706130] [ohm:91734:0]        ib_iface.c:1059 UCX  ERROR ibv_create_cq(cqe=256) failed: Connection timed out
[1739883927.720869] [ohm:91775:0]        ib_iface.c:1059 UCX  ERROR ibv_create_cq(cqe=256) failed: Connection timed out
[1739883927.722568] [ohm:91736:0]        ib_iface.c:1059 UCX  ERROR ibv_create_cq(cqe=256) failed: Connection timed out
[1739883927.731401] [ohm:91793:0]        ib_iface.c:1059 UCX  ERROR ibv_create_cq(cqe=256) failed: Connection timed out
[1739883927.735658] [ohm:91808:0]        ib_iface.c:1059 UCX  ERROR ibv_create_cq(cqe=256) failed: Connection timed out
[1739883927.743768] [ohm:91875:0]        ib_iface.c:1059 UCX  ERROR ibv_create_cq(cqe=256) failed: Connection timed out
[1739883927.744780] [ohm:91762:0]        ib_iface.c:1059 UCX  ERROR ibv_create_cq(cqe=256) failed: Connection timed out
[1739883927.745042] [ohm:91786:0]        ib_iface.c:1059 UCX  ERROR ibv_create_cq(cqe=256) failed: Connection timed out
[1739883927.765165] [ohm:91854:0]        ib_iface.c:1059 UCX  ERROR ibv_create_cq(cqe=256) failed: Connection timed out
[1739883927.769108] [ohm:91779:0]        ib_iface.c:1059 UCX  ERROR ibv_create_cq(cqe=256) failed: Connection timed out
[1739883927.769394] [ohm:91829:0]        ib_iface.c:1059 UCX  ERROR ibv_create_cq(cqe=256) failed: Connection timed out
[1739883927.770503] [ohm:91729:0]        ib_iface.c:1059 UCX  ERROR ibv_create_cq(cqe=256) failed: Connection timed out
[1739883927.770507] [ohm:91780:0]        ib_iface.c:1059 UCX  ERROR ibv_create_cq(cqe=256) failed: Connection timed out
[1739883927.771186] [ohm:91836:0]        ib_iface.c:1059 UCX  ERROR ibv_create_cq(cqe=256) failed: Connection timed out
[1739883927.773390] [ohm:91767:0]        ib_iface.c:1059 UCX  ERROR ibv_create_cq(cqe=256) failed: Connection timed out
[1739883927.774336] [ohm:91725:0]        ib_iface.c:1059 UCX  ERROR ibv_create_cq(cqe=256) failed: Connection timed out
[1739883927.776499] [ohm:91790:0]        ib_iface.c:1059 UCX  ERROR ibv_create_cq(cqe=256) failed: Connection timed out
[1739883927.779109] [ohm:91878:0]        ib_iface.c:1059 UCX  ERROR ibv_create_cq(cqe=256) failed: Connection timed out
[1739883927.798917] [ohm:91833:0]        ib_iface.c:1059 UCX  ERROR ibv_create_cq(cqe=256) failed: Connection timed out
[1739883927.798917] [ohm:91799:0]        ib_iface.c:1059 UCX  ERROR ibv_create_cq(cqe=256) failed: Connection timed out
[1739883927.801462] [ohm:91788:0]        ib_iface.c:1059 UCX  ERROR ibv_create_cq(cqe=256) failed: Connection timed out
[1739883927.803107] [ohm:91820:0]        ib_iface.c:1059 UCX  ERROR ibv_create_cq(cqe=256) failed: Connection timed out
[1739883927.812258] [ohm:91750:0]        ib_iface.c:1059 UCX  ERROR ibv_create_cq(cqe=256) failed: Connection timed out
[1739883927.816840] [ohm:91785:0]        ib_iface.c:1059 UCX  ERROR ibv_create_cq(cqe=256) failed: Connection timed out
[1739883927.820128] [ohm:91843:0]        ib_iface.c:1059 UCX  ERROR ibv_create_cq(cqe=256) failed: Connection timed out
[1739883927.822743] [ohm:91733:0]        ib_iface.c:1059 UCX  ERROR ibv_create_cq(cqe=256) failed: Connection timed out
[1739883927.822744] [ohm:91776:0]        ib_iface.c:1059 UCX  ERROR ibv_create_cq(cqe=256) failed: Connection timed out
[1739883927.822922] [ohm:91751:0]        ib_iface.c:1059 UCX  ERROR ibv_create_cq(cqe=256) failed: Connection timed out
[1739883927.823058] [ohm:91758:0]        ib_iface.c:1059 UCX  ERROR ibv_create_cq(cqe=256) failed: Connection timed out
[1739883927.825883] [ohm:91852:0]        ib_iface.c:1059 UCX  ERROR ibv_create_cq(cqe=256) failed: Connection timed out
[1739883927.826088] [ohm:91848:0]        ib_iface.c:1059 UCX  ERROR ibv_create_cq(cqe=256) failed: Connection timed out
[1739883927.827142] [ohm:91789:0]        ib_iface.c:1059 UCX  ERROR ibv_create_cq(cqe=256) failed: Connection timed out
[1739883927.827234] [ohm:91787:0]        ib_iface.c:1059 UCX  ERROR ibv_create_cq(cqe=256) failed: Connection timed out
[1739883927.827290] [ohm:91802:0]        ib_iface.c:1059 UCX  ERROR ibv_create_cq(cqe=256) failed: Connection timed out
[1739883927.833255] [ohm:91871:0]        ib_iface.c:1059 UCX  ERROR ibv_create_cq(cqe=256) failed: Connection timed out
[1739883927.833312] [ohm:91815:0]        ib_iface.c:1059 UCX  ERROR ibv_create_cq(cqe=256) failed: Connection timed out
[1739883927.833373] [ohm:91826:0]        ib_iface.c:1059 UCX  ERROR ibv_create_cq(cqe=256) failed: Connection timed out
[1739883927.836484] [ohm:91791:0]        ib_iface.c:1059 UCX  ERROR ibv_create_cq(cqe=256) failed: Connection timed out
[1739883927.839683] [ohm:91771:0]        ib_iface.c:1059 UCX  ERROR ibv_create_cq(cqe=256) failed: Connection timed out
[1739883927.839850] [ohm:91861:0]        ib_iface.c:1059 UCX  ERROR ibv_create_cq(cqe=256) failed: Connection timed out
[1739883927.840043] [ohm:91778:0]        ib_iface.c:1059 UCX  ERROR ibv_create_cq(cqe=256) failed: Connection timed out


           ************************************************************
           *        Program running with 64 parallel MPI-processes    *
           *              working on a common directory               *
           ************************************************************
-------------------------------------------------------------------------------
                                 ORCA GUESS
                   Start orbitals & Density for SCF / CASSCF
-------------------------------------------------------------------------------

------------
SCF SETTINGS
------------
Hamiltonian:
 Density Functional     Method          .... DFT(GTOs)
  Functional kind                       .... Exchange-Correlation
  Functional name                       .... wB97M-V exchange-correlation functional
  Functional family                     .... Hybrid MGGA
  Functional refs                              
    [ 0] N. Mardirossian and M. Head-Gordon.,  J. Chem. Phys. 144, 214110 (2016), doi: 10.1063/1.4952647
  Fraction of HF Exchange (short range) .... 0.1500
  Fraction of HF Exchange (long range)  .... 1.0000
  Range separation parameter mu         .... 0.3000
  Functional external parameters        .... 17
    Parameter  0 _cx00      =  8.500000e-01 : u^00 coefficient for exchange
    Parameter  1 _cx01      =  1.007000e+00 : u^01 coefficient for exchange
    Parameter  2 _cx10      =  2.590000e-01 : u^10 coefficient for exchange
    Parameter  3 _css00     =  4.430000e-01 : u^00 coefficient for same-spin correlation
    Parameter  4 _css04     = -1.437000e+00 : u^04 coefficient for same-spin correlation
    Parameter  5 _css10     = -4.535000e+00 : u^10 coefficient for same-spin correlation
    Parameter  6 _css20     = -3.390000e+00 : u^20 coefficient for same-spin correlation
    Parameter  7 _css43     =  4.278000e+00 : u^43 coefficient for same-spin correlation
    Parameter  8 _cos00     =  1.000000e+00 : u^00 coefficient for opposite-spin correlation
    Parameter  9 _cos10     =  1.358000e+00 : u^10 coefficient for opposite-spin correlation
    Parameter 10 _cos20     =  2.924000e+00 : u^20 coefficient for opposite-spin correlation
    Parameter 11 _cos21     = -8.812000e+00 : u^21 coefficient for opposite-spin correlation
    Parameter 12 _cos60     = -1.390000e+00 : u^60 coefficient for opposite-spin correlation
    Parameter 13 _cos61     =  9.142000e+00 : u^61 coefficient for opposite-spin correlation
    Parameter 14 _alpha     =  1.000000e+00 : fraction of HF exchange
    Parameter 15 _beta      = -8.500000e-01 : fraction of short-range exchange
    Parameter 16 _omega     =  3.000000e-01 : range-separation constant
 Long-range corrected/Screened/Range-Separated Hybrid DFT is turned on
   Amount of maximum screened exact exchange              ....  0.850000
   Range separation parameter mu (erf(mu*r12)/r12)        ....  0.300000
 RI-approximation to the Coulomb term is turned on
   Number of AuxJ basis functions       .... 1014
   RIJ-COSX (HFX calculated with COS-X)).... on


General Settings:
 Integral files         IntName         .... orca
 Hartree-Fock type      HFTyp           .... UHF
 Total Charge           Charge          ....    0
 Multiplicity           Mult            ....    3
 Number of Electrons    NEL             ....  132
 Basis Dimension        Dim             ....  882
 Nuclear Repulsion      ENuc            ....   1381.7079674050 Eh

Convergence Acceleration:
 AO-DIIS                CNVDIIS         .... on
   Start iteration      DIISMaxIt       ....    12
   Startup error        DIISStart       ....  0.200000
   # of expansion vecs  DIISMaxEq       ....     5
   Bias factor          DIISBfac        ....   1.050
   Max. coefficient     DIISMaxC        ....  10.000
 MO-DIIS                CNVKDIIS        .... off
 Trust-Rad. Augm. Hess. CNVTRAH         .... auto
   Auto Start mean grad. ratio tolernc. ....  1.125000
   Auto Start start iteration           ....    50
   Auto Start num. interpolation iter.  ....    10
   Max. Number of Micro iterations      ....    24
   Max. Number of Macro iterations      .... Maxiter - #DIIS iter
   Number of Davidson start vectors     ....     2
   Converg. threshold    (grad. norm)   ....   1.000e-05
   Grad. Scal. Fac. for Micro threshold ....   0.100
   Minimum threshold for Micro iter.    ....   1.000e-02
   NR start threshold (gradient norm)   ....   1.000e-04
   Initial trust radius                 ....   0.400
   Minimum AH scaling param. (alpha)    ....   1.000
   Maximum AH scaling param. (alpha)    .... 1000.000
   Quad. conv. algorithm                .... NR
   White noise on init. David. guess    .... on
   Maximum white noise                  ....   0.010
   Pseudo random numbers                .... off
   Inactive MOs                         .... canonical
   Orbital update algorithm             .... Taylor
   Preconditioner                       .... Diag
   Full preconditioner red. dimension   ....   250
 SOSCF                  CNVSOSCF        .... on
   Start iteration      SOSCFMaxIt      ....   150
   Startup grad/error   SOSCFStart      ....  0.003300
   Hessian update       SOSCFHessUp     .... L-BFGS
 Level Shifting         CNVShift        .... on
   Level shift para.    LevelShift      ....    0.2500
   Turn off err/grad.   ShiftErr        ....    0.0010
 Zerner damping         CNVZerner       .... off
 Static damping         CNVDamp         .... on
   Fraction old density DampFac         ....    0.7000
   Max. Damping (<1)    DampMax         ....    0.9800
   Min. Damping (>=0)   DampMin         ....    0.0000
   Turn off err/grad.   DampErr         ....    0.1000

SCF Procedure:
 Maximum # iterations   MaxIter         ....   125
 SCF integral mode      SCFMode         .... Direct
   Integral package                     .... SHARK and LIBINT hybrid scheme
 Reset frequency        DirectResetFreq ....    20
 Integral Threshold     Thresh          ....  1.000e-12 Eh
 Primitive CutOff       TCut            ....  1.000e-13 Eh

Convergence Tolerance:
 Convergence Check Mode ConvCheckMode   .... Total+1el-Energy
 Convergence forced     ConvForced      .... 1
 Energy Change          TolE            ....  1.000e-08 Eh
 1-El. energy change                    ....  1.000e-05 Eh
 Orbital Gradient       TolG            ....  1.000e-05
 Orbital Rotation angle TolX            ....  1.000e-05
 DIIS Error             TolErr          ....  5.000e-07

------------------------------
INITIAL GUESS: MODEL POTENTIAL
------------------------------
Loading Hartree-Fock densities                     ... done
Calculating cut-offs                               ... done
Initializing the effective Hamiltonian             ... done
Setting up the integral package (SHARK)            ... done
Starting the Coulomb interaction                   ... done (   0.1 sec)
Making the grid                                    ... done (   0.2 sec)
Mapping shells                                     ... done
Starting the XC term evaluation                    ... done (   0.1 sec)
  promolecular density results
     # of electrons  =    131.995528910
     EX              =   -113.496250556
     EC              =     -4.450479893
     EX+EC           =   -117.946730449
Transforming the Hamiltonian                       ... done (   0.1 sec)
Diagonalizing the Hamiltonian                      ... done (   0.1 sec)
Back transforming the eigenvectors                 ... done (   0.1 sec)
Now organizing SCF variables                       ... done
                      ------------------
                      INITIAL GUESS DONE (   1.1 sec)
                      ------------------
             **** ENERGY FILE WAS UPDATED (orca.en.tmp) ****
Finished Guess after   3.4 sec
Maximum memory used throughout the entire GUESS-calculation: 70.9 MB
[1739883931.551516] [ohm:92084:0]        ib_iface.c:1059 UCX  ERROR ibv_create_cq(cqe=256) failed: Connection timed out
[1739883931.557746] [ohm:92082:0]        ib_iface.c:1059 UCX  ERROR ibv_create_cq(cqe=256) failed: Connection timed out
[1739883931.565721] [ohm:92079:0]        ib_iface.c:1059 UCX  ERROR ibv_create_cq(cqe=256) failed: Connection timed out
[1739883931.574157] [ohm:92097:0]        ib_iface.c:1059 UCX  ERROR ibv_create_cq(cqe=256) failed: Connection timed out
[1739883931.575613] [ohm:92095:0]        ib_iface.c:1059 UCX  ERROR ibv_create_cq(cqe=256) failed: Connection timed out
[1739883931.582905] [ohm:92141:0]        ib_iface.c:1059 UCX  ERROR ibv_create_cq(cqe=256) failed: Connection timed out
[1739883931.583127] [ohm:92081:0]        ib_iface.c:1059 UCX  ERROR ibv_create_cq(cqe=256) failed: Connection timed out
[1739883931.584620] [ohm:92089:0]        ib_iface.c:1059 UCX  ERROR ibv_create_cq(cqe=256) failed: Connection timed out
[1739883931.586865] [ohm:92090:0]        ib_iface.c:1059 UCX  ERROR ibv_create_cq(cqe=256) failed: Connection timed out
[1739883931.597824] [ohm:92099:0]        ib_iface.c:1059 UCX  ERROR ibv_create_cq(cqe=256) failed: Connection timed out
[1739883931.599319] [ohm:92148:0]        ib_iface.c:1059 UCX  ERROR ibv_create_cq(cqe=256) failed: Connection timed out
[1739883931.601733] [ohm:92093:0]        ib_iface.c:1059 UCX  ERROR ibv_create_cq(cqe=256) failed: Connection timed out
[1739883931.602408] [ohm:92088:0]        ib_iface.c:1059 UCX  ERROR ibv_create_cq(cqe=256) failed: Connection timed out
[1739883931.625252] [ohm:92104:0]        ib_iface.c:1059 UCX  ERROR ibv_create_cq(cqe=256) failed: Connection timed out
[1739883931.626524] [ohm:92087:0]        ib_iface.c:1059 UCX  ERROR ibv_create_cq(cqe=256) failed: Connection timed out
[1739883931.653432] [ohm:92214:0]        ib_iface.c:1059 UCX  ERROR ibv_create_cq(cqe=256) failed: Connection timed out
[1739883931.665696] [ohm:92133:0]        ib_iface.c:1059 UCX  ERROR ibv_create_cq(cqe=256) failed: Connection timed out
[1739883931.667559] [ohm:92103:0]        ib_iface.c:1059 UCX  ERROR ibv_create_cq(cqe=256) failed: Connection timed out
[1739883931.670754] [ohm:92085:0]        ib_iface.c:1059 UCX  ERROR ibv_create_cq(cqe=256) failed: Connection timed out
[1739883931.670998] [ohm:92080:0]        ib_iface.c:1059 UCX  ERROR ibv_create_cq(cqe=256) failed: Connection timed out
[1739883931.674216] [ohm:92092:0]        ib_iface.c:1059 UCX  ERROR ibv_create_cq(cqe=256) failed: Connection timed out
[1739883931.678758] [ohm:92112:0]        ib_iface.c:1059 UCX  ERROR ibv_create_cq(cqe=256) failed: Connection timed out
[1739883931.722133] [ohm:92083:0]        ib_iface.c:1059 UCX  ERROR ibv_create_cq(cqe=256) failed: Connection timed out
[1739883931.729621] [ohm:92131:0]        ib_iface.c:1059 UCX  ERROR ibv_create_cq(cqe=256) failed: Connection timed out
[1739883931.731567] [ohm:92209:0]        ib_iface.c:1059 UCX  ERROR ibv_create_cq(cqe=256) failed: Connection timed out
[1739883931.750796] [ohm:92174:0]        ib_iface.c:1059 UCX  ERROR ibv_create_cq(cqe=256) failed: Connection timed out
[1739883931.757101] [ohm:92206:0]        ib_iface.c:1059 UCX  ERROR ibv_create_cq(cqe=256) failed: Connection timed out
[1739883931.760289] [ohm:92143:0]        ib_iface.c:1059 UCX  ERROR ibv_create_cq(cqe=256) failed: Connection timed out
[1739883931.768912] [ohm:92122:0]        ib_iface.c:1059 UCX  ERROR ibv_create_cq(cqe=256) failed: Connection timed out
[1739883931.770628] [ohm:92201:0]        ib_iface.c:1059 UCX  ERROR ibv_create_cq(cqe=256) failed: Connection timed out
[1739883931.770710] [ohm:92111:0]        ib_iface.c:1059 UCX  ERROR ibv_create_cq(cqe=256) failed: Connection timed out
[1739883931.781308] [ohm:92219:0]        ib_iface.c:1059 UCX  ERROR ibv_create_cq(cqe=256) failed: Connection timed out
[1739883931.785417] [ohm:92157:0]        ib_iface.c:1059 UCX  ERROR ibv_create_cq(cqe=256) failed: Connection timed out
[1739883931.787807] [ohm:92091:0]        ib_iface.c:1059 UCX  ERROR ibv_create_cq(cqe=256) failed: Connection timed out
[1739883931.801799] [ohm:92135:0]        ib_iface.c:1059 UCX  ERROR ibv_create_cq(cqe=256) failed: Connection timed out
[1739883931.804452] [ohm:92098:0]        ib_iface.c:1059 UCX  ERROR ibv_create_cq(cqe=256) failed: Connection timed out
[1739883931.811753] [ohm:92221:0]        ib_iface.c:1059 UCX  ERROR ibv_create_cq(cqe=256) failed: Connection timed out
[1739883931.815618] [ohm:92116:0]        ib_iface.c:1059 UCX  ERROR ibv_create_cq(cqe=256) failed: Connection timed out
[1739883931.819997] [ohm:92196:0]        ib_iface.c:1059 UCX  ERROR ibv_create_cq(cqe=256) failed: Connection timed out
[1739883931.822548] [ohm:92156:0]        ib_iface.c:1059 UCX  ERROR ibv_create_cq(cqe=256) failed: Connection timed out
[1739883931.823639] [ohm:92216:0]        ib_iface.c:1059 UCX  ERROR ibv_create_cq(cqe=256) failed: Connection timed out
[1739883931.831762] [ohm:92187:0]        ib_iface.c:1059 UCX  ERROR ibv_create_cq(cqe=256) failed: Connection timed out
[1739883931.834464] [ohm:92100:0]        ib_iface.c:1059 UCX  ERROR ibv_create_cq(cqe=256) failed: Connection timed out
[1739883931.835382] [ohm:92106:0]        ib_iface.c:1059 UCX  ERROR ibv_create_cq(cqe=256) failed: Connection timed out
[1739883931.835586] [ohm:92107:0]        ib_iface.c:1059 UCX  ERROR ibv_create_cq(cqe=256) failed: Connection timed out
[1739883931.844265] [ohm:92152:0]        ib_iface.c:1059 UCX  ERROR ibv_create_cq(cqe=256) failed: Connection timed out
[1739883931.848768] [ohm:92202:0]        ib_iface.c:1059 UCX  ERROR ibv_create_cq(cqe=256) failed: Connection timed out
[1739883931.852031] [ohm:92180:0]        ib_iface.c:1059 UCX  ERROR ibv_create_cq(cqe=256) failed: Connection timed out
[1739883931.852144] [ohm:92101:0]        ib_iface.c:1059 UCX  ERROR ibv_create_cq(cqe=256) failed: Connection timed out
[1739883931.853541] [ohm:92188:0]        ib_iface.c:1059 UCX  ERROR ibv_create_cq(cqe=256) failed: Connection timed out
[1739883931.858378] [ohm:92094:0]        ib_iface.c:1059 UCX  ERROR ibv_create_cq(cqe=256) failed: Connection timed out
[1739883931.859632] [ohm:92096:0]        ib_iface.c:1059 UCX  ERROR ibv_create_cq(cqe=256) failed: Connection timed out
[1739883931.859710] [ohm:92183:0]        ib_iface.c:1059 UCX  ERROR ibv_create_cq(cqe=256) failed: Connection timed out
[1739883931.863228] [ohm:92126:0]        ib_iface.c:1059 UCX  ERROR ibv_create_cq(cqe=256) failed: Connection timed out
[1739883931.866169] [ohm:92194:0]        ib_iface.c:1059 UCX  ERROR ibv_create_cq(cqe=256) failed: Connection timed out
[1739883931.866361] [ohm:92105:0]        ib_iface.c:1059 UCX  ERROR ibv_create_cq(cqe=256) failed: Connection timed out
[1739883931.873294] [ohm:92163:0]        ib_iface.c:1059 UCX  ERROR ibv_create_cq(cqe=256) failed: Connection timed out
[1739883931.874235] [ohm:92138:0]        ib_iface.c:1059 UCX  ERROR ibv_create_cq(cqe=256) failed: Connection timed out
[1739883931.879566] [ohm:92178:0]        ib_iface.c:1059 UCX  ERROR ibv_create_cq(cqe=256) failed: Connection timed out
[1739883931.882003] [ohm:92086:0]        ib_iface.c:1059 UCX  ERROR ibv_create_cq(cqe=256) failed: Connection timed out
[1739883931.883865] [ohm:92171:0]        ib_iface.c:1059 UCX  ERROR ibv_create_cq(cqe=256) failed: Connection timed out
[1739883931.884470] [ohm:92108:0]        ib_iface.c:1059 UCX  ERROR ibv_create_cq(cqe=256) failed: Connection timed out
[1739883931.884849] [ohm:92165:0]        ib_iface.c:1059 UCX  ERROR ibv_create_cq(cqe=256) failed: Connection timed out
[1739883931.885838] [ohm:92102:0]        ib_iface.c:1059 UCX  ERROR ibv_create_cq(cqe=256) failed: Connection timed out


           ************************************************************
           *        Program running with 64 parallel MPI-processes    *
           *              working on a common directory               *
           ************************************************************

-------------------------------------------------------------------------------------------
                                      ORCA LEAN-SCF
                              memory conserving SCF solver
-------------------------------------------------------------------------------------------

----------------------------------------D-I-I-S--------------------------------------------
Iteration    Energy (Eh)           Delta-E    RMSDP     MaxDP     DIISErr   Damp  Time(sec)
-------------------------------------------------------------------------------------------
               ***  Starting incremental Fock matrix formation  ***
    1    -907.9854482658599863     0.00e+00  1.24e-03  1.88e-01  1.49e-01  0.700   7.4
Warning: op=0 Small HOMO/LUMO gap (   0.047) - skipping pre-diagonalization
         Will do a full diagonalization
    2    -908.2717260348401851    -2.86e-01  1.42e-03  2.04e-01  7.44e-02  0.700   6.4
                               ***Turning on AO-DIIS***
    3    -908.4023107734990390    -1.31e-01  9.31e-04  1.35e-01  2.98e-02  0.700   5.5
    4    -908.4809754317573152    -7.87e-02  1.97e-03  2.77e-01  1.85e-02  0.000   5.5
    5    -908.6630524124614112    -1.82e-01  3.24e-04  3.92e-02  7.80e-03  0.000   5.6
    6    -908.6687634852203246    -5.71e-03  2.77e-04  3.03e-02  7.64e-03  0.000   5.5
    7    -908.6741237534859010    -5.36e-03  2.89e-04  3.93e-02  7.92e-03  0.000   5.4
    8    -908.6793845482768575    -5.26e-03  3.70e-04  5.07e-02  7.72e-03  0.000   5.3
    9    -908.6853629767686016    -5.98e-03  6.00e-04  7.51e-02  7.23e-03  0.000   5.4
   10    -908.6930433074264783    -7.68e-03  3.11e-04  3.64e-02  5.76e-03  0.000   5.4
   11    -908.6964952807718419    -3.45e-03  4.23e-04  6.46e-02  4.05e-03  0.000   5.3
                              *** Initializing SOSCF ***
---------------------------------------S-O-S-C-F--------------------------------------
Iteration    Energy (Eh)           Delta-E    RMSDP     MaxDP     MaxGrad    Time(sec)
--------------------------------------------------------------------------------------
   12    -908.6990637109790896    -2.57e-03  1.39e-04  1.49e-02  2.72e-03     6.2
               *** Restarting incremental Fock matrix formation ***
   13    -908.6998113054826263    -7.48e-04  2.70e-04  2.90e-02  5.87e-03     7.0
   14    -908.7001403904303061    -3.29e-04  2.51e-04  2.50e-02  3.04e-03     6.3
   15    -908.7002423726828511    -1.02e-04  1.67e-04  1.89e-02  8.25e-04     6.3
   16    -908.7002964377882108    -5.41e-05  2.86e-05  2.27e-03  3.40e-04     6.2
   17    -908.7003000515999247    -3.61e-06  1.28e-05  1.35e-03  2.77e-04     5.9
   18    -908.7003023692298029    -2.32e-06  8.44e-06  7.93e-04  2.23e-04     5.7
   19    -908.7003037881383989    -1.42e-06  5.40e-06  5.14e-04  1.39e-04     5.7
   20    -908.7003045490985187    -7.61e-07  3.21e-06  3.23e-04  4.58e-05     5.8
   21    -908.7003047952141515    -2.46e-07  2.23e-06  2.98e-04  2.43e-05     5.7
   22    -908.7003048517183288    -5.65e-08  9.27e-07  1.24e-04  1.44e-05     5.5
   23    -908.7003048357121315     1.60e-08  6.54e-07  9.78e-05  7.28e-06     5.2
   24    -908.7003048780441077    -4.23e-08  5.38e-07  8.34e-05  3.92e-06     5.1
   25    -908.7003048192043480     5.88e-08  6.18e-07  9.84e-05  2.34e-06     5.1
                  *** Gradient check signals convergence ***

               *****************************************************
               *                     SUCCESS                       *
               *           SCF CONVERGED AFTER  25 CYCLES          *
               *****************************************************

Recomputing exchange energy using gridx3       ... done (    8.350 sec)
Old exchange energy                            :    -35.002816529 Eh
New exchange energy                            :    -35.002800546 Eh
Exchange energy change after final integration :      0.000015983 Eh
Total energy after final integration           :   -908.700288836 Eh
             **** ENERGY FILE WAS UPDATED (orca.en.tmp) ****

----------------
TOTAL SCF ENERGY
----------------

Total Energy       :       -908.70028883631687 Eh          -24726.99196 eV

Components:
Nuclear Repulsion  :       1381.70796740498213 Eh           37598.18525 eV
Electronic Energy  :      -2290.40827222418648 Eh          -62325.17764 eV
One Electron Energy:      -3981.28075130519392 Eh         -108336.15695 eV
Two Electron Energy:       1690.87247908100767 Eh           46010.97931 eV

Virial components:
Potential Energy   :      -1814.38307775777025 Eh          -49371.87356 eV
Kinetic Energy     :        905.68278892145338 Eh           24644.88161 eV
Virial Ratio       :          2.00333174037508

DFT components:
N(Alpha)           :       66.999969591847 electrons
N(Beta)            :       64.999993322929 electrons
N(Total)           :      131.999962914776 electrons
E(XC)              :      -86.182707181134 Eh       

---------------
SCF CONVERGENCE
---------------

  Last Energy change         ...   -5.8840e-08  Tolerance :   1.0000e-08
  Last MAX-Density change    ...    9.8385e-05  Tolerance :   1.0000e-07
  Last RMS-Density change    ...    6.1760e-07  Tolerance :   5.0000e-09
  Last DIIS Error            ...    2.7172e-03  Tolerance :   5.0000e-07
  Last Orbital Gradient      ...    2.3376e-06  Tolerance :   1.0000e-05
  Last Orbital Rotation      ...    1.2168e-05  Tolerance :   1.0000e-05


----------------------
UHF SPIN CONTAMINATION
----------------------

Warning: in a DFT calculation there is little theoretical justification to 
         calculate <S**2> as in Hartree-Fock theory. We will do it anyways
         but you should keep in mind that the values have only limited relevance

Expectation value of <S**2>     :     2.010926
Ideal value S*(S+1) for S=1.0   :     2.000000
Deviation                       :     0.010926

----------------
ORBITAL ENERGIES
----------------
                 SPIN UP ORBITALS
  NO   OCC          E(Eh)            E(eV) 
   0   1.0000     -19.331858      -526.0466 
   1   1.0000     -19.331279      -526.0308 
   2   1.0000     -19.322615      -525.7951 
   3   1.0000     -19.318261      -525.6766 
   4   1.0000     -14.584039      -396.8519 
   5   1.0000     -14.582683      -396.8150 
   6   1.0000     -14.563566      -396.2948 
   7   1.0000     -14.541291      -395.6886 
   8   1.0000     -10.513209      -286.0790 
   9   1.0000     -10.500692      -285.7384 
  10   1.0000     -10.472693      -284.9765 
  11   1.0000     -10.463589      -284.7287 
  12   1.0000     -10.444568      -284.2111 
  13   1.0000     -10.417055      -283.4625 
  14   1.0000     -10.403304      -283.0883 
  15   1.0000     -10.383207      -282.5414 
  16   1.0000     -10.377549      -282.3875 
  17   1.0000     -10.362677      -281.9828 
  18   1.0000      -1.237002       -33.6605 
  19   1.0000      -1.220076       -33.2000 
  20   1.0000      -1.203063       -32.7370 
  21   1.0000      -1.200952       -32.6796 
  22   1.0000      -1.113129       -30.2898 
  23   1.0000      -1.105344       -30.0779 
  24   1.0000      -1.068917       -29.0867 
  25   1.0000      -1.043951       -28.4073 
  26   1.0000      -0.964530       -26.2462 
  27   1.0000      -0.943874       -25.6841 
  28   1.0000      -0.846189       -23.0260 
  29   1.0000      -0.831435       -22.6245 
  30   1.0000      -0.814878       -22.1740 
  31   1.0000      -0.803506       -21.8645 
  32   1.0000      -0.788236       -21.4490 
  33   1.0000      -0.777601       -21.1596 
  34   1.0000      -0.696051       -18.9405 
  35   1.0000      -0.682721       -18.5778 
  36   1.0000      -0.681710       -18.5503 
  37   1.0000      -0.673801       -18.3350 
  38   1.0000      -0.641581       -17.4583 
  39   1.0000      -0.626341       -17.0436 
  40   1.0000      -0.612516       -16.6674 
  41   1.0000      -0.602114       -16.3844 
  42   1.0000      -0.600051       -16.3282 
  43   1.0000      -0.595121       -16.1941 
  44   1.0000      -0.571721       -15.5573 
  45   1.0000      -0.570489       -15.5238 
  46   1.0000      -0.562135       -15.2965 
  47   1.0000      -0.558423       -15.1955 
  48   1.0000      -0.556206       -15.1351 
  49   1.0000      -0.542501       -14.7622 
  50   1.0000      -0.533285       -14.5114 
  51   1.0000      -0.523527       -14.2459 
  52   1.0000      -0.520296       -14.1580 
  53   1.0000      -0.512822       -13.9546 
  54   1.0000      -0.490814       -13.3557 
  55   1.0000      -0.488145       -13.2831 
  56   1.0000      -0.481798       -13.1104 
  57   1.0000      -0.459838       -12.5128 
  58   1.0000      -0.424789       -11.5591 
  59   1.0000      -0.419763       -11.4223 
  60   1.0000      -0.406172       -11.0525 
  61   1.0000      -0.399519       -10.8715 
  62   1.0000      -0.389974       -10.6117 
  63   1.0000      -0.386764       -10.5244 
  64   1.0000      -0.377158       -10.2630 
  65   1.0000      -0.330141        -8.9836 
  66   1.0000      -0.229969        -6.2578 
  67   0.0000       0.005012         0.1364 
  68   0.0000       0.011023         0.3000 
  69   0.0000       0.030219         0.8223 
  70   0.0000       0.033916         0.9229 
  71   0.0000       0.042879         1.1668 
  72   0.0000       0.055014         1.4970 
  73   0.0000       0.055897         1.5210 
  74   0.0000       0.064228         1.7477 
  75   0.0000       0.065687         1.7874 
  76   0.0000       0.069879         1.9015 
  77   0.0000       0.078347         2.1319 

                 SPIN DOWN ORBITALS
  NO   OCC          E(Eh)            E(eV) 
   0   1.0000     -19.331274      -526.0307 
   1   1.0000     -19.325367      -525.8700 
   2   1.0000     -19.320864      -525.7474 
   3   1.0000     -19.318302      -525.6777 
   4   1.0000     -14.582588      -396.8124 
   5   1.0000     -14.578910      -396.7123 
   6   1.0000     -14.563573      -396.2950 
   7   1.0000     -14.540658      -395.6714 
   8   1.0000     -10.513207      -286.0789 
   9   1.0000     -10.501059      -285.7483 
  10   1.0000     -10.472683      -284.9762 
  11   1.0000     -10.463669      -284.7309 
  12   1.0000     -10.444433      -284.2075 
  13   1.0000     -10.407386      -283.1994 
  14   1.0000     -10.392576      -282.7964 
  15   1.0000     -10.383222      -282.5418 
  16   1.0000     -10.378089      -282.4022 
  17   1.0000     -10.362671      -281.9826 
  18   1.0000      -1.236986       -33.6601 
  19   1.0000      -1.216084       -33.0913 
  20   1.0000      -1.203039       -32.7363 
  21   1.0000      -1.191399       -32.4196 
  22   1.0000      -1.113023       -30.2869 
  23   1.0000      -1.095043       -29.7976 
  24   1.0000      -1.068835       -29.0845 
  25   1.0000      -1.038385       -28.2559 
  26   1.0000      -0.944380       -25.6979 
  27   1.0000      -0.940662       -25.5967 
  28   1.0000      -0.833679       -22.6856 
  29   1.0000      -0.831231       -22.6189 
  30   1.0000      -0.814804       -22.1719 
  31   1.0000      -0.789268       -21.4771 
  32   1.0000      -0.788107       -21.4455 
  33   1.0000      -0.772194       -21.0125 
  34   1.0000      -0.696028       -18.9399 
  35   1.0000      -0.676105       -18.3978 
  36   1.0000      -0.673766       -18.3341 
  37   1.0000      -0.669793       -18.2260 
  38   1.0000      -0.641419       -17.4539 
  39   1.0000      -0.618437       -16.8285 
  40   1.0000      -0.608280       -16.5521 
  41   1.0000      -0.600058       -16.3284 
  42   1.0000      -0.589437       -16.0394 
  43   1.0000      -0.583763       -15.8850 
  44   1.0000      -0.570824       -15.5329 
  45   1.0000      -0.563310       -15.3284 
  46   1.0000      -0.558156       -15.1882 
  47   1.0000      -0.551004       -14.9936 
  48   1.0000      -0.545205       -14.8358 
  49   1.0000      -0.536737       -14.6054 
  50   1.0000      -0.521824       -14.1996 
  51   1.0000      -0.520944       -14.1756 
  52   1.0000      -0.513443       -13.9715 
  53   1.0000      -0.500730       -13.6256 
  54   1.0000      -0.489452       -13.3187 
  55   1.0000      -0.483669       -13.1613 
  56   1.0000      -0.459794       -12.5116 
  57   1.0000      -0.435561       -11.8522 
  58   1.0000      -0.424696       -11.5566 
  59   1.0000      -0.413463       -11.2509 
  60   1.0000      -0.403910       -10.9909 
  61   1.0000      -0.388542       -10.5728 
  62   1.0000      -0.383248       -10.4287 
  63   1.0000      -0.377776       -10.2798 
  64   1.0000      -0.330346        -8.9892 
  65   0.0000      -0.095863        -2.6086 
  66   0.0000       0.005583         0.1519 
  67   0.0000       0.010333         0.2812 
  68   0.0000       0.028554         0.7770 
  69   0.0000       0.032037         0.8718 
  70   0.0000       0.041816         1.1379 
  71   0.0000       0.050679         1.3790 
  72   0.0000       0.055181         1.5015 
  73   0.0000       0.056334         1.5329 
  74   0.0000       0.064100         1.7442 
  75   0.0000       0.066628         1.8130 
*Only the first 10 virtual orbitals were printed.

                    ********************************
                    * MULLIKEN POPULATION ANALYSIS *
                    ********************************

--------------------------------------------
MULLIKEN ATOMIC CHARGES AND SPIN POPULATIONS
--------------------------------------------
   0 O :   -0.631027    0.236163
   1 O :   -0.638147   -0.001108
   2 O :   -0.618598    0.063456
   3 O :   -0.605646    0.000100
   4 N :   -0.011506    0.206443
   5 N :    0.018799    0.015362
   6 N :    0.026287    0.022957
   7 N :    0.048728   -0.003743
   8 C :    0.779681    0.297901
   9 C :    0.606770    0.007283
  10 C :   -0.519322    0.920000
  11 C :   -0.065029   -0.005745
  12 C :   -1.252648    0.018860
  13 C :   -1.239723   -0.001088
  14 C :    0.594076    0.202457
  15 C :    0.512385    0.005797
  16 C :    0.433393   -0.026666
  17 C :    0.435344   -0.003383
  18 H :    0.221997    0.015531
  19 H :    0.158870   -0.001030
  20 H :    0.246857    0.020119
  21 H :    0.380359    0.027103
  22 H :    0.267290    0.004008
  23 H :    0.374734    0.000031
  24 H :    0.135349    0.002388
  25 H :    0.262910   -0.001156
  26 H :    0.077166   -0.023179
  27 H :    0.059460   -0.000876
  28 H :   -0.000058    0.000458
  29 H :   -0.058748    0.001559
Sum of atomic charges         :    0.0000000
Sum of atomic spin populations:    2.0000000

-----------------------------------------------------
MULLIKEN REDUCED ORBITAL CHARGES AND SPIN POPULATIONS
-----------------------------------------------------
CHARGE
[...]
[1739884233.945355] [ohm:94672:0]        ib_iface.c:1059 UCX  ERROR ibv_create_cq(cqe=256) failed: Connection timed out
[1739884233.954318] [ohm:94733:0]        ib_iface.c:1059 UCX  ERROR ibv_create_cq(cqe=256) failed: Connection timed out
[1739884233.958637] [ohm:94723:0]        ib_iface.c:1059 UCX  ERROR ibv_create_cq(cqe=256) failed: Connection timed out
[1739884233.958779] [ohm:94689:0]        ib_iface.c:1059 UCX  ERROR ibv_create_cq(cqe=256) failed: Connection timed out
[1739884233.959162] [ohm:94746:0]        ib_iface.c:1059 UCX  ERROR ibv_create_cq(cqe=256) failed: Connection timed out
[1739884233.959993] [ohm:94654:0]        ib_iface.c:1059 UCX  ERROR ibv_create_cq(cqe=256) failed: Connection timed out
[1739884233.960182] [ohm:94651:0]        ib_iface.c:1059 UCX  ERROR ibv_create_cq(cqe=256) failed: Connection timed out
[1739884233.961047] [ohm:94725:0]        ib_iface.c:1059 UCX  ERROR ibv_create_cq(cqe=256) failed: Connection timed out
[1739884233.961545] [ohm:94648:0]        ib_iface.c:1059 UCX  ERROR ibv_create_cq(cqe=256) failed: Connection timed out
[1739884233.964021] [ohm:94718:0]        ib_iface.c:1059 UCX  ERROR ibv_create_cq(cqe=256) failed: Connection timed out
[1739884233.964381] [ohm:94665:0]        ib_iface.c:1059 UCX  ERROR ibv_create_cq(cqe=256) failed: Connection timed out


           ************************************************************
           *        Program running with 64 parallel MPI-processes    *
           *              working on a common directory               *
           ************************************************************

------------------------------------------------------------------------------
                              ORCA PROPERTY CALCULATIONS
------------------------------------------------------------------------------

GBWName                                 ... orca.gbw
Number of atoms                         ...     30
Number of basis functions               ...    882
Max core memory                         ...   1024 MB

Electric properties:
Dipole moment                           ... YES
Quadrupole moment                       ...  NO
Static polarizability (Dipole/Dipole)   ...  NO
Static polarizability (Dipole/Quad.)    ...  NO
Static polarizability (Quad./Quad.)     ...  NO
Static polarizability (Velocity)        ...  NO

Atomic electric properties:
Dipole moment                           ...  NO
Quadrupole moment                       ...  NO
Static polarizability                   ...  NO

Choice of electric origin               ... Center of mass
Position of electric origin             ...     0.030682    -0.036825     0.079451

General magnetic properties:
Magnetizability                         ...  NO

EPR properties:
g-Tensor (aka g-matrix)                 ...  NO
Zero-Field splitting spin-orbit         ...  NO
Zero-field splitting spin-spin          ...  NO
Hyperfine couplings                     ...  NO (   0 nuclei)
Quadrupole couplings                    ...  NO (   0 nuclei)
Contact density                         ...  NO (   0 nuclei)

NMR properties:
Chemical shifts                         ...  NO (   0 nuclei)
Spin-rotation constants                 ...  NO (   0 nuclei)
Spin-spin couplings                     ...  NO (   0 nuclei,    0 pairs)

Choice of magnetic origin               ... GIAO
Position of magnetic origin             ...     0.000000     0.000000     0.000000

Properties with geometric perturbations:
SCF Hessian                             ...  NO
IR spectrum                             ...  NO
VCD spectrum                            ...  NO
X-ray spectroscopy properties:
SCF XES/XAS/RIXS spectra                ...  NO


-------------
DIPOLE MOMENT
-------------

Method             : SCF
Type of density    : Electron Density
Multiplicity       :   3
Irrep              :   0
Energy             :  -908.7002888363168722 Eh
Relativity type    : 
Basis              : AO
                                X                 Y                 Z
Electronic contribution:     -3.600901586     -10.449102716      -7.048078647
Nuclear contribution   :      2.958477994      11.603246962       9.752305573
                        -----------------------------------------
Total Dipole Moment    :     -0.642423592       1.154144245       2.704226926
                        -----------------------------------------
Magnitude (a.u.)       :      3.009584735
Magnitude (Debye)      :      7.649756461



--------------------
Rotational spectrum 
--------------------
 
Rotational constants in cm-1:             0.017477             0.013047             0.010323 
Rotational constants in MHz :           523.939899           391.148044           309.462851 

Dipole components along the rotational axes: 
x,y,z [a.u.] :     1.262401     1.179555     2.464263 
x,y,z [Debye]:     3.208769     2.998191     6.263659 

 

-------------
DIPOLE MOMENT
-------------

Method             : TDA/CIS
Type of density    : Electron Density
Level              : Relaxed density
State              :   1
Multiplicity       :   3
Irrep              :   0
Energy             :     0.0000000000000000 Eh
Relativity type    : 
Basis              : AO
                                X                 Y                 Z
Electronic contribution:     -3.826866261     -10.779234099      -6.948011264
Nuclear contribution   :      2.958477994      11.603246962       9.752305573
                        -----------------------------------------
Total Dipole Moment    :     -0.868388267       0.824012862       2.804294309
                        -----------------------------------------
Magnitude (a.u.)       :      3.049124784
Magnitude (Debye)      :      7.750259278



--------------------
Rotational spectrum 
--------------------
 
Rotational constants in cm-1:             0.017477             0.013047             0.010323 
Rotational constants in MHz :           523.939899           391.148044           309.462851 

Dipole components along the rotational axes: 
x,y,z [a.u.] :     1.399537     0.809878     2.585064 
x,y,z [Debye]:     3.557340     2.058546     6.570711 

 

Dipole moment calculation done in   0.2 sec 

Maximum memory used throughout the entire PROP-calculation: 80.1 MB
[1739884236.400615] [ohm:94979:0]        ib_iface.c:1059 UCX  ERROR ibv_create_cq(cqe=256) failed: Connection timed out
[1739884236.402676] [ohm:94982:0]        ib_iface.c:1059 UCX  ERROR ibv_create_cq(cqe=256) failed: Connection timed out
[1739884236.408755] [ohm:94981:0]        ib_iface.c:1059 UCX  ERROR ibv_create_cq(cqe=256) failed: Connection timed out
[1739884236.412967] [ohm:94977:0]        ib_iface.c:1059 UCX  ERROR ibv_create_cq(cqe=256) failed: Connection timed out
[1739884236.416271] [ohm:94986:0]        ib_iface.c:1059 UCX  ERROR ibv_create_cq(cqe=256) failed: Connection timed out
[1739884236.417145] [ohm:94983:0]        ib_iface.c:1059 UCX  ERROR ibv_create_cq(cqe=256) failed: Connection timed out
[1739884236.417467] [ohm:94989:0]        ib_iface.c:1059 UCX  ERROR ibv_create_cq(cqe=256) failed: Connection timed out
[1739884236.418613] [ohm:94984:0]        ib_iface.c:1059 UCX  ERROR ibv_create_cq(cqe=256) failed: Connection timed out
[1739884236.434890] [ohm:94978:0]        ib_iface.c:1059 UCX  ERROR ibv_create_cq(cqe=256) failed: Connection timed out
[1739884236.444118] [ohm:94992:0]        ib_iface.c:1059 UCX  ERROR ibv_create_cq(cqe=256) failed: Connection timed out
[1739884236.453460] [ohm:94994:0]        ib_iface.c:1059 UCX  ERROR ibv_create_cq(cqe=256) failed: Connection timed out
[1739884236.455089] [ohm:95050:0]        ib_iface.c:1059 UCX  ERROR ibv_create_cq(cqe=256) failed: Connection timed out
[1739884236.455116] [ohm:95002:0]        ib_iface.c:1059 UCX  ERROR ibv_create_cq(cqe=256) failed: Connection timed out
[1739884236.481805] [ohm:95090:0]        ib_iface.c:1059 UCX  ERROR ibv_create_cq(cqe=256) failed: Connection timed out
[1739884236.490711] [ohm:94990:0]        ib_iface.c:1059 UCX  ERROR ibv_create_cq(cqe=256) failed: Connection timed out
[1739884236.505245] [ohm:94995:0]        ib_iface.c:1059 UCX  ERROR ibv_create_cq(cqe=256) failed: Connection timed out
[1739884236.521685] [ohm:94985:0]        ib_iface.c:1059 UCX  ERROR ibv_create_cq(cqe=256) failed: Connection timed out
[1739884236.525966] [ohm:95004:0]        ib_iface.c:1059 UCX  ERROR ibv_create_cq(cqe=256) failed: Connection timed out
[1739884236.527125] [ohm:94998:0]        ib_iface.c:1059 UCX  ERROR ibv_create_cq(cqe=256) failed: Connection timed out
[1739884236.545329] [ohm:95110:0]        ib_iface.c:1059 UCX  ERROR ibv_create_cq(cqe=256) failed: Connection timed out
[1739884236.545362] [ohm:95030:0]        ib_iface.c:1059 UCX  ERROR ibv_create_cq(cqe=256) failed: Connection timed out
[1739884236.549975] [ohm:95012:0]        ib_iface.c:1059 UCX  ERROR ibv_create_cq(cqe=256) failed: Connection timed out
[1739884236.553721] [ohm:95034:0]        ib_iface.c:1059 UCX  ERROR ibv_create_cq(cqe=256) failed: Connection timed out
[1739884236.587639] [ohm:95067:0]        ib_iface.c:1059 UCX  ERROR ibv_create_cq(cqe=256) failed: Connection timed out
[1739884236.590381] [ohm:95020:0]        ib_iface.c:1059 UCX  ERROR ibv_create_cq(cqe=256) failed: Connection timed out
[1739884236.590562] [ohm:94999:0]        ib_iface.c:1059 UCX  ERROR ibv_create_cq(cqe=256) failed: Connection timed out
[1739884236.591458] [ohm:94988:0]        ib_iface.c:1059 UCX  ERROR ibv_create_cq(cqe=256) failed: Connection timed out
[1739884236.595477] [ohm:95084:0]        ib_iface.c:1059 UCX  ERROR ibv_create_cq(cqe=256) failed: Connection timed out
[1739884236.596778] [ohm:95064:0]        ib_iface.c:1059 UCX  ERROR ibv_create_cq(cqe=256) failed: Connection timed out
[1739884236.599113] [ohm:95071:0]        ib_iface.c:1059 UCX  ERROR ibv_create_cq(cqe=256) failed: Connection timed out
[1739884236.602622] [ohm:95036:0]        ib_iface.c:1059 UCX  ERROR ibv_create_cq(cqe=256) failed: Connection timed out
[1739884236.608413] [ohm:94997:0]        ib_iface.c:1059 UCX  ERROR ibv_create_cq(cqe=256) failed: Connection timed out
[1739884236.609709] [ohm:95000:0]        ib_iface.c:1059 UCX  ERROR ibv_create_cq(cqe=256) failed: Connection timed out
[1739884236.610032] [ohm:95040:0]        ib_iface.c:1059 UCX  ERROR ibv_create_cq(cqe=256) failed: Connection timed out
[1739884236.625503] [ohm:95017:0]        ib_iface.c:1059 UCX  ERROR ibv_create_cq(cqe=256) failed: Connection timed out
[1739884236.627976] [ohm:95102:0]        ib_iface.c:1059 UCX  ERROR ibv_create_cq(cqe=256) failed: Connection timed out
[1739884236.635275] [ohm:95086:0]        ib_iface.c:1059 UCX  ERROR ibv_create_cq(cqe=256) failed: Connection timed out
[1739884236.655752] [ohm:95008:0]        ib_iface.c:1059 UCX  ERROR ibv_create_cq(cqe=256) failed: Connection timed out
[1739884236.659005] [ohm:95003:0]        ib_iface.c:1059 UCX  ERROR ibv_create_cq(cqe=256) failed: Connection timed out
[1739884236.660719] [ohm:95024:0]        ib_iface.c:1059 UCX  ERROR ibv_create_cq(cqe=256) failed: Connection timed out
[1739884236.660912] [ohm:95099:0]        ib_iface.c:1059 UCX  ERROR ibv_create_cq(cqe=256) failed: Connection timed out
[1739884236.673450] [ohm:94987:0]        ib_iface.c:1059 UCX  ERROR ibv_create_cq(cqe=256) failed: Connection timed out
[1739884236.674509] [ohm:95108:0]        ib_iface.c:1059 UCX  ERROR ibv_create_cq(cqe=256) failed: Connection timed out
[1739884236.679784] [ohm:95122:0]        ib_iface.c:1059 UCX  ERROR ibv_create_cq(cqe=256) failed: Connection timed out
[1739884236.679803] [ohm:95081:0]        ib_iface.c:1059 UCX  ERROR ibv_create_cq(cqe=256) failed: Connection timed out
[1739884236.687879] [ohm:95053:0]        ib_iface.c:1059 UCX  ERROR ibv_create_cq(cqe=256) failed: Connection timed out
[1739884236.692312] [ohm:95075:0]        ib_iface.c:1059 UCX  ERROR ibv_create_cq(cqe=256) failed: Connection timed out
[1739884236.692524] [ohm:95045:0]        ib_iface.c:1059 UCX  ERROR ibv_create_cq(cqe=256) failed: Connection timed out
[1739884236.699632] [ohm:95028:0]        ib_iface.c:1059 UCX  ERROR ibv_create_cq(cqe=256) failed: Connection timed out
[1739884236.701622] [ohm:95105:0]        ib_iface.c:1059 UCX  ERROR ibv_create_cq(cqe=256) failed: Connection timed out
[1739884236.702762] [ohm:95001:0]        ib_iface.c:1059 UCX  ERROR ibv_create_cq(cqe=256) failed: Connection timed out
[1739884236.703138] [ohm:95039:0]        ib_iface.c:1059 UCX  ERROR ibv_create_cq(cqe=256) failed: Connection timed out
[1739884236.703521] [ohm:95077:0]        ib_iface.c:1059 UCX  ERROR ibv_create_cq(cqe=256) failed: Connection timed out
[1739884236.705251] [ohm:95058:0]        ib_iface.c:1059 UCX  ERROR ibv_create_cq(cqe=256) failed: Connection timed out
[1739884236.705907] [ohm:95073:0]        ib_iface.c:1059 UCX  ERROR ibv_create_cq(cqe=256) failed: Connection timed out
[1739884236.706713] [ohm:95005:0]        ib_iface.c:1059 UCX  ERROR ibv_create_cq(cqe=256) failed: Connection timed out
[1739884236.707227] [ohm:94996:0]        ib_iface.c:1059 UCX  ERROR ibv_create_cq(cqe=256) failed: Connection timed out
[1739884236.708643] [ohm:95094:0]        ib_iface.c:1059 UCX  ERROR ibv_create_cq(cqe=256) failed: Connection timed out
[1739884236.708972] [ohm:94980:0]        ib_iface.c:1059 UCX  ERROR ibv_create_cq(cqe=256) failed: Connection timed out
[1739884236.709784] [ohm:95096:0]        ib_iface.c:1059 UCX  ERROR ibv_create_cq(cqe=256) failed: Connection timed out
[1739884236.710859] [ohm:95113:0]        ib_iface.c:1059 UCX  ERROR ibv_create_cq(cqe=256) failed: Connection timed out
[1739884236.712696] [ohm:94993:0]        ib_iface.c:1059 UCX  ERROR ibv_create_cq(cqe=256) failed: Connection timed out
[1739884236.713410] [ohm:94991:0]        ib_iface.c:1059 UCX  ERROR ibv_create_cq(cqe=256) failed: Connection timed out
[1739884236.713507] [ohm:95116:0]        ib_iface.c:1059 UCX  ERROR ibv_create_cq(cqe=256) failed: Connection timed out

--------------------------------
SUGGESTED CITATIONS FOR THIS RUN
--------------------------------

Below you find a list of papers that are relevant to this ORCA run
We neither can nor want to force you to cite these papers, but we appreciate if you do
You receive ORCA, which is the product of decades of hard work by many enthusiastic individuals, for free
The only thing we kindly ask in return is that you cite our papers,
We deeply appreciate it, if you show your appreciation for ORCA by not just citing the generic ORCA reference.

Please note that relegating all ORCA citations to the supporting information does *not* help us.
SI sections are not indexed - citations you put there will not count into any citation statistics
But we need these citations in order to attract the funding resources that allow us to do what we are doing

Therefore, if you are a happy ORCA user, please consider citing a few of the papers listed below in the main body of your paper

In addition to the list printed below, the program has created the file orca.bibtex that contains the list in bibtex format
You can import this file easily into all common literature databanks and citation aid programs


List of essential papers. We consider these as the minimum necessary citations

  1. Neese,F.
     Software update: the ORCA program system, version 5.0
     WIRES Comput. Molec. Sci., 2022 12(1)e1606
     doi.org/10.1002/wcms.1606

List of papers to cite with high priority. The work reported in these papers was absolutely
necessary for this run to complete.
Our perspective: the developers of density functionals and basis sets usually get cited in chemistry papers
Good! But without the algorithms to do something with them, the functionals or basis sets would not do anything.
Hence, in our opinion, the algorithm design and method developments papers are equally worthy of getting cited

  1. Neese,F.; Olbrich,G.
     Efficient use of the resolution of the identity approximation in time-dependent density functional calculations with hybrid density functionals
     Chem. Phys. Lett., 2002 362 170-178
     doi.org/10.1016/s0009-2614(02)01053-9
  2. Neese,F.
     An improvement of the resolution of the identity approximation for the formation of the Coulomb matrix
     J. Comp. Chem., 2003 24(14)1740-1747
     doi.org/10.1002/jcc.10318
  3. Neese,F.; Wennmohs,F.; Hansen,A.; Becker,U.
     Efficient, approximate and parallel Hartree-Fock and hybrid DFT calculations. A 'chain-of-spheres' algorithm for the Hartree-Fock exchange
     Chem. Phys., 2009 356(1-3)98-109
     doi.org/10.1016/j.chemphys.2008.10.036
  4. Petrenko,T.; Kossmann,S.; Neese,F.
     Efficient time-dependent density functional theory approximations for hybrid density functionals: Analytical gradients and parallelization
     J. Chem. Phys., 2011 134 054116
     doi.org/10.1063/1.3533441
  5. Helmich-Paris,B.; de Souza,B.; Neese,F.; Izsák,R.
     An improved chain of spheres for exchange algorithm
     J. Chem. Phys., 2021 155 104109
     doi.org/doi: 10.1063/5.0058766.
  6. Neese,F.
     The SHARK Integral Generation and Digestion System
     J. Comp. Chem., 2022  1-16
     doi.org/10.1002/jcc.26942
  7. Lehtola,S.; Steigemann,C.; Oliveira,M.; Marques,M.
     Recent developments in Libxc - A comprehensive library of functionals for density functional theory
     Software X, 2018 7 
     doi.org/10.1016/j.softx.2017.11.002
  8. Grimme,S.; Antony,J.; Ehrlich,S.; Krieg,H.
     A consistent and accurate ab initio parametrization of density functional dispersion correction (DFT-D) for the 94 elements H-Pu
     J. Chem. Phys., 2010 132 154104-XXXX
     doi.org/10.1063/1.3382344
  9. Grimme,S.; Ehrlich,S.; Goerigk,L.
     Effect of the damping function in dispersion corrected density functional theory
     J. Comput. Chem., 2011 32(7)1456-1465
     doi.org/10.1002/jcc.21759

List of suggested additional citations. These are papers that are important in the 'surrounding' of 
of this run, or papers that preceded the highly important papers. If you like your results we are grateful for a citation.

  1. Izsak,R.; Neese,F.
     An overlap fitted chain of spheres exchange method
     J. Chem. Phys., 2011 135 144105
     doi.org/10.1063/1.3646921
  2. Izsak,R.; Hansen,A.; Neese,F.
     The resolution of identity and chain of spheres approximations for the LPNO-CCSD singles Fock term
     Molec. Phys., 2012 110 2413-2417
     doi.org/10.1080/00268976.2012.687466
  3. Neese,F.
     The ORCA program system
     WIRES Comput. Molec. Sci., 2012 2(1)73-78
     doi.org/10.1002/wcms.81
  4. Izsak,R.; Neese,F.; Klopper,W.
     Robust fitting techniques in the chain of spheres approximation to the Fock exchange: The role of the complementary space
     J. Chem. Phys., 2013 139 
     doi.org/10.1063/1.4819264
  5. Neese,F.
     Software update: the ORCA program system, version 4.0
     WIRES Comput. Molec. Sci., 2018 8(1)1-6
     doi.org/10.1002/wcms.1327
  6. Neese,F.; Wennmohs,F.; Becker,U.; Riplinger,C.
     The ORCA quantum chemistry program package
     J. Chem. Phys., 2020 152 Art. No. L224108
     doi.org/10.1063/5.0004608

List of optional additional citations

  1. Neese,F.
     Approximate second-order SCF convergence for spin unrestricted wavefunctions
     Chem. Phys. Lett., 2000 325(1-3)93-98
     doi.org/10.1016/s0009-2614(00)00662-x

Timings for individual modules:

Sum of individual times          ...      314.959 sec (=   5.249 min)
Startup calculation              ...        6.149 sec (=   0.102 min)   2.0 %
SCF iterations                   ...      162.060 sec (=   2.701 min)  51.5 %
Property integrals               ...        4.134 sec (=   0.069 min)   1.3 %
Property calculations            ...        2.735 sec (=   0.046 min)   0.9 %
CIS module                       ...      139.881 sec (=   2.331 min)  44.4 %
                             ****ORCA TERMINATED NORMALLY****
TOTAL RUN TIME: 0 days 0 hours 5 minutes 17 seconds 59 msec
