
                                 *****************
                                 * O   R   C   A *
                                 *****************

                                            #,                                       
                                            ###                                      
                                            ####                                     
                                            #####                                    
                                            ######                                   
                                           ########,                                 
                                     ,,################,,,,,                         
                               ,,#################################,,                 
                          ,,##########################################,,             
                       ,#########################################, ''#####,          
                    ,#############################################,,   '####,        
                  ,##################################################,,,,####,       
                ,###########''''           ''''###############################       
              ,#####''   ,,,,##########,,,,          '''####'''          '####       
            ,##' ,,,,###########################,,,                        '##       
           ' ,,###''''                  '''############,,,                           
         ,,##''                                '''############,,,,        ,,,,,,###''
      ,#''                                            '''#######################'''  
     '                                                          ''''####''''         
             ,#######,   #######,   ,#######,      ##                                
            ,#'     '#,  ##    ##  ,#'     '#,    #''#        ,####,   ,####,        
            ##       ##  ##   ,#'  ##            #'  '#       #'       #'  '#        
            ##       ##  #######   ##           ,######,      #####,   #    #        
            '#,     ,#'  ##    ##  '#,     ,#' ,#      #,     #,   #   #,  ,#        
             '#######'   ##     ##  '#######'  #'      '#     '####' # '####'        



                #########################################################
                #                        -***-                          #
                #          Department of theory and spectroscopy        #
                #                                                       #
                #                      Frank Neese                      #
                #                                                       #
                #     Directorship, Architecture, Infrastructure        #
                #                    SHARK, DRIVERS                     #
                #        Core code/Algorithms in most modules           #
                #                                                       #
                #        Max Planck Institute fuer Kohlenforschung      #
                #                Kaiser Wilhelm Platz 1                 #
                #                 D-45470 Muelheim/Ruhr                 #
                #                      Germany                          #
                #                                                       #
                #                  All rights reserved                  #
                #                        -***-                          #
                #########################################################


                         Program Version 6.0.0  -   RELEASE  -


 With contributions from (in alphabetic order):
   Daniel Aravena         : Magnetic Suceptibility
   Michael Atanasov       : Ab Initio Ligand Field Theory (pilot matlab implementation)
   Alexander A. Auer      : GIAO ZORA, VPT2 properties, NMR spectrum
   Ute Becker             : All parallelization in ORCA, NUMFREQ, NUMCALC
   Giovanni Bistoni       : ED, misc. LED, open-shell LED, HFLD
   Martin Brehm           : Molecular dynamics
   Dmytro Bykov           : pre 5.0 version of the SCF Hessian
   Marcos Casanova-Páez   : Triplet and SCS-CIS(D). UHF-(DLPNO)-IP/EA/STEOM-CCSD. UHF-CVS-IP/STEOM-CCSD
   Vijay G. Chilkuri      : MRCI spin determinant printing, contributions to CSF-ICE
   Pauline Colinet        : FMM embedding
   Dipayan Datta          : RHF DLPNO-CCSD density
   Achintya Kumar Dutta   : EOM-CC, STEOM-CC
   Nicolas Foglia         : Exact transition moments, OPA infrastructure, MCD improvements
   Dmitry Ganyushin       : Spin-Orbit,Spin-Spin,Magnetic field MRCI
   Miquel Garcia          : C-PCM and meta-GGA Hessian, CCSD/C-PCM, Gaussian charge scheme
   Tiago L. C. Gouveia    : GS-ROHF, GS-ROCIS
   Yang Guo               : DLPNO-NEVPT2, F12-NEVPT2, CIM, IAO-localization
   Andreas Hansen         : Spin unrestricted coupled pair/coupled cluster methods
   Ingolf Harden          : AUTO-CI MPn and infrastructure 
   Benjamin Helmich-Paris : MC-RPA, TRAH-(SCF,CASSCF), AVAS, COSX integrals, SCF dyn. polar.
   Lee Huntington         : MR-EOM, pCC
   Robert Izsak           : Overlap fitted RIJCOSX, COSX-SCS-MP3, EOM
   Riya Kayal             : Wick's Theorem for AUTO-CI, AUTO-CI UHF-CCSDT
   Emily Kempfer          : AUTO-CI, RHF CISDT and CCSDT
   Christian Kollmar      : KDIIS, OOCD, Brueckner-CCSD(T), CCSD density, CASPT2, CASPT2-K, improved NEVPT2
   Axel Koslowski         : Symmetry handling
   Simone Kossmann        : Meta GGA functionals, TD-DFT gradient, OOMP2, (MP2 Hessian; deprecated post 5.0)
   Lucas Lang             : DCDCAS
   Marvin Lechner         : AUTO-CI (C++ implementation), FIC-MRCC
   Spencer Leger          : CASSCF response
   Dagmar Lenk            : GEPOL surface, SMD, ORCA-2-JSON
   Dimitrios Liakos       : Extrapolation schemes; Compound Job, initial MDCI parallelization
   Dimitrios Manganas     : Further ROCIS development; embedding schemes. LFT, Crystal Embedding
   Dimitrios Pantazis     : SARC Basis sets
   Anastasios Papadopoulos: AUTO-CI, single reference methods and gradients
   Taras Petrenko         : pre 6.0 DFT Hessian and TD-DFT gradient, (ASA, deprecated), ECA, 1-Electron XAS/XES, NRVS
   Peter Pinski           : DLPNO-MP2, DLPNO-MP2 Gradient
   Christoph Reimann      : Effective Core Potentials
   Marius Retegan         : Local ZFS, SOC
   Christoph Riplinger    : Optimizer, TS searches, QM/MM, DLPNO-CCSD(T), (RO)-DLPNO pert. Triples
   Michael Roemelt        : Original ROCIS implementation
   Masaaki Saitow         : Open-shell DLPNO-CCSD energy and density
   Barbara Sandhoefer     : DKH picture change effects
   Kantharuban Sivalingam : CASSCF convergence/infrastructure, NEVPT2 and variants, FIC-MRCI
   Bernardo de Souza      : ESD, SOC TD-DFT
   Georgi Stoychev        : AutoAux, RI-MP2 NMR, DLPNO-MP2 response, X2C
   Van Anh Tran           : RI-MP2 g-tensors
   Willem Van den Heuvel  : Paramagnetic NMR
   Zikuan Wang            : NOTCH, Electric field optimization 
   Frank Wennmohs         : Technical directorship and infrastructure
   Hang Xu                : AUTO-CI-Response properties 


 We gratefully acknowledge several colleagues who have allowed us to
 interface, adapt or use parts of their codes:
   Stefan Grimme, W. Hujo, H. Kruse, P. Pracht,  : VdW corrections, initial TS optimization,
                  C. Bannwarth, S. Ehlert,         DFT functionals, gCP, sTDA/sTD-DF
                  L. Wittmann, M. Mueller
   Ed Valeev, F. Pavosevic, A. Kumar             : LibInt (2-el integral package), F12 methods
   Garnet Chan, S. Sharma, J. Yang, R. Olivares  : DMRG
   Ulf Ekstrom                                   : XCFun DFT Library
   Mihaly Kallay                                 : mrcc  (arbitrary order and MRCC methods)
   Frank Weinhold                                : gennbo (NPA and NBO analysis)
   Simon Mueller                                 : openCOSMO-RS
   Christopher J. Cramer and Donald G. Truhlar   : smd solvation model
   Lars Goerigk                                  : TD-DFT with DH, B97 family of functionals
   V. Asgeirsson, H. Jonsson                     : NEB implementation
   FAccTs GmbH                                   : IRC, NEB, NEB-TS, DLPNO-Multilevel, CI-OPT
                                                   MM, QMMM, 2- and 3-layer-ONIOM, Crystal-QMMM,
                                                   LR-CPCM, SF, NACMEs, symmetry and pop. for TD-DFT,
                                                   nearIR, NL-DFT gradient (VV10), updates on ESD,
                                                   ML-optimized integration grids, MBIS, APM,
                                                   GOAT, DOCKER, SOLVATOR, interface openCOSMO-RS
   S Lehtola, MJT Oliveira, MAL Marques          : LibXC Library
   Liviu Ungur et al                             : ANISO software


 Your calculation uses the libint2 library for the computation of 2-el integrals
 For citations please refer to: http://libint.valeyev.net

 Your ORCA version has been built with support for libXC version: 6.2.2
 For citations please refer to: https://libxc.gitlab.io

 This ORCA versions uses:
   CBLAS   interface :  Fast vector & matrix operations
   LAPACKE interface :  Fast linear algebra routines
   SCALAPACK package :  Parallel linear algebra routines
   Shared memory     :  Shared parallel matrices
   BLAS/LAPACK       :  OpenBLAS 0.3.27  USE64BITINT DYNAMIC_ARCH NO_AFFINITY Zen SINGLE_THREADED
        Core in use  :  Zen
   Copyright (c) 2011-2014, The OpenBLAS Project


Your calculation utilizes the atom-pairwise dispersion correction
with the Becke-Johnson damping scheme (D3BJ)


Warning: RI is on but no J-basis has been assigned. Assigning Def2/J (nothing to worry about!)
================================================================================

----- Orbital basis set information -----
Your calculation utilizes the basis: def2-TZVPPD
   F. Weigend and R. Ahlrichs, Phys. Chem. Chem. Phys. 7, 3297 (2005).
   D. Rappoport and F. Furche, J. Chem. Phys. 133, 134105 (2010)
   D. Rappoport, J. Chem. Phys. 155, 124102 (2021).

----- AuxJ basis set information -----
Your calculation utilizes the auxiliary basis: def2/J
   F. Weigend, Phys. Chem. Chem. Phys. 8, 1057 (2006).

================================================================================
                                        WARNINGS
                       Please study these warnings very carefully!
================================================================================

Using LibXC functional ID 531 : wB97M-V exchange-correlation functional
[ 1]  N. Mardirossian and M. Head-Gordon.,  J. Chem. Phys. 144, 214110 (2016)
Using LibXC functional ID 531 : wB97M-V exchange-correlation functional
[ 1]  N. Mardirossian and M. Head-Gordon.,  J. Chem. Phys. 144, 214110 (2016)

WARNING: B97M-V or wB97M-V functional requested.
  ===> : libXC variant has now been activated.
         Any manually given DFX/HFX/RangeSep scaling parameters are IGNORED!

Your calculation utilizes LibXC
 by S Lehtola, C Steigemann, MJT Oliveira & MAL Marques
Please cite in your paper:
 S Lehtola, C Steigemann, MJT Oliveira & MAL Marques, SoftwareX, 7, (2018), 1.
   


WARNING: your system is open-shell and RHF/RKS was chosen
  ===> : WILL SWITCH to UHF/UKS

INFO   : Checking CIS options ...

WARNING: CIS/ROCIS methods need fully converged wavefunctions
  ===> : Setting SCFConvForced true
         You can overwrite this default with %scf ConvForced false 


================================================================================
                                       INPUT FILE
================================================================================
NAME = orca.inp
|  1> ! Engrad def2-TZVPPD wB97M-D3BJ 
|  2> %pal nprocs 8 end%pal nprocs 64 end 
|  3>  %tddft nroots 2 Iroot 2 
|  4> sf true 
|  5> end 
|  6> *xyz 0 3 
|  7> O   2.84083872887099 1.07071579174956 -0.71522915912819
|  8> O   -0.4068597039767 0.83040278061727 -2.04618533477148
|  9> O   0.57945829449822 -2.78825214730936 -1.48420684367438
| 10> O   -2.63333985649044 -1.73406487961975 0.96661154022059
| 11> N   0.70466372984281 -2.0120680875698 0.65134721225973
| 12> N   -2.44397164597719 0.502766530839 1.3554434014196
| 13> N   1.84138223179476 -0.93884071358628 -1.04234026404518
| 14> N   -1.61461852924891 -0.40840523970412 -0.58644283589803
| 15> C   1.71612503244472 0.09447486975004 1.12830911160577
| 16> C   -1.07008878848743 1.87424951160131 -0.02034867150453
| 17> C   1.00588709940569 -0.97632916885396 1.50508607446548
| 18> C   -1.84985877103661 1.71156265541458 1.05239526601017
| 19> C   2.04851949717052 1.23380873233567 2.03643722631835
| 20> C   -0.3559131964881 3.14150942368467 -0.36472420254882
| 21> C   2.19522152313594 0.15524109109805 -0.2537175753686
| 22> C   -0.98026991144541 0.77125203333609 -0.98146519143076
| 23> C   1.01249146255204 -1.97987104997363 -0.69191864823948
| 24> C   -2.26070833416095 -0.63730788160918 0.60578588680479
| 25> H   0.62190148274894 -1.08649266641556 2.50830497720748
| 26> H   -2.01800799479694 2.49990241702436 1.77024728747277
| 27> H   1.62728876278305 2.16244268047102 1.65507838827156
| 28> H   1.65999327731778 1.05713042281386 3.03690515555774
| 29> H   3.12546694045728 1.37728941425938 2.09655912615107
| 30> H   -0.7247145063136 3.54825101421211 -1.30436419279792
| 31> H   -0.4839354188272 3.88534408077628 0.41835431356807
| 32> H   0.7070288198227 2.94826796644923 -0.50254820986993
| 33> H   0.02258819814791 -2.70330299827038 0.91494519328161
| 34> H   -2.94050627650514 0.37404626192437 2.21821538726874
| 35> H   2.0267603303151 -0.84922197405343 -2.02949912575054
| 36> H   -1.50022247755388 -1.2095008713914 -1.1924352928557
| 37> *
| 38> 
| 39>                          ****END OF INPUT****
================================================================================

                     *******************************
                     * Energy+Gradient Calculation *
                     *******************************

---------------------------------
CARTESIAN COORDINATES (ANGSTROEM)
---------------------------------
  O      2.840839    1.070716   -0.715229
  O     -0.406860    0.830403   -2.046185
  O      0.579458   -2.788252   -1.484207
  O     -2.633340   -1.734065    0.966612
  N      0.704664   -2.012068    0.651347
  N     -2.443972    0.502767    1.355443
  N      1.841382   -0.938841   -1.042340
  N     -1.614619   -0.408405   -0.586443
  C      1.716125    0.094475    1.128309
  C     -1.070089    1.874250   -0.020349
  C      1.005887   -0.976329    1.505086
  C     -1.849859    1.711563    1.052395
  C      2.048519    1.233809    2.036437
  C     -0.355913    3.141509   -0.364724
  C      2.195222    0.155241   -0.253718
  C     -0.980270    0.771252   -0.981465
  C      1.012491   -1.979871   -0.691919
  C     -2.260708   -0.637308    0.605786
  H      0.621901   -1.086493    2.508305
  H     -2.018008    2.499902    1.770247
  H      1.627289    2.162443    1.655078
  H      1.659993    1.057130    3.036905
  H      3.125467    1.377289    2.096559
  H     -0.724715    3.548251   -1.304364
  H     -0.483935    3.885344    0.418354
  H      0.707029    2.948268   -0.502548
  H      0.022588   -2.703303    0.914945
  H     -2.940506    0.374046    2.218215
  H      2.026760   -0.849222   -2.029499
  H     -1.500222   -1.209501   -1.192435

----------------------------
CARTESIAN COORDINATES (A.U.)
----------------------------
  NO LB      ZA    FRAG     MASS         X           Y           Z
   0 O     8.0000    0    15.999    5.368407    2.023360   -1.351587
   1 O     8.0000    0    15.999   -0.768853    1.569234   -3.866730
   2 O     8.0000    0    15.999    1.095017   -5.269033   -2.804744
   3 O     8.0000    0    15.999   -4.976291   -3.276908    1.826631
   4 N     7.0000    0    14.007    1.331621   -3.802258    1.230868
   5 N     7.0000    0    14.007   -4.618437    0.950091    2.561417
   6 N     7.0000    0    14.007    3.479708   -1.774152   -1.969738
   7 N     7.0000    0    14.007   -3.051187   -0.771774   -1.108216
   8 C     6.0000    0    12.011    3.243006    0.178532    2.132195
   9 C     6.0000    0    12.011   -2.022175    3.541818   -0.038453
  10 C     6.0000    0    12.011    1.900851   -1.844995    2.844200
  11 C     6.0000    0    12.011   -3.495726    3.234385    1.988739
  12 C     6.0000    0    12.011    3.871141    2.331561    3.848309
  13 C     6.0000    0    12.011   -0.672578    5.936592   -0.689229
  14 C     6.0000    0    12.011    4.148367    0.293363   -0.479457
  15 C     6.0000    0    12.011   -1.852442    1.457455   -1.854700
  16 C     6.0000    0    12.011    1.913332   -3.741414   -1.307537
  17 C     6.0000    0    12.011   -4.272120   -1.204337    1.144769
  18 H     1.0000    0     1.008    1.175223   -2.053174    4.740009
  19 H     1.0000    0     1.008   -3.813482    4.724131    3.345283
  20 H     1.0000    0     1.008    3.075130    4.086424    3.127645
  21 H     1.0000    0     1.008    3.136933    1.997687    5.738919
  22 H     1.0000    0     1.008    5.906277    2.602700    3.961923
  23 H     1.0000    0     1.008   -1.369512    6.705223   -2.464891
  24 H     1.0000    0     1.008   -0.914505    7.342236    0.790575
  25 H     1.0000    0     1.008    1.336091    5.571419   -0.949678
  26 H     1.0000    0     1.008    0.042686   -5.108502    1.728996
  27 H     1.0000    0     1.008   -5.556752    0.706845    4.191820
  28 H     1.0000    0     1.008    3.830022   -1.604797   -3.835198
  29 H     1.0000    0     1.008   -2.835010   -2.285625   -2.253376

--------------------------------
INTERNAL COORDINATES (ANGSTROEM)
--------------------------------
 O      0   0   0     0.000000000000     0.00000000     0.00000000
 O      1   0   0     3.518059094945     0.00000000     0.00000000
 O      2   1   0     3.792532993394    76.64608493     0.00000000
 O      3   2   1     4.176109853104    69.26934251   115.32093850
 N      3   2   1     2.275682144204    80.09148698    60.71302153
 N      4   3   2     2.278259268444   106.50249672   331.67258342
 N      1   2   3     2.268090014229    58.54153577     0.00000000
 N      2   1   3     2.263664032990   106.61612146    54.22754312
 C      1   2   3     2.369949491524    80.09870426   296.29523633
 C      2   1   3     2.373500158535    84.54922543   113.60007638
 C      9   1   2     1.339037001117   143.13069683    59.46895320
 C     10   2   1     1.336146621571   142.63534523   238.14804840
 C      9   1   2     1.494411055682    93.04372155   239.69138263
 C     10   2   1     1.494854162573    92.44748968    65.79746667
 C      1   2   3     1.211572715861    66.45752974   325.04663046
 C      2   1   3     1.210754748316    96.19131749    85.33531945
 C      3   2   1     1.211906889076    63.47099640    33.50028524
 C      4   3   2     1.213229292542    79.47688068   345.79057726
 H     11   9   1     1.079828281169   122.11446822   180.21667971
 H     12  10   2     1.079381890669   122.40755319   188.73642692
 H     13   9   1     1.088683105673   110.57221381    60.60417645
 H     13   9   1     1.087705808574   110.83372767   181.36402709
 H     13   9   1     1.088125518737   110.74725278   302.36158372
 H     14  10   2     1.088290604053   110.72266417    58.15870838
 H     14  10   2     1.087608223998   110.95803652   179.37875902
 H     14  10   2     1.089120492796   110.18243254   300.32635506
 H      5   3   2     1.006238852513    88.52364608   121.43302799
 H      6   4   3     1.003738534933    88.83534692   206.42888775
 H      7   1   2     1.008404272170    88.93625102    76.14296374
 H      8   2   1     1.010973553384    89.24007241   259.15786438

---------------------------
INTERNAL COORDINATES (A.U.)
---------------------------
 O      0   0   0     0.000000000000     0.00000000     0.00000000
 O      1   0   0     6.648168212397     0.00000000     0.00000000
 O      2   1   0     7.166848711374    76.64608493     0.00000000
 O      3   2   1     7.891703927537    69.26934251   115.32093850
 N      3   2   1     4.300416020401    80.09148698    60.71302153
 N      4   3   2     4.305286079427   106.50249672   331.67258342
 N      1   2   3     4.286068973974    58.54153577     0.00000000
 N      2   1   3     4.277705081559   106.61612146    54.22754312
 C      1   2   3     4.478555490207    80.09870426   296.29523633
 C      2   1   3     4.485265278449    84.54922543   113.60007638
 C      9   1   2     2.530413215298   143.13069683    59.46895320
 C     10   2   1     2.524951189533   142.63534523   238.14804840
 C      9   1   2     2.824027626744    93.04372155   239.69138263
 C     10   2   1     2.824864977416    92.44748968    65.79746667
 C      1   2   3     2.289540624308    66.45752974   325.04663046
 C      2   1   3     2.287994889661    96.19131749    85.33531945
 C      3   2   1     2.290172120166    63.47099640    33.50028524
 C      4   3   2     2.292671100555    79.47688068   345.79057726
 H     11   9   1     2.040579723073   122.11446822   180.21667971
 H     12  10   2     2.039736167278   122.40755319   188.73642692
 H     13   9   1     2.057312916349   110.57221381    60.60417645
 H     13   9   1     2.055466092480   110.83372767   181.36402709
 H     13   9   1     2.056259229744   110.74725278   302.36158372
 H     14  10   2     2.056571195779   110.72266417    58.15870838
 H     14  10   2     2.055281684356   110.95803652   179.37875902
 H     14  10   2     2.058139458225   110.18243254   300.32635506
 H      5   3   2     1.901515856561    88.52364608   121.43302799
 H      6   4   3     1.896790941086    88.83534692   206.42888775
 H      7   1   2     1.905607906677    88.93625102    76.14296374
 H      8   2   1     1.910463144533    89.24007241   259.15786438

---------------------
BASIS SET INFORMATION
---------------------
There are 4 groups of distinct atoms

 Group   1 Type O   : 12s7p3d1f contracted to 6s4p3d1f pattern {621111/4111/111/1}
 Group   2 Type N   : 12s6p3d1f contracted to 6s3p3d1f pattern {621111/411/111/1}
 Group   3 Type C   : 12s6p3d1f contracted to 6s3p3d1f pattern {621111/411/111/1}
 Group   4 Type H   : 5s3p1d contracted to 3s3p1d pattern {311/111/1}

Atom   0O    basis set group =>   1
Atom   1O    basis set group =>   1
Atom   2O    basis set group =>   1
Atom   3O    basis set group =>   1
Atom   4N    basis set group =>   2
Atom   5N    basis set group =>   2
Atom   6N    basis set group =>   2
Atom   7N    basis set group =>   2
Atom   8C    basis set group =>   3
Atom   9C    basis set group =>   3
Atom  10C    basis set group =>   3
Atom  11C    basis set group =>   3
Atom  12C    basis set group =>   3
Atom  13C    basis set group =>   3
Atom  14C    basis set group =>   3
Atom  15C    basis set group =>   3
Atom  16C    basis set group =>   3
Atom  17C    basis set group =>   3
Atom  18H    basis set group =>   4
Atom  19H    basis set group =>   4
Atom  20H    basis set group =>   4
Atom  21H    basis set group =>   4
Atom  22H    basis set group =>   4
Atom  23H    basis set group =>   4
Atom  24H    basis set group =>   4
Atom  25H    basis set group =>   4
Atom  26H    basis set group =>   4
Atom  27H    basis set group =>   4
Atom  28H    basis set group =>   4
Atom  29H    basis set group =>   4
---------------------------------
AUXILIARY/J BASIS SET INFORMATION
---------------------------------
There are 4 groups of distinct atoms

 Group   1 Type O   : 12s5p4d2f1g contracted to 6s4p3d1f1g pattern {711111/2111/211/2/1}
 Group   2 Type N   : 12s5p4d2f1g contracted to 6s4p3d1f1g pattern {711111/2111/211/2/1}
 Group   3 Type C   : 12s5p4d2f1g contracted to 6s4p3d1f1g pattern {711111/2111/211/2/1}
 Group   4 Type H   : 5s2p1d contracted to 3s1p1d pattern {311/2/1}

Atom   0O    basis set group =>   1
Atom   1O    basis set group =>   1
Atom   2O    basis set group =>   1
Atom   3O    basis set group =>   1
Atom   4N    basis set group =>   2
Atom   5N    basis set group =>   2
Atom   6N    basis set group =>   2
Atom   7N    basis set group =>   2
Atom   8C    basis set group =>   3
Atom   9C    basis set group =>   3
Atom  10C    basis set group =>   3
Atom  11C    basis set group =>   3
Atom  12C    basis set group =>   3
Atom  13C    basis set group =>   3
Atom  14C    basis set group =>   3
Atom  15C    basis set group =>   3
Atom  16C    basis set group =>   3
Atom  17C    basis set group =>   3
Atom  18H    basis set group =>   4
Atom  19H    basis set group =>   4
Atom  20H    basis set group =>   4
Atom  21H    basis set group =>   4
Atom  22H    basis set group =>   4
Atom  23H    basis set group =>   4
Atom  24H    basis set group =>   4
Atom  25H    basis set group =>   4
Atom  26H    basis set group =>   4
Atom  27H    basis set group =>   4
Atom  28H    basis set group =>   4
Atom  29H    basis set group =>   4
[1738811990.785927] [ohm:3119378:0]        ib_iface.c:1059 UCX  ERROR ibv_create_cq(cqe=256) failed: Connection timed out
[1738811990.813165] [ohm:3119385:0]        ib_iface.c:1059 UCX  ERROR ibv_create_cq(cqe=256) failed: Connection timed out
[1738811990.813238] [ohm:3119395:0]        ib_iface.c:1059 UCX  ERROR ibv_create_cq(cqe=256) failed: Connection timed out
[1738811990.815479] [ohm:3119384:0]        ib_iface.c:1059 UCX  ERROR ibv_create_cq(cqe=256) failed: Connection timed out
[1738811990.819557] [ohm:3119393:0]        ib_iface.c:1059 UCX  ERROR ibv_create_cq(cqe=256) failed: Connection timed out
[1738811990.823183] [ohm:3119379:0]        ib_iface.c:1059 UCX  ERROR ibv_create_cq(cqe=256) failed: Connection timed out
[1738811990.842839] [ohm:3119381:0]        ib_iface.c:1059 UCX  ERROR ibv_create_cq(cqe=256) failed: Connection timed out
[1738811990.843581] [ohm:3119380:0]        ib_iface.c:1059 UCX  ERROR ibv_create_cq(cqe=256) failed: Connection timed out
[1738811990.854271] [ohm:3119383:0]        ib_iface.c:1059 UCX  ERROR ibv_create_cq(cqe=256) failed: Connection timed out
[1738811990.860128] [ohm:3119406:0]        ib_iface.c:1059 UCX  ERROR ibv_create_cq(cqe=256) failed: Connection timed out
[1738811990.870934] [ohm:3119397:0]        ib_iface.c:1059 UCX  ERROR ibv_create_cq(cqe=256) failed: Connection timed out
[1738811990.885751] [ohm:3119390:0]        ib_iface.c:1059 UCX  ERROR ibv_create_cq(cqe=256) failed: Connection timed out
[1738811990.886841] [ohm:3119404:0]        ib_iface.c:1059 UCX  ERROR ibv_create_cq(cqe=256) failed: Connection timed out
[1738811990.890613] [ohm:3119398:0]        ib_iface.c:1059 UCX  ERROR ibv_create_cq(cqe=256) failed: Connection timed out
[1738811990.892988] [ohm:3119391:0]        ib_iface.c:1059 UCX  ERROR ibv_create_cq(cqe=256) failed: Connection timed out
[1738811990.895111] [ohm:3119470:0]        ib_iface.c:1059 UCX  ERROR ibv_create_cq(cqe=256) failed: Connection timed out
[1738811990.897774] [ohm:3119435:0]        ib_iface.c:1059 UCX  ERROR ibv_create_cq(cqe=256) failed: Connection timed out
[1738811990.904342] [ohm:3119396:0]        ib_iface.c:1059 UCX  ERROR ibv_create_cq(cqe=256) failed: Connection timed out
[1738811990.921011] [ohm:3119392:0]        ib_iface.c:1059 UCX  ERROR ibv_create_cq(cqe=256) failed: Connection timed out
[1738811990.937950] [ohm:3119431:0]        ib_iface.c:1059 UCX  ERROR ibv_create_cq(cqe=256) failed: Connection timed out
[1738811990.954741] [ohm:3119479:0]        ib_iface.c:1059 UCX  ERROR ibv_create_cq(cqe=256) failed: Connection timed out
[1738811990.964376] [ohm:3119482:0]        ib_iface.c:1059 UCX  ERROR ibv_create_cq(cqe=256) failed: Connection timed out
[1738811990.968140] [ohm:3119489:0]        ib_iface.c:1059 UCX  ERROR ibv_create_cq(cqe=256) failed: Connection timed out
[1738811991.003908] [ohm:3119401:0]        ib_iface.c:1059 UCX  ERROR ibv_create_cq(cqe=256) failed: Connection timed out
[1738811991.012369] [ohm:3119399:0]        ib_iface.c:1059 UCX  ERROR ibv_create_cq(cqe=256) failed: Connection timed out
[1738811991.013027] [ohm:3119496:0]        ib_iface.c:1059 UCX  ERROR ibv_create_cq(cqe=256) failed: Connection timed out
[1738811991.017387] [ohm:3119506:0]        ib_iface.c:1059 UCX  ERROR ibv_create_cq(cqe=256) failed: Connection timed out
[1738811991.031420] [ohm:3119511:0]        ib_iface.c:1059 UCX  ERROR ibv_create_cq(cqe=256) failed: Connection timed out
[1738811991.032406] [ohm:3119420:0]        ib_iface.c:1059 UCX  ERROR ibv_create_cq(cqe=256) failed: Connection timed out
[1738811991.033909] [ohm:3119514:0]        ib_iface.c:1059 UCX  ERROR ibv_create_cq(cqe=256) failed: Connection timed out
[1738811991.034796] [ohm:3119421:0]        ib_iface.c:1059 UCX  ERROR ibv_create_cq(cqe=256) failed: Connection timed out
[1738811991.044013] [ohm:3119516:0]        ib_iface.c:1059 UCX  ERROR ibv_create_cq(cqe=256) failed: Connection timed out
[1738811991.060832] [ohm:3119456:0]        ib_iface.c:1059 UCX  ERROR ibv_create_cq(cqe=256) failed: Connection timed out
[1738811991.061606] [ohm:3119446:0]        ib_iface.c:1059 UCX  ERROR ibv_create_cq(cqe=256) failed: Connection timed out
[1738811991.070528] [ohm:3119413:0]        ib_iface.c:1059 UCX  ERROR ibv_create_cq(cqe=256) failed: Connection timed out
[1738811991.072461] [ohm:3119491:0]        ib_iface.c:1059 UCX  ERROR ibv_create_cq(cqe=256) failed: Connection timed out
[1738811991.076664] [ohm:3119407:0]        ib_iface.c:1059 UCX  ERROR ibv_create_cq(cqe=256) failed: Connection timed out
[1738811991.078431] [ohm:3119467:0]        ib_iface.c:1059 UCX  ERROR ibv_create_cq(cqe=256) failed: Connection timed out
[1738811991.084600] [ohm:3119411:0]        ib_iface.c:1059 UCX  ERROR ibv_create_cq(cqe=256) failed: Connection timed out
[1738811991.084735] [ohm:3119437:0]        ib_iface.c:1059 UCX  ERROR ibv_create_cq(cqe=256) failed: Connection timed out
[1738811991.087832] [ohm:3119387:0]        ib_iface.c:1059 UCX  ERROR ibv_create_cq(cqe=256) failed: Connection timed out
[1738811991.090277] [ohm:3119517:0]        ib_iface.c:1059 UCX  ERROR ibv_create_cq(cqe=256) failed: Connection timed out
[1738811991.093146] [ohm:3119466:0]        ib_iface.c:1059 UCX  ERROR ibv_create_cq(cqe=256) failed: Connection timed out
[1738811991.098310] [ohm:3119499:0]        ib_iface.c:1059 UCX  ERROR ibv_create_cq(cqe=256) failed: Connection timed out
[1738811991.100316] [ohm:3119508:0]        ib_iface.c:1059 UCX  ERROR ibv_create_cq(cqe=256) failed: Connection timed out
[1738811991.111125] [ohm:3119493:0]        ib_iface.c:1059 UCX  ERROR ibv_create_cq(cqe=256) failed: Connection timed out
[1738811991.111280] [ohm:3119461:0]        ib_iface.c:1059 UCX  ERROR ibv_create_cq(cqe=256) failed: Connection timed out
[1738811991.112114] [ohm:3119400:0]        ib_iface.c:1059 UCX  ERROR ibv_create_cq(cqe=256) failed: Connection timed out
[1738811991.112350] [ohm:3119442:0]        ib_iface.c:1059 UCX  ERROR ibv_create_cq(cqe=256) failed: Connection timed out
[1738811991.114841] [ohm:3119394:0]        ib_iface.c:1059 UCX  ERROR ibv_create_cq(cqe=256) failed: Connection timed out
[1738811991.116321] [ohm:3119440:0]        ib_iface.c:1059 UCX  ERROR ibv_create_cq(cqe=256) failed: Connection timed out
[1738811991.117089] [ohm:3119428:0]        ib_iface.c:1059 UCX  ERROR ibv_create_cq(cqe=256) failed: Connection timed out
[1738811991.120025] [ohm:3119388:0]        ib_iface.c:1059 UCX  ERROR ibv_create_cq(cqe=256) failed: Connection timed out
[1738811991.124314] [ohm:3119486:0]        ib_iface.c:1059 UCX  ERROR ibv_create_cq(cqe=256) failed: Connection timed out
[1738811991.127343] [ohm:3119452:0]        ib_iface.c:1059 UCX  ERROR ibv_create_cq(cqe=256) failed: Connection timed out
[1738811991.128698] [ohm:3119386:0]        ib_iface.c:1059 UCX  ERROR ibv_create_cq(cqe=256) failed: Connection timed out
[1738811991.130943] [ohm:3119389:0]        ib_iface.c:1059 UCX  ERROR ibv_create_cq(cqe=256) failed: Connection timed out
[1738811991.131276] [ohm:3119502:0]        ib_iface.c:1059 UCX  ERROR ibv_create_cq(cqe=256) failed: Connection timed out
[1738811991.131348] [ohm:3119403:0]        ib_iface.c:1059 UCX  ERROR ibv_create_cq(cqe=256) failed: Connection timed out
[1738811991.133042] [ohm:3119472:0]        ib_iface.c:1059 UCX  ERROR ibv_create_cq(cqe=256) failed: Connection timed out
[1738811991.133247] [ohm:3119402:0]        ib_iface.c:1059 UCX  ERROR ibv_create_cq(cqe=256) failed: Connection timed out
[1738811991.134790] [ohm:3119377:0]        ib_iface.c:1059 UCX  ERROR ibv_create_cq(cqe=256) failed: Connection timed out
[1738811991.136411] [ohm:3119474:0]        ib_iface.c:1059 UCX  ERROR ibv_create_cq(cqe=256) failed: Connection timed out
[1738811991.137020] [ohm:3119382:0]        ib_iface.c:1059 UCX  ERROR ibv_create_cq(cqe=256) failed: Connection timed out


           ************************************************************
           *        Program running with 64 parallel MPI-processes    *
           *              working on a common directory               *
           ************************************************************
------------------------------------------------------------------------------
                             ORCA STARTUP CALCULATIONS
                           -- RI-GTO INTEGRALS CHOSEN --
------------------------------------------------------------------------------
------------------------------------------------------------------------------
                   ___                                                        
                  /   \      - P O W E R E D   B Y -                         
                 /     \                                                     
                 |  |  |   _    _      __       _____    __    __             
                 |  |  |  | |  | |    /  \     |  _  \  |  |  /  |          
                  \  \/   | |  | |   /    \    | | | |  |  | /  /          
                 / \  \   | |__| |  /  /\  \   | |_| |  |  |/  /          
                |  |  |   |  __  | /  /__\  \  |    /   |      \           
                |  |  |   | |  | | |   __   |  |    \   |  |\   \          
                \     /   | |  | | |  |  |  |  | |\  \  |  | \   \       
                 \___/    |_|  |_| |__|  |__|  |_| \__\ |__|  \__/        
                                                                              
                      - O R C A' S   B I G   F R I E N D -                    
                                      &                                       
                       - I N T E G R A L  F E E D E R -                       
                                                                              
 v1 FN, 2020, v2 2021, v3 2022-2024                                           
------------------------------------------------------------------------------


----------------------
SHARK INTEGRAL PACKAGE
----------------------

Number of atoms                             ...     30
Number of basis functions                   ...    882
Number of shells                            ...    322
Maximum angular momentum                    ...      3
Integral batch strategy                     ... SHARK/LIBINT Hybrid
RI-J (if used) integral strategy            ... SPLIT-RIJ (Revised 2003 algorithm where possible)
Printlevel                                  ...      1
Contraction scheme used                     ... SEGMENTED contraction
Prescreening option                         ... SCHWARTZ
   Thresh                                   ... 2.500e-11
   Tcut                                     ... 2.500e-12
   Tpresel                                  ... 2.500e-12 
Coulomb Range Separation                    ... NOT USED
Exchange Range Separation                   ... Long Range
   Mu parameter                             ... 3.000e-01
   Scaling (regular/separated)              ... 1.500e-01 8.500e-01
Multipole approximations                    ... NOT USED
Finite Nucleus Model                        ... NOT USED
CABS basis                                  ... NOT available
Auxiliary Coulomb fitting basis             ... AVAILABLE
   # of basis functions in Aux-J            ...   1014
   # of shells in Aux-J                     ...    330
   Maximum angular momentum in Aux-J        ...      4
Auxiliary J/K fitting basis                 ... NOT available
Auxiliary Correlation fitting basis         ... NOT available
Auxiliary 'external' fitting basis          ... NOT available

Checking pre-screening integrals            ... done (  0.0 sec) Dimension = 322
Check shell pair data                       ... done (  0.0 sec)
Shell pair information
Shell pair cut-off parameter TPreSel        ...   2.5e-12
Total number of shell pairs                 ...     52003
Shell pairs after pre-screening             ...     44809
Total number of primitive shell pairs       ...    129718
Primitive shell pairs kept                  ...     83245
          la=0 lb=0:   8673 shell pairs
          la=1 lb=0:  11848 shell pairs
          la=1 lb=1:   4104 shell pairs
          la=2 lb=0:   8070 shell pairs
          la=2 lb=1:   5565 shell pairs
          la=2 lb=2:   1918 shell pairs
          la=3 lb=0:   2025 shell pairs
          la=3 lb=1:   1464 shell pairs
          la=3 lb=2:    998 shell pairs
          la=3 lb=3:    144 shell pairs

Calculating one electron integrals          ... done (  0.2 sec)
Calculating RI/J V-Matrix + Cholesky decomp.... done (  0.1 sec)
Calculating Nuclear repulsion               ... done (  0.0 sec) ENN=   1432.240033531860 Eh

Diagonalization of the overlap matrix:
Smallest eigenvalue                        ... 6.217e-07
Time for diagonalization                   ...    0.124 sec
Threshold for overlap eigenvalues          ... 1.000e-07
Number of eigenvalues below threshold      ... 0

IMPORTANT:
Smallest eigenvalue of S below the DiffSThresh (1.000e-06) while
Thresh>1e-12 and/or TCut>1e-13! In order to avoid SCF convergence issues,
Thresh will be set to at least 1e-12 and TCut to at least 1e-13.
This can be turned off by adding %SCF DiffSThresh -1 END to the input.

Time for construction of square roots      ...    0.136 sec
Total time needed                          ...    0.276 sec

-------------------
DFT GRID GENERATION
-------------------

General Integration Accuracy     IntAcc      ... 4.388
Radial Grid Type                 RadialGrid  ... OptM3 with GC (2021)
Angular Grid (max. ang.)         AngularGrid ... 4 (Lebedev-302)
Angular grid pruning method      GridPruning ... 4 (adaptive)
Weight generation scheme         WeightScheme... mBecke (2022)
Basis function cutoff            BFCut       ... 1.0000e-11
Integration weight cutoff        WCut        ... 1.0000e-14
Partially contracted basis set               ... off
Rotationally invariant grid construction     ... off
Angular grids for H and He will be reduced by one unit
Diffuse basis detected: some atoms will have their outermost
                        angular grid increased by 1.

Total number of grid points                  ...   152345
Total number of batches                      ...     2395
Average number of points per batch           ...       63
Average number of grid points per atom       ...     5078

--------------------
COSX GRID GENERATION
--------------------

GRIDX 1
-------
General Integration Accuracy     IntAcc      ... 3.816
Radial Grid Type                 RadialGrid  ... OptM3 with GC (2021)
Angular Grid (max. ang.)         AngularGrid ... 1 (Lebedev-50)
Angular grid pruning method      GridPruning ... 4 (adaptive)
Weight generation scheme         WeightScheme... mBecke (2022)
Basis function cutoff            BFCut       ... 1.0000e-11
Integration weight cutoff        WCut        ... 1.0000e-14
Partially contracted basis set               ... on
Rotationally invariant grid construction     ... off
Angular grids for H and He will be reduced by one unit
Diffuse basis detected: some atoms will have their outermost
                        angular grid increased by 1.

Total number of grid points                  ...    19095
Total number of batches                      ...      167
Average number of points per batch           ...      114
Average number of grid points per atom       ...      636
UseSFitting                                  ... on

GRIDX 2
-------
General Integration Accuracy     IntAcc      ... 4.020
Radial Grid Type                 RadialGrid  ... OptM3 with GC (2021)
Angular Grid (max. ang.)         AngularGrid ... 2 (Lebedev-110)
Angular grid pruning method      GridPruning ... 4 (adaptive)
Weight generation scheme         WeightScheme... mBecke (2022)
Basis function cutoff            BFCut       ... 1.0000e-11
Integration weight cutoff        WCut        ... 1.0000e-14
Partially contracted basis set               ... on
Rotationally invariant grid construction     ... off
Angular grids for H and He will be reduced by one unit
Diffuse basis detected: some atoms will have their outermost
                        angular grid increased by 1.

Total number of grid points                  ...    46029
Total number of batches                      ...      372
Average number of points per batch           ...      123
Average number of grid points per atom       ...     1534
UseSFitting                                  ... on

GRIDX 3
-------
General Integration Accuracy     IntAcc      ... 4.338
Radial Grid Type                 RadialGrid  ... OptM3 with GC (2021)
Angular Grid (max. ang.)         AngularGrid ... 3 (Lebedev-194)
Angular grid pruning method      GridPruning ... 4 (adaptive)
Weight generation scheme         WeightScheme... mBecke (2022)
Basis function cutoff            BFCut       ... 1.0000e-11
Integration weight cutoff        WCut        ... 1.0000e-14
Partially contracted basis set               ... on
Rotationally invariant grid construction     ... off
Angular grids for H and He will be reduced by one unit
Diffuse basis detected: some atoms will have their outermost
                        angular grid increased by 1.

Total number of grid points                  ...   101381
Total number of batches                      ...      809
Average number of points per batch           ...      125
Average number of grid points per atom       ...     3379
UseSFitting                                  ... on
Initializing property integral containers    ... done (  0.0 sec)

SHARK setup successfully completed in   4.1 seconds

Maximum memory used throughout the entire STARTUP-calculation: 79.8 MB
[1738811997.037576] [ohm:3119712:0]        ib_iface.c:1059 UCX  ERROR ibv_create_cq(cqe=256) failed: Connection timed out
[1738811997.043094] [ohm:3119710:0]        ib_iface.c:1059 UCX  ERROR ibv_create_cq(cqe=256) failed: Connection timed out
[1738811997.062828] [ohm:3119709:0]        ib_iface.c:1059 UCX  ERROR ibv_create_cq(cqe=256) failed: Connection timed out
[1738811997.107996] [ohm:3119727:0]        ib_iface.c:1059 UCX  ERROR ibv_create_cq(cqe=256) failed: Connection timed out
[1738811997.110374] [ohm:3119758:0]        ib_iface.c:1059 UCX  ERROR ibv_create_cq(cqe=256) failed: Connection timed out
[1738811997.123574] [ohm:3119713:0]        ib_iface.c:1059 UCX  ERROR ibv_create_cq(cqe=256) failed: Connection timed out
[1738811997.125552] [ohm:3119716:0]        ib_iface.c:1059 UCX  ERROR ibv_create_cq(cqe=256) failed: Connection timed out
[1738811997.127621] [ohm:3119725:0]        ib_iface.c:1059 UCX  ERROR ibv_create_cq(cqe=256) failed: Connection timed out
[1738811997.129989] [ohm:3119724:0]        ib_iface.c:1059 UCX  ERROR ibv_create_cq(cqe=256) failed: Connection timed out
[1738811997.134298] [ohm:3119714:0]        ib_iface.c:1059 UCX  ERROR ibv_create_cq(cqe=256) failed: Connection timed out
[1738811997.144752] [ohm:3119729:0]        ib_iface.c:1059 UCX  ERROR ibv_create_cq(cqe=256) failed: Connection timed out
[1738811997.150859] [ohm:3119731:0]        ib_iface.c:1059 UCX  ERROR ibv_create_cq(cqe=256) failed: Connection timed out
[1738811997.152757] [ohm:3119764:0]        ib_iface.c:1059 UCX  ERROR ibv_create_cq(cqe=256) failed: Connection timed out
[1738811997.152852] [ohm:3119773:0]        ib_iface.c:1059 UCX  ERROR ibv_create_cq(cqe=256) failed: Connection timed out
[1738811997.156414] [ohm:3119734:0]        ib_iface.c:1059 UCX  ERROR ibv_create_cq(cqe=256) failed: Connection timed out
[1738811997.157428] [ohm:3119723:0]        ib_iface.c:1059 UCX  ERROR ibv_create_cq(cqe=256) failed: Connection timed out
[1738811997.160047] [ohm:3119761:0]        ib_iface.c:1059 UCX  ERROR ibv_create_cq(cqe=256) failed: Connection timed out
[1738811997.161018] [ohm:3119814:0]        ib_iface.c:1059 UCX  ERROR ibv_create_cq(cqe=256) failed: Connection timed out
[1738811997.163763] [ohm:3119735:0]        ib_iface.c:1059 UCX  ERROR ibv_create_cq(cqe=256) failed: Connection timed out
[1738811997.167999] [ohm:3119728:0]        ib_iface.c:1059 UCX  ERROR ibv_create_cq(cqe=256) failed: Connection timed out
[1738811997.177476] [ohm:3119783:0]        ib_iface.c:1059 UCX  ERROR ibv_create_cq(cqe=256) failed: Connection timed out
[1738811997.193577] [ohm:3119767:0]        ib_iface.c:1059 UCX  ERROR ibv_create_cq(cqe=256) failed: Connection timed out
[1738811997.198613] [ohm:3119818:0]        ib_iface.c:1059 UCX  ERROR ibv_create_cq(cqe=256) failed: Connection timed out
[1738811997.228015] [ohm:3119835:0]        ib_iface.c:1059 UCX  ERROR ibv_create_cq(cqe=256) failed: Connection timed out
[1738811997.265888] [ohm:3119733:0]        ib_iface.c:1059 UCX  ERROR ibv_create_cq(cqe=256) failed: Connection timed out
[1738811997.269159] [ohm:3119740:0]        ib_iface.c:1059 UCX  ERROR ibv_create_cq(cqe=256) failed: Connection timed out
[1738811997.273017] [ohm:3119805:0]        ib_iface.c:1059 UCX  ERROR ibv_create_cq(cqe=256) failed: Connection timed out
[1738811997.275680] [ohm:3119746:0]        ib_iface.c:1059 UCX  ERROR ibv_create_cq(cqe=256) failed: Connection timed out
[1738811997.276265] [ohm:3119742:0]        ib_iface.c:1059 UCX  ERROR ibv_create_cq(cqe=256) failed: Connection timed out
[1738811997.279331] [ohm:3119718:0]        ib_iface.c:1059 UCX  ERROR ibv_create_cq(cqe=256) failed: Connection timed out
[1738811997.286775] [ohm:3119827:0]        ib_iface.c:1059 UCX  ERROR ibv_create_cq(cqe=256) failed: Connection timed out
[1738811997.286902] [ohm:3119851:0]        ib_iface.c:1059 UCX  ERROR ibv_create_cq(cqe=256) failed: Connection timed out
[1738811997.308632] [ohm:3119839:0]        ib_iface.c:1059 UCX  ERROR ibv_create_cq(cqe=256) failed: Connection timed out
[1738811997.314179] [ohm:3119730:0]        ib_iface.c:1059 UCX  ERROR ibv_create_cq(cqe=256) failed: Connection timed out
[1738811997.330428] [ohm:3119755:0]        ib_iface.c:1059 UCX  ERROR ibv_create_cq(cqe=256) failed: Connection timed out
[1738811997.331081] [ohm:3119854:0]        ib_iface.c:1059 UCX  ERROR ibv_create_cq(cqe=256) failed: Connection timed out
[1738811997.333508] [ohm:3119792:0]        ib_iface.c:1059 UCX  ERROR ibv_create_cq(cqe=256) failed: Connection timed out
[1738811997.334975] [ohm:3119846:0]        ib_iface.c:1059 UCX  ERROR ibv_create_cq(cqe=256) failed: Connection timed out
[1738811997.336578] [ohm:3119831:0]        ib_iface.c:1059 UCX  ERROR ibv_create_cq(cqe=256) failed: Connection timed out
[1738811997.342433] [ohm:3119711:0]        ib_iface.c:1059 UCX  ERROR ibv_create_cq(cqe=256) failed: Connection timed out
[1738811997.343581] [ohm:3119825:0]        ib_iface.c:1059 UCX  ERROR ibv_create_cq(cqe=256) failed: Connection timed out
[1738811997.354074] [ohm:3119726:0]        ib_iface.c:1059 UCX  ERROR ibv_create_cq(cqe=256) failed: Connection timed out
[1738811997.354127] [ohm:3119812:0]        ib_iface.c:1059 UCX  ERROR ibv_create_cq(cqe=256) failed: Connection timed out
[1738811997.357606] [ohm:3119828:0]        ib_iface.c:1059 UCX  ERROR ibv_create_cq(cqe=256) failed: Connection timed out
[1738811997.357883] [ohm:3119722:0]        ib_iface.c:1059 UCX  ERROR ibv_create_cq(cqe=256) failed: Connection timed out
[1738811997.376289] [ohm:3119820:0]        ib_iface.c:1059 UCX  ERROR ibv_create_cq(cqe=256) failed: Connection timed out
[1738811997.376819] [ohm:3119840:0]        ib_iface.c:1059 UCX  ERROR ibv_create_cq(cqe=256) failed: Connection timed out
[1738811997.377118] [ohm:3119751:0]        ib_iface.c:1059 UCX  ERROR ibv_create_cq(cqe=256) failed: Connection timed out
[1738811997.384373] [ohm:3119775:0]        ib_iface.c:1059 UCX  ERROR ibv_create_cq(cqe=256) failed: Connection timed out
[1738811997.390308] [ohm:3119736:0]        ib_iface.c:1059 UCX  ERROR ibv_create_cq(cqe=256) failed: Connection timed out
[1738811997.392819] [ohm:3119737:0]        ib_iface.c:1059 UCX  ERROR ibv_create_cq(cqe=256) failed: Connection timed out
[1738811997.394068] [ohm:3119721:0]        ib_iface.c:1059 UCX  ERROR ibv_create_cq(cqe=256) failed: Connection timed out
[1738811997.397400] [ohm:3119717:0]        ib_iface.c:1059 UCX  ERROR ibv_create_cq(cqe=256) failed: Connection timed out
[1738811997.401720] [ohm:3119785:0]        ib_iface.c:1059 UCX  ERROR ibv_create_cq(cqe=256) failed: Connection timed out
[1738811997.405962] [ohm:3119798:0]        ib_iface.c:1059 UCX  ERROR ibv_create_cq(cqe=256) failed: Connection timed out
[1738811997.409674] [ohm:3119823:0]        ib_iface.c:1059 UCX  ERROR ibv_create_cq(cqe=256) failed: Connection timed out
[1738811997.410023] [ohm:3119853:0]        ib_iface.c:1059 UCX  ERROR ibv_create_cq(cqe=256) failed: Connection timed out
[1738811997.410542] [ohm:3119789:0]        ib_iface.c:1059 UCX  ERROR ibv_create_cq(cqe=256) failed: Connection timed out
[1738811997.410882] [ohm:3119715:0]        ib_iface.c:1059 UCX  ERROR ibv_create_cq(cqe=256) failed: Connection timed out
[1738811997.412335] [ohm:3119794:0]        ib_iface.c:1059 UCX  ERROR ibv_create_cq(cqe=256) failed: Connection timed out
[1738811997.412534] [ohm:3119732:0]        ib_iface.c:1059 UCX  ERROR ibv_create_cq(cqe=256) failed: Connection timed out
[1738811997.415954] [ohm:3119719:0]        ib_iface.c:1059 UCX  ERROR ibv_create_cq(cqe=256) failed: Connection timed out
[1738811997.416706] [ohm:3119803:0]        ib_iface.c:1059 UCX  ERROR ibv_create_cq(cqe=256) failed: Connection timed out
[1738811997.416779] [ohm:3119720:0]        ib_iface.c:1059 UCX  ERROR ibv_create_cq(cqe=256) failed: Connection timed out


           ************************************************************
           *        Program running with 64 parallel MPI-processes    *
           *              working on a common directory               *
           ************************************************************
-------------------------------------------------------------------------------
                                 ORCA GUESS
                   Start orbitals & Density for SCF / CASSCF
-------------------------------------------------------------------------------

------------
SCF SETTINGS
------------
Hamiltonian:
 Density Functional     Method          .... DFT(GTOs)
  Functional kind                       .... Exchange-Correlation
  Functional name                       .... wB97M-V exchange-correlation functional
  Functional family                     .... Hybrid MGGA
  Functional refs                              
    [ 0] N. Mardirossian and M. Head-Gordon.,  J. Chem. Phys. 144, 214110 (2016), doi: 10.1063/1.4952647
  Fraction of HF Exchange (short range) .... 0.1500
  Fraction of HF Exchange (long range)  .... 1.0000
  Range separation parameter mu         .... 0.3000
  Functional external parameters        .... 17
    Parameter  0 _cx00      =  8.500000e-01 : u^00 coefficient for exchange
    Parameter  1 _cx01      =  1.007000e+00 : u^01 coefficient for exchange
    Parameter  2 _cx10      =  2.590000e-01 : u^10 coefficient for exchange
    Parameter  3 _css00     =  4.430000e-01 : u^00 coefficient for same-spin correlation
    Parameter  4 _css04     = -1.437000e+00 : u^04 coefficient for same-spin correlation
    Parameter  5 _css10     = -4.535000e+00 : u^10 coefficient for same-spin correlation
    Parameter  6 _css20     = -3.390000e+00 : u^20 coefficient for same-spin correlation
    Parameter  7 _css43     =  4.278000e+00 : u^43 coefficient for same-spin correlation
    Parameter  8 _cos00     =  1.000000e+00 : u^00 coefficient for opposite-spin correlation
    Parameter  9 _cos10     =  1.358000e+00 : u^10 coefficient for opposite-spin correlation
    Parameter 10 _cos20     =  2.924000e+00 : u^20 coefficient for opposite-spin correlation
    Parameter 11 _cos21     = -8.812000e+00 : u^21 coefficient for opposite-spin correlation
    Parameter 12 _cos60     = -1.390000e+00 : u^60 coefficient for opposite-spin correlation
    Parameter 13 _cos61     =  9.142000e+00 : u^61 coefficient for opposite-spin correlation
    Parameter 14 _alpha     =  1.000000e+00 : fraction of HF exchange
    Parameter 15 _beta      = -8.500000e-01 : fraction of short-range exchange
    Parameter 16 _omega     =  3.000000e-01 : range-separation constant
 Long-range corrected/Screened/Range-Separated Hybrid DFT is turned on
   Amount of maximum screened exact exchange              ....  0.850000
   Range separation parameter mu (erf(mu*r12)/r12)        ....  0.300000
 RI-approximation to the Coulomb term is turned on
   Number of AuxJ basis functions       .... 1014
   RIJ-COSX (HFX calculated with COS-X)).... on


General Settings:
 Integral files         IntName         .... orca
 Hartree-Fock type      HFTyp           .... UHF
 Total Charge           Charge          ....    0
 Multiplicity           Mult            ....    3
 Number of Electrons    NEL             ....  132
 Basis Dimension        Dim             ....  882
 Nuclear Repulsion      ENuc            ....   1432.2400335319 Eh

Convergence Acceleration:
 AO-DIIS                CNVDIIS         .... on
   Start iteration      DIISMaxIt       ....    12
   Startup error        DIISStart       ....  0.200000
   # of expansion vecs  DIISMaxEq       ....     5
   Bias factor          DIISBfac        ....   1.050
   Max. coefficient     DIISMaxC        ....  10.000
 MO-DIIS                CNVKDIIS        .... off
 Trust-Rad. Augm. Hess. CNVTRAH         .... auto
   Auto Start mean grad. ratio tolernc. ....  1.125000
   Auto Start start iteration           ....    50
   Auto Start num. interpolation iter.  ....    10
   Max. Number of Micro iterations      ....    24
   Max. Number of Macro iterations      .... Maxiter - #DIIS iter
   Number of Davidson start vectors     ....     2
   Converg. threshold    (grad. norm)   ....   1.000e-05
   Grad. Scal. Fac. for Micro threshold ....   0.100
   Minimum threshold for Micro iter.    ....   1.000e-02
   NR start threshold (gradient norm)   ....   1.000e-04
   Initial trust radius                 ....   0.400
   Minimum AH scaling param. (alpha)    ....   1.000
   Maximum AH scaling param. (alpha)    .... 1000.000
   Quad. conv. algorithm                .... NR
   White noise on init. David. guess    .... on
   Maximum white noise                  ....   0.010
   Pseudo random numbers                .... off
   Inactive MOs                         .... canonical
   Orbital update algorithm             .... Taylor
   Preconditioner                       .... Diag
   Full preconditioner red. dimension   ....   250
 SOSCF                  CNVSOSCF        .... on
   Start iteration      SOSCFMaxIt      ....   150
   Startup grad/error   SOSCFStart      ....  0.003300
   Hessian update       SOSCFHessUp     .... L-BFGS
 Level Shifting         CNVShift        .... on
   Level shift para.    LevelShift      ....    0.2500
   Turn off err/grad.   ShiftErr        ....    0.0010
 Zerner damping         CNVZerner       .... off
 Static damping         CNVDamp         .... on
   Fraction old density DampFac         ....    0.7000
   Max. Damping (<1)    DampMax         ....    0.9800
   Min. Damping (>=0)   DampMin         ....    0.0000
   Turn off err/grad.   DampErr         ....    0.1000

SCF Procedure:
 Maximum # iterations   MaxIter         ....   125
 SCF integral mode      SCFMode         .... Direct
   Integral package                     .... SHARK and LIBINT hybrid scheme
 Reset frequency        DirectResetFreq ....    20
 Integral Threshold     Thresh          ....  1.000e-12 Eh
 Primitive CutOff       TCut            ....  1.000e-13 Eh

Convergence Tolerance:
 Convergence Check Mode ConvCheckMode   .... Total+1el-Energy
 Convergence forced     ConvForced      .... 1
 Energy Change          TolE            ....  1.000e-08 Eh
 1-El. energy change                    ....  1.000e-05 Eh
 Orbital Gradient       TolG            ....  1.000e-05
 Orbital Rotation angle TolX            ....  1.000e-05
 DIIS Error             TolErr          ....  5.000e-07

------------------------------
INITIAL GUESS: MODEL POTENTIAL
------------------------------
Loading Hartree-Fock densities                     ... done
Calculating cut-offs                               ... done
Initializing the effective Hamiltonian             ... done
Setting up the integral package (SHARK)            ... done
Starting the Coulomb interaction                   ... done (   0.1 sec)
Making the grid                                    ... done (   0.3 sec)
Mapping shells                                     ... done
Starting the XC term evaluation                    ... done (   0.1 sec)
  promolecular density results
     # of electrons  =    131.998285617
     EX              =   -113.585581077
     EC              =     -4.473495081
     EX+EC           =   -118.059076157
Transforming the Hamiltonian                       ... done (   0.1 sec)
Diagonalizing the Hamiltonian                      ... done (   0.1 sec)
Back transforming the eigenvectors                 ... done (   0.1 sec)
Now organizing SCF variables                       ... done
                      ------------------
                      INITIAL GUESS DONE (   1.1 sec)
                      ------------------
             **** ENERGY FILE WAS UPDATED (orca.en.tmp) ****
Finished Guess after   3.5 sec
Maximum memory used throughout the entire GUESS-calculation: 72.3 MB
[1738812001.156008] [ohm:3120041:0]        ib_iface.c:1059 UCX  ERROR ibv_create_cq(cqe=256) failed: Connection timed out
[1738812001.161600] [ohm:3120040:0]        ib_iface.c:1059 UCX  ERROR ibv_create_cq(cqe=256) failed: Connection timed out
[1738812001.206219] [ohm:3120043:0]        ib_iface.c:1059 UCX  ERROR ibv_create_cq(cqe=256) failed: Connection timed out
[1738812001.216175] [ohm:3120056:0]        ib_iface.c:1059 UCX  ERROR ibv_create_cq(cqe=256) failed: Connection timed out
[1738812001.216354] [ohm:3120046:0]        ib_iface.c:1059 UCX  ERROR ibv_create_cq(cqe=256) failed: Connection timed out
[1738812001.233821] [ohm:3120112:0]        ib_iface.c:1059 UCX  ERROR ibv_create_cq(cqe=256) failed: Connection timed out
[1738812001.240280] [ohm:3120057:0]        ib_iface.c:1059 UCX  ERROR ibv_create_cq(cqe=256) failed: Connection timed out
[1738812001.242460] [ohm:3120066:0]        ib_iface.c:1059 UCX  ERROR ibv_create_cq(cqe=256) failed: Connection timed out
[1738812001.242716] [ohm:3120169:0]        ib_iface.c:1059 UCX  ERROR ibv_create_cq(cqe=256) failed: Connection timed out
[1738812001.243364] [ohm:3120047:0]        ib_iface.c:1059 UCX  ERROR ibv_create_cq(cqe=256) failed: Connection timed out
[1738812001.248117] [ohm:3120048:0]        ib_iface.c:1059 UCX  ERROR ibv_create_cq(cqe=256) failed: Connection timed out
[1738812001.249599] [ohm:3120152:0]        ib_iface.c:1059 UCX  ERROR ibv_create_cq(cqe=256) failed: Connection timed out
[1738812001.256032] [ohm:3120092:0]        ib_iface.c:1059 UCX  ERROR ibv_create_cq(cqe=256) failed: Connection timed out
[1738812001.258181] [ohm:3120148:0]        ib_iface.c:1059 UCX  ERROR ibv_create_cq(cqe=256) failed: Connection timed out
[1738812001.258173] [ohm:3120059:0]        ib_iface.c:1059 UCX  ERROR ibv_create_cq(cqe=256) failed: Connection timed out
[1738812001.329857] [ohm:3120166:0]        ib_iface.c:1059 UCX  ERROR ibv_create_cq(cqe=256) failed: Connection timed out
[1738812001.329762] [ohm:3120134:0]        ib_iface.c:1059 UCX  ERROR ibv_create_cq(cqe=256) failed: Connection timed out
[1738812001.334263] [ohm:3120055:0]        ib_iface.c:1059 UCX  ERROR ibv_create_cq(cqe=256) failed: Connection timed out
[1738812001.335530] [ohm:3120097:0]        ib_iface.c:1059 UCX  ERROR ibv_create_cq(cqe=256) failed: Connection timed out
[1738812001.335804] [ohm:3120118:0]        ib_iface.c:1059 UCX  ERROR ibv_create_cq(cqe=256) failed: Connection timed out
[1738812001.336714] [ohm:3120103:0]        ib_iface.c:1059 UCX  ERROR ibv_create_cq(cqe=256) failed: Connection timed out
[1738812001.338041] [ohm:3120113:0]        ib_iface.c:1059 UCX  ERROR ibv_create_cq(cqe=256) failed: Connection timed out
[1738812001.342889] [ohm:3120125:0]        ib_iface.c:1059 UCX  ERROR ibv_create_cq(cqe=256) failed: Connection timed out
[1738812001.343089] [ohm:3120126:0]        ib_iface.c:1059 UCX  ERROR ibv_create_cq(cqe=256) failed: Connection timed out
[1738812001.365488] [ohm:3120082:0]        ib_iface.c:1059 UCX  ERROR ibv_create_cq(cqe=256) failed: Connection timed out
[1738812001.372499] [ohm:3120160:0]        ib_iface.c:1059 UCX  ERROR ibv_create_cq(cqe=256) failed: Connection timed out
[1738812001.384439] [ohm:3120079:0]        ib_iface.c:1059 UCX  ERROR ibv_create_cq(cqe=256) failed: Connection timed out
[1738812001.390054] [ohm:3120119:0]        ib_iface.c:1059 UCX  ERROR ibv_create_cq(cqe=256) failed: Connection timed out
[1738812001.397338] [ohm:3120081:0]        ib_iface.c:1059 UCX  ERROR ibv_create_cq(cqe=256) failed: Connection timed out
[1738812001.399869] [ohm:3120060:0]        ib_iface.c:1059 UCX  ERROR ibv_create_cq(cqe=256) failed: Connection timed out
[1738812001.404214] [ohm:3120063:0]        ib_iface.c:1059 UCX  ERROR ibv_create_cq(cqe=256) failed: Connection timed out
[1738812001.405489] [ohm:3120180:0]        ib_iface.c:1059 UCX  ERROR ibv_create_cq(cqe=256) failed: Connection timed out
[1738812001.413271] [ohm:3120045:0]        ib_iface.c:1059 UCX  ERROR ibv_create_cq(cqe=256) failed: Connection timed out
[1738812001.428469] [ohm:3120076:0]        ib_iface.c:1059 UCX  ERROR ibv_create_cq(cqe=256) failed: Connection timed out
[1738812001.430748] [ohm:3120133:0]        ib_iface.c:1059 UCX  ERROR ibv_create_cq(cqe=256) failed: Connection timed out
[1738812001.437061] [ohm:3120054:0]        ib_iface.c:1059 UCX  ERROR ibv_create_cq(cqe=256) failed: Connection timed out
[1738812001.442151] [ohm:3120058:0]        ib_iface.c:1059 UCX  ERROR ibv_create_cq(cqe=256) failed: Connection timed out
[1738812001.458543] [ohm:3120101:0]        ib_iface.c:1059 UCX  ERROR ibv_create_cq(cqe=256) failed: Connection timed out
[1738812001.466456] [ohm:3120106:0]        ib_iface.c:1059 UCX  ERROR ibv_create_cq(cqe=256) failed: Connection timed out
[1738812001.471853] [ohm:3120085:0]        ib_iface.c:1059 UCX  ERROR ibv_create_cq(cqe=256) failed: Connection timed out
[1738812001.472267] [ohm:3120087:0]        ib_iface.c:1059 UCX  ERROR ibv_create_cq(cqe=256) failed: Connection timed out
[1738812001.477168] [ohm:3120072:0]        ib_iface.c:1059 UCX  ERROR ibv_create_cq(cqe=256) failed: Connection timed out
[1738812001.477403] [ohm:3120095:0]        ib_iface.c:1059 UCX  ERROR ibv_create_cq(cqe=256) failed: Connection timed out
[1738812001.477633] [ohm:3120050:0]        ib_iface.c:1059 UCX  ERROR ibv_create_cq(cqe=256) failed: Connection timed out
[1738812001.485126] [ohm:3120051:0]        ib_iface.c:1059 UCX  ERROR ibv_create_cq(cqe=256) failed: Connection timed out
[1738812001.487957] [ohm:3120068:0]        ib_iface.c:1059 UCX  ERROR ibv_create_cq(cqe=256) failed: Connection timed out
[1738812001.496632] [ohm:3120142:0]        ib_iface.c:1059 UCX  ERROR ibv_create_cq(cqe=256) failed: Connection timed out
[1738812001.499779] [ohm:3120053:0]        ib_iface.c:1059 UCX  ERROR ibv_create_cq(cqe=256) failed: Connection timed out
[1738812001.503519] [ohm:3120157:0]        ib_iface.c:1059 UCX  ERROR ibv_create_cq(cqe=256) failed: Connection timed out
[1738812001.507835] [ohm:3120108:0]        ib_iface.c:1059 UCX  ERROR ibv_create_cq(cqe=256) failed: Connection timed out
[1738812001.512054] [ohm:3120111:0]        ib_iface.c:1059 UCX  ERROR ibv_create_cq(cqe=256) failed: Connection timed out
[1738812001.517139] [ohm:3120044:0]        ib_iface.c:1059 UCX  ERROR ibv_create_cq(cqe=256) failed: Connection timed out
[1738812001.519016] [ohm:3120052:0]        ib_iface.c:1059 UCX  ERROR ibv_create_cq(cqe=256) failed: Connection timed out
[1738812001.519447] [ohm:3120128:0]        ib_iface.c:1059 UCX  ERROR ibv_create_cq(cqe=256) failed: Connection timed out
[1738812001.520075] [ohm:3120170:0]        ib_iface.c:1059 UCX  ERROR ibv_create_cq(cqe=256) failed: Connection timed out
[1738812001.520152] [ohm:3120163:0]        ib_iface.c:1059 UCX  ERROR ibv_create_cq(cqe=256) failed: Connection timed out
[1738812001.522168] [ohm:3120140:0]        ib_iface.c:1059 UCX  ERROR ibv_create_cq(cqe=256) failed: Connection timed out
[1738812001.523466] [ohm:3120110:0]        ib_iface.c:1059 UCX  ERROR ibv_create_cq(cqe=256) failed: Connection timed out
[1738812001.524150] [ohm:3120153:0]        ib_iface.c:1059 UCX  ERROR ibv_create_cq(cqe=256) failed: Connection timed out
[1738812001.524618] [ohm:3120145:0]        ib_iface.c:1059 UCX  ERROR ibv_create_cq(cqe=256) failed: Connection timed out
[1738812001.524679] [ohm:3120175:0]        ib_iface.c:1059 UCX  ERROR ibv_create_cq(cqe=256) failed: Connection timed out
[1738812001.526845] [ohm:3120049:0]        ib_iface.c:1059 UCX  ERROR ibv_create_cq(cqe=256) failed: Connection timed out
[1738812001.527295] [ohm:3120187:0]        ib_iface.c:1059 UCX  ERROR ibv_create_cq(cqe=256) failed: Connection timed out
[1738812001.528136] [ohm:3120042:0]        ib_iface.c:1059 UCX  ERROR ibv_create_cq(cqe=256) failed: Connection timed out


           ************************************************************
           *        Program running with 64 parallel MPI-processes    *
           *              working on a common directory               *
           ************************************************************

-------------------------------------------------------------------------------------------
                                      ORCA LEAN-SCF
                              memory conserving SCF solver
-------------------------------------------------------------------------------------------

----------------------------------------D-I-I-S--------------------------------------------
Iteration    Energy (Eh)           Delta-E    RMSDP     MaxDP     DIISErr   Damp  Time(sec)
-------------------------------------------------------------------------------------------
               ***  Starting incremental Fock matrix formation  ***
    1    -908.0755805447622606     0.00e+00  1.40e-03  2.67e-01  1.45e-01  0.700   7.6
    2    -908.3414716715576560    -2.66e-01  1.16e-03  1.69e-01  6.78e-02  0.700   6.4
                               ***Turning on AO-DIIS***
    3    -908.4611012791294797    -1.20e-01  8.73e-04  1.03e-01  2.68e-02  0.700   5.7
    4    -908.5340083934395352    -7.29e-02  2.15e-03  2.22e-01  1.90e-02  0.000   5.6
    5    -908.6963258597422737    -1.62e-01  3.46e-04  5.01e-02  4.04e-03  0.000   5.8
                              *** Initializing SOSCF ***
---------------------------------------S-O-S-C-F--------------------------------------
Iteration    Energy (Eh)           Delta-E    RMSDP     MaxDP     MaxGrad    Time(sec)
--------------------------------------------------------------------------------------
    6    -908.6975043284840012    -1.18e-03  2.75e-04  4.27e-02  2.27e-03     6.6
               *** Restarting incremental Fock matrix formation ***
    7    -908.6982572438271291    -7.53e-04  5.35e-04  7.60e-02  8.43e-03     7.4
               *** Scaled step length from 0.208503 to 0.200000 ***
Curvature condition for BFGS not met. Restarting diagonal Hessian.
    8    -908.7003831217109564    -2.13e-03  2.61e-03  3.40e-01  1.07e-02     7.4
               *** Scaled step length from 0.312196 to 0.200000 ***
    9    -908.6920797193286035     8.30e-03  1.65e-03  2.53e-01  4.19e-02     7.0
   10    -908.6998325418473996    -7.75e-03  1.49e-03  1.90e-01  2.66e-02     7.0
               *** Scaled step length from 1.784061 to 0.200000 ***
   11    -908.7105030363375135    -1.07e-02  1.48e-03  2.70e-01  2.17e-02     7.0
               *** Scaled step length from 1.156972 to 0.200000 ***
   12    -908.7218255910900098    -1.13e-02  1.16e-03  1.90e-01  2.03e-02     7.0
               *** Scaled step length from 0.268331 to 0.200000 ***
   13    -908.7299112089292521    -8.09e-03  1.15e-03  1.65e-01  1.38e-02     6.9
   14    -908.7345402165121868    -4.63e-03  1.28e-03  2.67e-01  4.70e-03     7.0
   15    -908.7363611793368818    -1.82e-03  8.60e-04  1.70e-01  4.90e-03     7.0
   16    -908.7369718378547532    -6.11e-04  2.71e-04  4.96e-02  5.15e-03     6.9
   17    -908.7373386966016824    -3.67e-04  1.96e-04  1.64e-02  3.61e-03     6.7
   18    -908.7374936649036954    -1.55e-04  1.18e-04  1.25e-02  1.20e-03     6.6
   19    -908.7375200037361083    -2.63e-05  5.85e-05  4.74e-03  3.83e-04     6.5
   20    -908.7375292387439458    -9.24e-06  2.32e-05  2.29e-03  1.45e-04     6.3
   21    -908.7375304692029658    -1.23e-06  7.87e-06  1.08e-03  5.34e-05     6.1
   22    -908.7375308204170778    -3.51e-07  4.12e-06  6.35e-04  4.76e-05     5.9
   23    -908.7375308581570152    -3.77e-08  1.61e-06  2.74e-04  2.39e-05     5.8
   24    -908.7375308837279135    -2.56e-08  1.33e-06  1.33e-04  1.13e-05     5.6
   25    -908.7375308546131691     2.91e-08  1.32e-06  1.64e-04  5.21e-06     5.6
   26    -908.7375308970915739    -4.25e-08  8.14e-07  1.35e-04  4.55e-06     5.4
               *** Restarting incremental Fock matrix formation ***
   27    -908.7375309730812205    -7.60e-08  2.09e-06  3.34e-04  1.50e-06     7.1
                  *** Gradient check signals convergence ***

               *****************************************************
               *                     SUCCESS                       *
               *           SCF CONVERGED AFTER  27 CYCLES          *
               *****************************************************

Recomputing exchange energy using gridx3       ... done (    7.829 sec)
Old exchange energy                            :    -35.039173122 Eh
New exchange energy                            :    -35.039167751 Eh
Exchange energy change after final integration :      0.000005371 Eh
Total energy after final integration           :   -908.737525602 Eh
             **** ENERGY FILE WAS UPDATED (orca.en.tmp) ****

----------------
TOTAL SCF ENERGY
----------------

Total Energy       :       -908.73752560171079 Eh          -24728.00522 eV

Components:
Nuclear Repulsion  :       1432.24003353186004 Eh           38973.23267 eV
Electronic Energy  :      -2340.97756450494126 Eh          -63701.23804 eV
One Electron Energy:      -4082.01091843650738 Eh         -111077.16414 eV
Two Electron Energy:       1741.03335393156635 Eh           47375.92611 eV

Virial components:
Potential Energy   :      -1814.97863399666107 Eh          -49388.07947 eV
Kinetic Energy     :        906.24110839495029 Eh           24660.07425 eV
Virial Ratio       :          2.00275469429011

DFT components:
N(Alpha)           :       66.999960652012 electrons
N(Beta)            :       64.999950887617 electrons
N(Total)           :      131.999911539629 electrons
E(XC)              :      -86.311631884501 Eh       

---------------
SCF CONVERGENCE
---------------

  Last Energy change         ...    7.5990e-08  Tolerance :   1.0000e-08
  Last MAX-Density change    ...    3.3403e-04  Tolerance :   1.0000e-07
  Last RMS-Density change    ...    2.0924e-06  Tolerance :   5.0000e-09
  Last DIIS Error            ...    2.2659e-03  Tolerance :   5.0000e-07
  Last Orbital Gradient      ...    1.5022e-06  Tolerance :   1.0000e-05
  Last Orbital Rotation      ...    8.0664e-06  Tolerance :   1.0000e-05


----------------------
UHF SPIN CONTAMINATION
----------------------

Warning: in a DFT calculation there is little theoretical justification to 
         calculate <S**2> as in Hartree-Fock theory. We will do it anyways
         but you should keep in mind that the values have only limited relevance

Expectation value of <S**2>     :     2.010237
Ideal value S*(S+1) for S=1.0   :     2.000000
Deviation                       :     0.010237

----------------
ORBITAL ENERGIES
----------------
                 SPIN UP ORBITALS
  NO   OCC          E(Eh)            E(eV) 
   0   1.0000     -19.330707      -526.0153 
   1   1.0000     -19.328727      -525.9614 
   2   1.0000     -19.323395      -525.8163 
   3   1.0000     -19.315890      -525.6121 
   4   1.0000     -14.591808      -397.0633 
   5   1.0000     -14.584160      -396.8552 
   6   1.0000     -14.570383      -396.4803 
   7   1.0000     -14.546163      -395.8212 
   8   1.0000     -10.514889      -286.1247 
   9   1.0000     -10.507631      -285.9272 
  10   1.0000     -10.479225      -285.1542 
  11   1.0000     -10.453555      -284.4557 
  12   1.0000     -10.434123      -283.9269 
  13   1.0000     -10.405273      -283.1419 
  14   1.0000     -10.396029      -282.8903 
  15   1.0000     -10.382160      -282.5129 
  16   1.0000     -10.368416      -282.1389 
  17   1.0000     -10.354587      -281.7626 
  18   1.0000      -1.228041       -33.4167 
  19   1.0000      -1.223323       -33.2883 
  20   1.0000      -1.194444       -32.5025 
  21   1.0000      -1.186429       -32.2844 
  22   1.0000      -1.123363       -30.5683 
  23   1.0000      -1.122963       -30.5574 
  24   1.0000      -1.070655       -29.1340 
  25   1.0000      -1.057841       -28.7853 
  26   1.0000      -0.972967       -26.4758 
  27   1.0000      -0.957942       -26.0669 
  28   1.0000      -0.855476       -23.2787 
  29   1.0000      -0.848638       -23.0926 
  30   1.0000      -0.811127       -22.0719 
  31   1.0000      -0.807176       -21.9644 
  32   1.0000      -0.794659       -21.6238 
  33   1.0000      -0.786200       -21.3936 
  34   1.0000      -0.698971       -19.0200 
  35   1.0000      -0.696426       -18.9507 
  36   1.0000      -0.692607       -18.8468 
  37   1.0000      -0.688390       -18.7320 
  38   1.0000      -0.645178       -17.5562 
  39   1.0000      -0.635872       -17.3029 
  40   1.0000      -0.626630       -17.0515 
  41   1.0000      -0.603713       -16.4279 
  42   1.0000      -0.598320       -16.2811 
  43   1.0000      -0.591654       -16.0997 
  44   1.0000      -0.571397       -15.5485 
  45   1.0000      -0.568489       -15.4694 
  46   1.0000      -0.567231       -15.4351 
  47   1.0000      -0.552378       -15.0310 
  48   1.0000      -0.549203       -14.9446 
  49   1.0000      -0.546005       -14.8576 
  50   1.0000      -0.528875       -14.3914 
  51   1.0000      -0.526041       -14.3143 
  52   1.0000      -0.517768       -14.0892 
  53   1.0000      -0.515717       -14.0334 
  54   1.0000      -0.507278       -13.8037 
  55   1.0000      -0.501367       -13.6429 
  56   1.0000      -0.492834       -13.4107 
  57   1.0000      -0.479466       -13.0469 
  58   1.0000      -0.421059       -11.4576 
  59   1.0000      -0.418279       -11.3819 
  60   1.0000      -0.406854       -11.0711 
  61   1.0000      -0.398203       -10.8357 
  62   1.0000      -0.388594       -10.5742 
  63   1.0000      -0.385288       -10.4842 
  64   1.0000      -0.383119       -10.4252 
  65   1.0000      -0.348344        -9.4789 
  66   1.0000      -0.207378        -5.6430 
  67   0.0000       0.011650         0.3170 
  68   0.0000       0.019998         0.5442 
  69   0.0000       0.033078         0.9001 
  70   0.0000       0.037220         1.0128 
  71   0.0000       0.044211         1.2031 
  72   0.0000       0.056932         1.5492 
  73   0.0000       0.057675         1.5694 
  74   0.0000       0.066502         1.8096 
  75   0.0000       0.067502         1.8368 
  76   0.0000       0.070808         1.9268 
  77   0.0000       0.073694         2.0053 

                 SPIN DOWN ORBITALS
  NO   OCC          E(Eh)            E(eV) 
   0   1.0000     -19.328820      -525.9639 
   1   1.0000     -19.328711      -525.9610 
   2   1.0000     -19.323412      -525.8168 
   3   1.0000     -19.309530      -525.4390 
   4   1.0000     -14.586492      -396.9186 
   5   1.0000     -14.584005      -396.8510 
   6   1.0000     -14.570401      -396.4808 
   7   1.0000     -14.545254      -395.7965 
   8   1.0000     -10.514893      -286.1248 
   9   1.0000     -10.508011      -285.9375 
  10   1.0000     -10.479212      -285.1538 
  11   1.0000     -10.453280      -284.4482 
  12   1.0000     -10.433957      -283.9224 
  13   1.0000     -10.395787      -282.8837 
  14   1.0000     -10.385888      -282.6144 
  15   1.0000     -10.382183      -282.5136 
  16   1.0000     -10.368882      -282.1516 
  17   1.0000     -10.354575      -281.7623 
  18   1.0000      -1.227558       -33.4035 
  19   1.0000      -1.219390       -33.1813 
  20   1.0000      -1.194395       -32.5011 
  21   1.0000      -1.177005       -32.0279 
  22   1.0000      -1.123007       -30.5586 
  23   1.0000      -1.112046       -30.2603 
  24   1.0000      -1.070567       -29.1316 
  25   1.0000      -1.052320       -28.6351 
  26   1.0000      -0.958316       -26.0771 
  27   1.0000      -0.948479       -25.8094 
  28   1.0000      -0.848603       -23.0917 
  29   1.0000      -0.844211       -22.9722 
  30   1.0000      -0.810979       -22.0679 
  31   1.0000      -0.796826       -21.6827 
  32   1.0000      -0.793677       -21.5971 
  33   1.0000      -0.779425       -21.2092 
  34   1.0000      -0.696293       -18.9471 
  35   1.0000      -0.692688       -18.8490 
  36   1.0000      -0.687015       -18.6946 
  37   1.0000      -0.680217       -18.5096 
  38   1.0000      -0.643951       -17.5228 
  39   1.0000      -0.627781       -17.0828 
  40   1.0000      -0.620370       -16.8811 
  41   1.0000      -0.598258       -16.2794 
  42   1.0000      -0.591903       -16.1065 
  43   1.0000      -0.583410       -15.8754 
  44   1.0000      -0.568442       -15.4681 
  45   1.0000      -0.561306       -15.2739 
  46   1.0000      -0.557311       -15.1652 
  47   1.0000      -0.551504       -15.0072 
  48   1.0000      -0.541340       -14.7306 
  49   1.0000      -0.538691       -14.6585 
  50   1.0000      -0.520306       -14.1582 
  51   1.0000      -0.518502       -14.1091 
  52   1.0000      -0.516152       -14.0452 
  53   1.0000      -0.504047       -13.7158 
  54   1.0000      -0.501839       -13.6557 
  55   1.0000      -0.497786       -13.5454 
  56   1.0000      -0.478585       -13.0230 
  57   1.0000      -0.446626       -12.1533 
  58   1.0000      -0.420459       -11.4413 
  59   1.0000      -0.413164       -11.2428 
  60   1.0000      -0.403298       -10.9743 
  61   1.0000      -0.388322       -10.5668 
  62   1.0000      -0.376530       -10.2459 
  63   1.0000      -0.374089       -10.1795 
  64   1.0000      -0.348090        -9.4720 
  65   0.0000      -0.104892        -2.8543 
  66   0.0000       0.010769         0.2930 
  67   0.0000       0.020246         0.5509 
  68   0.0000       0.030492         0.8297 
  69   0.0000       0.036177         0.9844 
  70   0.0000       0.043459         1.1826 
  71   0.0000       0.056544         1.5386 
  72   0.0000       0.057805         1.5729 
  73   0.0000       0.063981         1.7410 
  74   0.0000       0.067608         1.8397 
  75   0.0000       0.069208         1.8833 
*Only the first 10 virtual orbitals were printed.

                    ********************************
                    * MULLIKEN POPULATION ANALYSIS *
                    ********************************

[...]
[1738812343.943913] [ohm:3121327:0]        ib_iface.c:1059 UCX  ERROR ibv_create_cq(cqe=256) failed: Connection timed out
[1738812343.946806] [ohm:3121296:0]        ib_iface.c:1059 UCX  ERROR ibv_create_cq(cqe=256) failed: Connection timed out
[1738812343.947248] [ohm:3121320:0]        ib_iface.c:1059 UCX  ERROR ibv_create_cq(cqe=256) failed: Connection timed out
[1738812343.948323] [ohm:3121349:0]        ib_iface.c:1059 UCX  ERROR ibv_create_cq(cqe=256) failed: Connection timed out
[1738812343.950482] [ohm:3121363:0]        ib_iface.c:1059 UCX  ERROR ibv_create_cq(cqe=256) failed: Connection timed out
[1738812343.950658] [ohm:3121359:0]        ib_iface.c:1059 UCX  ERROR ibv_create_cq(cqe=256) failed: Connection timed out
[1738812343.951298] [ohm:3121279:0]        ib_iface.c:1059 UCX  ERROR ibv_create_cq(cqe=256) failed: Connection timed out
[1738812343.952584] [ohm:3121350:0]        ib_iface.c:1059 UCX  ERROR ibv_create_cq(cqe=256) failed: Connection timed out
[1738812343.953253] [ohm:3121345:0]        ib_iface.c:1059 UCX  ERROR ibv_create_cq(cqe=256) failed: Connection timed out
[1738812343.953986] [ohm:3121356:0]        ib_iface.c:1059 UCX  ERROR ibv_create_cq(cqe=256) failed: Connection timed out


           ************************************************************
           *        Program running with 64 parallel MPI-processes    *
           *              working on a common directory               *
           ************************************************************

------------------------------------------------------------------------------
                              ORCA PROPERTY CALCULATIONS
------------------------------------------------------------------------------

GBWName                                 ... orca.gbw
Number of atoms                         ...     30
Number of basis functions               ...    882
Max core memory                         ...   1024 MB

Electric properties:
Dipole moment                           ... YES
Quadrupole moment                       ...  NO
Static polarizability (Dipole/Dipole)   ...  NO
Static polarizability (Dipole/Quad.)    ...  NO
Static polarizability (Quad./Quad.)     ...  NO
Static polarizability (Velocity)        ...  NO

Atomic electric properties:
Dipole moment                           ...  NO
Quadrupole moment                       ...  NO
Static polarizability                   ...  NO

Choice of electric origin               ... Center of mass
Position of electric origin             ...     0.034378    -0.038402     0.080424

General magnetic properties:
Magnetizability                         ...  NO

EPR properties:
g-Tensor (aka g-matrix)                 ...  NO
Zero-Field splitting spin-orbit         ...  NO
Zero-field splitting spin-spin          ...  NO
Hyperfine couplings                     ...  NO (   0 nuclei)
Quadrupole couplings                    ...  NO (   0 nuclei)
Contact density                         ...  NO (   0 nuclei)

NMR properties:
Chemical shifts                         ...  NO (   0 nuclei)
Spin-rotation constants                 ...  NO (   0 nuclei)
Spin-spin couplings                     ...  NO (   0 nuclei,    0 pairs)

Choice of magnetic origin               ... GIAO
Position of magnetic origin             ...     0.000000     0.000000     0.000000

Properties with geometric perturbations:
SCF Hessian                             ...  NO
IR spectrum                             ...  NO
VCD spectrum                            ...  NO
X-ray spectroscopy properties:
SCF XES/XAS/RIXS spectra                ...  NO


-------------
DIPOLE MOMENT
-------------

Method             : SCF
Type of density    : Electron Density
Multiplicity       :   3
Irrep              :   0
Energy             :  -908.7375256017107858 Eh
Relativity type    : 
Basis              : AO
                                X                 Y                 Z
Electronic contribution:     -2.636329204     -10.310632336      -6.007412326
Nuclear contribution   :      1.783358804      11.437950687       8.467890029
                        -----------------------------------------
Total Dipole Moment    :     -0.852970400       1.127318350       2.460477703
                        -----------------------------------------
Magnitude (a.u.)       :      2.837667298
Magnitude (Debye)      :      7.212777062



--------------------
Rotational spectrum 
--------------------
 
Rotational constants in cm-1:             0.017770             0.015246             0.012070 
Rotational constants in MHz :           532.721394           457.051981           361.838295 

Dipole components along the rotational axes: 
x,y,z [a.u.] :     1.520823     1.078730     2.139111 
x,y,z [Debye]:     3.865625     2.741914     5.437187 

 

-------------
DIPOLE MOMENT
-------------

Method             : TDA/CIS
Type of density    : Electron Density
Level              : Relaxed density
State              :   2
Multiplicity       :   3
Irrep              :   0
Energy             :     0.0000000000000000 Eh
Relativity type    : 
Basis              : AO
                                X                 Y                 Z
Electronic contribution:     -2.670613136     -10.405392666      -6.000793398
Nuclear contribution   :      1.783358804      11.437950687       8.467890029
                        -----------------------------------------
Total Dipole Moment    :     -0.887254332       1.032558021       2.467096631
                        -----------------------------------------
Magnitude (a.u.)       :      2.817793836
Magnitude (Debye)      :      7.162262737



--------------------
Rotational spectrum 
--------------------
 
Rotational constants in cm-1:             0.017770             0.015246             0.012070 
Rotational constants in MHz :           532.721394           457.051981           361.838295 

Dipole components along the rotational axes: 
x,y,z [a.u.] :     1.533795     0.979330     2.151360 
x,y,z [Debye]:     3.898596     2.489258     5.468323 

 

Dipole moment calculation done in   0.2 sec 

Maximum memory used throughout the entire PROP-calculation: 81.3 MB
[1738812346.526791] [ohm:3121551:0]        ib_iface.c:1059 UCX  ERROR ibv_create_cq(cqe=256) failed: Connection timed out
[1738812346.531838] [ohm:3121553:0]        ib_iface.c:1059 UCX  ERROR ibv_create_cq(cqe=256) failed: Connection timed out
[1738812346.540520] [ohm:3121547:0]        ib_iface.c:1059 UCX  ERROR ibv_create_cq(cqe=256) failed: Connection timed out
[1738812346.561379] [ohm:3121570:0]        ib_iface.c:1059 UCX  ERROR ibv_create_cq(cqe=256) failed: Connection timed out
[1738812346.563838] [ohm:3121600:0]        ib_iface.c:1059 UCX  ERROR ibv_create_cq(cqe=256) failed: Connection timed out
[1738812346.571349] [ohm:3121562:0]        ib_iface.c:1059 UCX  ERROR ibv_create_cq(cqe=256) failed: Connection timed out
[1738812346.571864] [ohm:3121557:0]        ib_iface.c:1059 UCX  ERROR ibv_create_cq(cqe=256) failed: Connection timed out
[1738812346.582158] [ohm:3121549:0]        ib_iface.c:1059 UCX  ERROR ibv_create_cq(cqe=256) failed: Connection timed out
[1738812346.586676] [ohm:3121554:0]        ib_iface.c:1059 UCX  ERROR ibv_create_cq(cqe=256) failed: Connection timed out
[1738812346.592937] [ohm:3121552:0]        ib_iface.c:1059 UCX  ERROR ibv_create_cq(cqe=256) failed: Connection timed out
[1738812346.593653] [ohm:3121548:0]        ib_iface.c:1059 UCX  ERROR ibv_create_cq(cqe=256) failed: Connection timed out
[1738812346.593934] [ohm:3121563:0]        ib_iface.c:1059 UCX  ERROR ibv_create_cq(cqe=256) failed: Connection timed out
[1738812346.594153] [ohm:3121566:0]        ib_iface.c:1059 UCX  ERROR ibv_create_cq(cqe=256) failed: Connection timed out
[1738812346.608768] [ohm:3121568:0]        ib_iface.c:1059 UCX  ERROR ibv_create_cq(cqe=256) failed: Connection timed out
[1738812346.647274] [ohm:3121607:0]        ib_iface.c:1059 UCX  ERROR ibv_create_cq(cqe=256) failed: Connection timed out
[1738812346.652382] [ohm:3121574:0]        ib_iface.c:1059 UCX  ERROR ibv_create_cq(cqe=256) failed: Connection timed out
[1738812346.661431] [ohm:3121704:0]        ib_iface.c:1059 UCX  ERROR ibv_create_cq(cqe=256) failed: Connection timed out
[1738812346.665130] [ohm:3121593:0]        ib_iface.c:1059 UCX  ERROR ibv_create_cq(cqe=256) failed: Connection timed out
[1738812346.666010] [ohm:3121604:0]        ib_iface.c:1059 UCX  ERROR ibv_create_cq(cqe=256) failed: Connection timed out
[1738812346.686344] [ohm:3121556:0]        ib_iface.c:1059 UCX  ERROR ibv_create_cq(cqe=256) failed: Connection timed out
[1738812346.691826] [ohm:3121643:0]        ib_iface.c:1059 UCX  ERROR ibv_create_cq(cqe=256) failed: Connection timed out
[1738812346.698632] [ohm:3121603:0]        ib_iface.c:1059 UCX  ERROR ibv_create_cq(cqe=256) failed: Connection timed out
[1738812346.707909] [ohm:3121661:0]        ib_iface.c:1059 UCX  ERROR ibv_create_cq(cqe=256) failed: Connection timed out
[1738812346.710087] [ohm:3121684:0]        ib_iface.c:1059 UCX  ERROR ibv_create_cq(cqe=256) failed: Connection timed out
[1738812346.711873] [ohm:3121678:0]        ib_iface.c:1059 UCX  ERROR ibv_create_cq(cqe=256) failed: Connection timed out
[1738812346.725917] [ohm:3121579:0]        ib_iface.c:1059 UCX  ERROR ibv_create_cq(cqe=256) failed: Connection timed out
[1738812346.728387] [ohm:3121598:0]        ib_iface.c:1059 UCX  ERROR ibv_create_cq(cqe=256) failed: Connection timed out
[1738812346.732441] [ohm:3121639:0]        ib_iface.c:1059 UCX  ERROR ibv_create_cq(cqe=256) failed: Connection timed out
[1738812346.736335] [ohm:3121625:0]        ib_iface.c:1059 UCX  ERROR ibv_create_cq(cqe=256) failed: Connection timed out
[1738812346.740039] [ohm:3121561:0]        ib_iface.c:1059 UCX  ERROR ibv_create_cq(cqe=256) failed: Connection timed out
[1738812346.740441] [ohm:3121559:0]        ib_iface.c:1059 UCX  ERROR ibv_create_cq(cqe=256) failed: Connection timed out
[1738812346.743960] [ohm:3121560:0]        ib_iface.c:1059 UCX  ERROR ibv_create_cq(cqe=256) failed: Connection timed out
[1738812346.746720] [ohm:3121640:0]        ib_iface.c:1059 UCX  ERROR ibv_create_cq(cqe=256) failed: Connection timed out
[1738812346.763618] [ohm:3121584:0]        ib_iface.c:1059 UCX  ERROR ibv_create_cq(cqe=256) failed: Connection timed out
[1738812346.770642] [ohm:3121633:0]        ib_iface.c:1059 UCX  ERROR ibv_create_cq(cqe=256) failed: Connection timed out
[1738812346.773218] [ohm:3121675:0]        ib_iface.c:1059 UCX  ERROR ibv_create_cq(cqe=256) failed: Connection timed out
[1738812346.773737] [ohm:3121569:0]        ib_iface.c:1059 UCX  ERROR ibv_create_cq(cqe=256) failed: Connection timed out
[1738812346.774034] [ohm:3121573:0]        ib_iface.c:1059 UCX  ERROR ibv_create_cq(cqe=256) failed: Connection timed out
[1738812346.775704] [ohm:3121577:0]        ib_iface.c:1059 UCX  ERROR ibv_create_cq(cqe=256) failed: Connection timed out
[1738812346.790439] [ohm:3121654:0]        ib_iface.c:1059 UCX  ERROR ibv_create_cq(cqe=256) failed: Connection timed out
[1738812346.794888] [ohm:3121630:0]        ib_iface.c:1059 UCX  ERROR ibv_create_cq(cqe=256) failed: Connection timed out
[1738812346.796470] [ohm:3121586:0]        ib_iface.c:1059 UCX  ERROR ibv_create_cq(cqe=256) failed: Connection timed out
[1738812346.802575] [ohm:3121565:0]        ib_iface.c:1059 UCX  ERROR ibv_create_cq(cqe=256) failed: Connection timed out
[1738812346.805844] [ohm:3121558:0]        ib_iface.c:1059 UCX  ERROR ibv_create_cq(cqe=256) failed: Connection timed out
[1738812346.809532] [ohm:3121550:0]        ib_iface.c:1059 UCX  ERROR ibv_create_cq(cqe=256) failed: Connection timed out
[1738812346.817874] [ohm:3121591:0]        ib_iface.c:1059 UCX  ERROR ibv_create_cq(cqe=256) failed: Connection timed out
[1738812346.818544] [ohm:3121672:0]        ib_iface.c:1059 UCX  ERROR ibv_create_cq(cqe=256) failed: Connection timed out
[1738812346.823627] [ohm:3121668:0]        ib_iface.c:1059 UCX  ERROR ibv_create_cq(cqe=256) failed: Connection timed out
[1738812346.826220] [ohm:3121571:0]        ib_iface.c:1059 UCX  ERROR ibv_create_cq(cqe=256) failed: Connection timed out
[1738812346.830273] [ohm:3121621:0]        ib_iface.c:1059 UCX  ERROR ibv_create_cq(cqe=256) failed: Connection timed out
[1738812346.832585] [ohm:3121555:0]        ib_iface.c:1059 UCX  ERROR ibv_create_cq(cqe=256) failed: Connection timed out
[1738812346.834333] [ohm:3121647:0]        ib_iface.c:1059 UCX  ERROR ibv_create_cq(cqe=256) failed: Connection timed out
[1738812346.834979] [ohm:3121658:0]        ib_iface.c:1059 UCX  ERROR ibv_create_cq(cqe=256) failed: Connection timed out
[1738812346.836873] [ohm:3121666:0]        ib_iface.c:1059 UCX  ERROR ibv_create_cq(cqe=256) failed: Connection timed out
[1738812346.837190] [ohm:3121617:0]        ib_iface.c:1059 UCX  ERROR ibv_create_cq(cqe=256) failed: Connection timed out
[1738812346.840398] [ohm:3121700:0]        ib_iface.c:1059 UCX  ERROR ibv_create_cq(cqe=256) failed: Connection timed out
[1738812346.842410] [ohm:3121693:0]        ib_iface.c:1059 UCX  ERROR ibv_create_cq(cqe=256) failed: Connection timed out
[1738812346.846259] [ohm:3121595:0]        ib_iface.c:1059 UCX  ERROR ibv_create_cq(cqe=256) failed: Connection timed out
[1738812346.846388] [ohm:3121567:0]        ib_iface.c:1059 UCX  ERROR ibv_create_cq(cqe=256) failed: Connection timed out
[1738812346.847297] [ohm:3121564:0]        ib_iface.c:1059 UCX  ERROR ibv_create_cq(cqe=256) failed: Connection timed out
[1738812346.848503] [ohm:3121614:0]        ib_iface.c:1059 UCX  ERROR ibv_create_cq(cqe=256) failed: Connection timed out
[1738812346.850179] [ohm:3121663:0]        ib_iface.c:1059 UCX  ERROR ibv_create_cq(cqe=256) failed: Connection timed out
[1738812346.851107] [ohm:3121650:0]        ib_iface.c:1059 UCX  ERROR ibv_create_cq(cqe=256) failed: Connection timed out
[1738812346.851280] [ohm:3121636:0]        ib_iface.c:1059 UCX  ERROR ibv_create_cq(cqe=256) failed: Connection timed out

--------------------------------
SUGGESTED CITATIONS FOR THIS RUN
--------------------------------

Below you find a list of papers that are relevant to this ORCA run
We neither can nor want to force you to cite these papers, but we appreciate if you do
You receive ORCA, which is the product of decades of hard work by many enthusiastic individuals, for free
The only thing we kindly ask in return is that you cite our papers,
We deeply appreciate it, if you show your appreciation for ORCA by not just citing the generic ORCA reference.

Please note that relegating all ORCA citations to the supporting information does *not* help us.
SI sections are not indexed - citations you put there will not count into any citation statistics
But we need these citations in order to attract the funding resources that allow us to do what we are doing

Therefore, if you are a happy ORCA user, please consider citing a few of the papers listed below in the main body of your paper

In addition to the list printed below, the program has created the file orca.bibtex that contains the list in bibtex format
You can import this file easily into all common literature databanks and citation aid programs


List of essential papers. We consider these as the minimum necessary citations

  1. Neese,F.
     Software update: the ORCA program system, version 5.0
     WIRES Comput. Molec. Sci., 2022 12(1)e1606
     doi.org/10.1002/wcms.1606

List of papers to cite with high priority. The work reported in these papers was absolutely
necessary for this run to complete.
Our perspective: the developers of density functionals and basis sets usually get cited in chemistry papers
Good! But without the algorithms to do something with them, the functionals or basis sets would not do anything.
Hence, in our opinion, the algorithm design and method developments papers are equally worthy of getting cited

  1. Neese,F.; Olbrich,G.
     Efficient use of the resolution of the identity approximation in time-dependent density functional calculations with hybrid density functionals
     Chem. Phys. Lett., 2002 362 170-178
     doi.org/10.1016/s0009-2614(02)01053-9
  2. Neese,F.
     An improvement of the resolution of the identity approximation for the formation of the Coulomb matrix
     J. Comp. Chem., 2003 24(14)1740-1747
     doi.org/10.1002/jcc.10318
  3. Neese,F.; Wennmohs,F.; Hansen,A.; Becker,U.
     Efficient, approximate and parallel Hartree-Fock and hybrid DFT calculations. A 'chain-of-spheres' algorithm for the Hartree-Fock exchange
     Chem. Phys., 2009 356(1-3)98-109
     doi.org/10.1016/j.chemphys.2008.10.036
  4. Petrenko,T.; Kossmann,S.; Neese,F.
     Efficient time-dependent density functional theory approximations for hybrid density functionals: Analytical gradients and parallelization
     J. Chem. Phys., 2011 134 054116
     doi.org/10.1063/1.3533441
  5. Helmich-Paris,B.; de Souza,B.; Neese,F.; Izsák,R.
     An improved chain of spheres for exchange algorithm
     J. Chem. Phys., 2021 155 104109
     doi.org/doi: 10.1063/5.0058766.
  6. Neese,F.
     The SHARK Integral Generation and Digestion System
     J. Comp. Chem., 2022  1-16
     doi.org/10.1002/jcc.26942
  7. Lehtola,S.; Steigemann,C.; Oliveira,M.; Marques,M.
     Recent developments in Libxc - A comprehensive library of functionals for density functional theory
     Software X, 2018 7 
     doi.org/10.1016/j.softx.2017.11.002
  8. Grimme,S.; Antony,J.; Ehrlich,S.; Krieg,H.
     A consistent and accurate ab initio parametrization of density functional dispersion correction (DFT-D) for the 94 elements H-Pu
     J. Chem. Phys., 2010 132 154104-XXXX
     doi.org/10.1063/1.3382344
  9. Grimme,S.; Ehrlich,S.; Goerigk,L.
     Effect of the damping function in dispersion corrected density functional theory
     J. Comput. Chem., 2011 32(7)1456-1465
     doi.org/10.1002/jcc.21759

List of suggested additional citations. These are papers that are important in the 'surrounding' of 
of this run, or papers that preceded the highly important papers. If you like your results we are grateful for a citation.

  1. Izsak,R.; Neese,F.
     An overlap fitted chain of spheres exchange method
     J. Chem. Phys., 2011 135 144105
     doi.org/10.1063/1.3646921
  2. Izsak,R.; Hansen,A.; Neese,F.
     The resolution of identity and chain of spheres approximations for the LPNO-CCSD singles Fock term
     Molec. Phys., 2012 110 2413-2417
     doi.org/10.1080/00268976.2012.687466
  3. Neese,F.
     The ORCA program system
     WIRES Comput. Molec. Sci., 2012 2(1)73-78
     doi.org/10.1002/wcms.81
  4. Izsak,R.; Neese,F.; Klopper,W.
     Robust fitting techniques in the chain of spheres approximation to the Fock exchange: The role of the complementary space
     J. Chem. Phys., 2013 139 
     doi.org/10.1063/1.4819264
  5. Neese,F.
     Software update: the ORCA program system, version 4.0
     WIRES Comput. Molec. Sci., 2018 8(1)1-6
     doi.org/10.1002/wcms.1327
  6. Neese,F.; Wennmohs,F.; Becker,U.; Riplinger,C.
     The ORCA quantum chemistry program package
     J. Chem. Phys., 2020 152 Art. No. L224108
     doi.org/10.1063/5.0004608

List of optional additional citations

  1. Neese,F.
     Approximate second-order SCF convergence for spin unrestricted wavefunctions
     Chem. Phys. Lett., 2000 325(1-3)93-98
     doi.org/10.1016/s0009-2614(00)00662-x

Timings for individual modules:

Sum of individual times          ...      355.507 sec (=   5.925 min)
Startup calculation              ...        6.288 sec (=   0.105 min)   1.8 %
SCF iterations                   ...      193.531 sec (=   3.226 min)  54.4 %
Property integrals               ...        4.155 sec (=   0.069 min)   1.2 %
Property calculations            ...        2.823 sec (=   0.047 min)   0.8 %
CIS module                       ...      148.710 sec (=   2.478 min)  41.8 %
                             ****ORCA TERMINATED NORMALLY****
TOTAL RUN TIME: 0 days 0 hours 5 minutes 57 seconds 684 msec
