
                                 *****************
                                 * O   R   C   A *
                                 *****************

                                            #,                                       
                                            ###                                      
                                            ####                                     
                                            #####                                    
                                            ######                                   
                                           ########,                                 
                                     ,,################,,,,,                         
                               ,,#################################,,                 
                          ,,##########################################,,             
                       ,#########################################, ''#####,          
                    ,#############################################,,   '####,        
                  ,##################################################,,,,####,       
                ,###########''''           ''''###############################       
              ,#####''   ,,,,##########,,,,          '''####'''          '####       
            ,##' ,,,,###########################,,,                        '##       
           ' ,,###''''                  '''############,,,                           
         ,,##''                                '''############,,,,        ,,,,,,###''
      ,#''                                            '''#######################'''  
     '                                                          ''''####''''         
             ,#######,   #######,   ,#######,      ##                                
            ,#'     '#,  ##    ##  ,#'     '#,    #''#        ,####,   ,####,        
            ##       ##  ##   ,#'  ##            #'  '#       #'       #'  '#        
            ##       ##  #######   ##           ,######,      #####,   #    #        
            '#,     ,#'  ##    ##  '#,     ,#' ,#      #,     #,   #   #,  ,#        
             '#######'   ##     ##  '#######'  #'      '#     '####' # '####'        



                #########################################################
                #                        -***-                          #
                #          Department of theory and spectroscopy        #
                #                                                       #
                #                      Frank Neese                      #
                #                                                       #
                #     Directorship, Architecture, Infrastructure        #
                #                    SHARK, DRIVERS                     #
                #        Core code/Algorithms in most modules           #
                #                                                       #
                #        Max Planck Institute fuer Kohlenforschung      #
                #                Kaiser Wilhelm Platz 1                 #
                #                 D-45470 Muelheim/Ruhr                 #
                #                      Germany                          #
                #                                                       #
                #                  All rights reserved                  #
                #                        -***-                          #
                #########################################################


                         Program Version 6.0.0  -   RELEASE  -


 With contributions from (in alphabetic order):
   Daniel Aravena         : Magnetic Suceptibility
   Michael Atanasov       : Ab Initio Ligand Field Theory (pilot matlab implementation)
   Alexander A. Auer      : GIAO ZORA, VPT2 properties, NMR spectrum
   Ute Becker             : All parallelization in ORCA, NUMFREQ, NUMCALC
   Giovanni Bistoni       : ED, misc. LED, open-shell LED, HFLD
   Martin Brehm           : Molecular dynamics
   Dmytro Bykov           : pre 5.0 version of the SCF Hessian
   Marcos Casanova-Páez   : Triplet and SCS-CIS(D). UHF-(DLPNO)-IP/EA/STEOM-CCSD. UHF-CVS-IP/STEOM-CCSD
   Vijay G. Chilkuri      : MRCI spin determinant printing, contributions to CSF-ICE
   Pauline Colinet        : FMM embedding
   Dipayan Datta          : RHF DLPNO-CCSD density
   Achintya Kumar Dutta   : EOM-CC, STEOM-CC
   Nicolas Foglia         : Exact transition moments, OPA infrastructure, MCD improvements
   Dmitry Ganyushin       : Spin-Orbit,Spin-Spin,Magnetic field MRCI
   Miquel Garcia          : C-PCM and meta-GGA Hessian, CCSD/C-PCM, Gaussian charge scheme
   Tiago L. C. Gouveia    : GS-ROHF, GS-ROCIS
   Yang Guo               : DLPNO-NEVPT2, F12-NEVPT2, CIM, IAO-localization
   Andreas Hansen         : Spin unrestricted coupled pair/coupled cluster methods
   Ingolf Harden          : AUTO-CI MPn and infrastructure 
   Benjamin Helmich-Paris : MC-RPA, TRAH-(SCF,CASSCF), AVAS, COSX integrals, SCF dyn. polar.
   Lee Huntington         : MR-EOM, pCC
   Robert Izsak           : Overlap fitted RIJCOSX, COSX-SCS-MP3, EOM
   Riya Kayal             : Wick's Theorem for AUTO-CI, AUTO-CI UHF-CCSDT
   Emily Kempfer          : AUTO-CI, RHF CISDT and CCSDT
   Christian Kollmar      : KDIIS, OOCD, Brueckner-CCSD(T), CCSD density, CASPT2, CASPT2-K, improved NEVPT2
   Axel Koslowski         : Symmetry handling
   Simone Kossmann        : Meta GGA functionals, TD-DFT gradient, OOMP2, (MP2 Hessian; deprecated post 5.0)
   Lucas Lang             : DCDCAS
   Marvin Lechner         : AUTO-CI (C++ implementation), FIC-MRCC
   Spencer Leger          : CASSCF response
   Dagmar Lenk            : GEPOL surface, SMD, ORCA-2-JSON
   Dimitrios Liakos       : Extrapolation schemes; Compound Job, initial MDCI parallelization
   Dimitrios Manganas     : Further ROCIS development; embedding schemes. LFT, Crystal Embedding
   Dimitrios Pantazis     : SARC Basis sets
   Anastasios Papadopoulos: AUTO-CI, single reference methods and gradients
   Taras Petrenko         : pre 6.0 DFT Hessian and TD-DFT gradient, (ASA, deprecated), ECA, 1-Electron XAS/XES, NRVS
   Peter Pinski           : DLPNO-MP2, DLPNO-MP2 Gradient
   Christoph Reimann      : Effective Core Potentials
   Marius Retegan         : Local ZFS, SOC
   Christoph Riplinger    : Optimizer, TS searches, QM/MM, DLPNO-CCSD(T), (RO)-DLPNO pert. Triples
   Michael Roemelt        : Original ROCIS implementation
   Masaaki Saitow         : Open-shell DLPNO-CCSD energy and density
   Barbara Sandhoefer     : DKH picture change effects
   Kantharuban Sivalingam : CASSCF convergence/infrastructure, NEVPT2 and variants, FIC-MRCI
   Bernardo de Souza      : ESD, SOC TD-DFT
   Georgi Stoychev        : AutoAux, RI-MP2 NMR, DLPNO-MP2 response, X2C
   Van Anh Tran           : RI-MP2 g-tensors
   Willem Van den Heuvel  : Paramagnetic NMR
   Zikuan Wang            : NOTCH, Electric field optimization 
   Frank Wennmohs         : Technical directorship and infrastructure
   Hang Xu                : AUTO-CI-Response properties 


 We gratefully acknowledge several colleagues who have allowed us to
 interface, adapt or use parts of their codes:
   Stefan Grimme, W. Hujo, H. Kruse, P. Pracht,  : VdW corrections, initial TS optimization,
                  C. Bannwarth, S. Ehlert,         DFT functionals, gCP, sTDA/sTD-DF
                  L. Wittmann, M. Mueller
   Ed Valeev, F. Pavosevic, A. Kumar             : LibInt (2-el integral package), F12 methods
   Garnet Chan, S. Sharma, J. Yang, R. Olivares  : DMRG
   Ulf Ekstrom                                   : XCFun DFT Library
   Mihaly Kallay                                 : mrcc  (arbitrary order and MRCC methods)
   Frank Weinhold                                : gennbo (NPA and NBO analysis)
   Simon Mueller                                 : openCOSMO-RS
   Christopher J. Cramer and Donald G. Truhlar   : smd solvation model
   Lars Goerigk                                  : TD-DFT with DH, B97 family of functionals
   V. Asgeirsson, H. Jonsson                     : NEB implementation
   FAccTs GmbH                                   : IRC, NEB, NEB-TS, DLPNO-Multilevel, CI-OPT
                                                   MM, QMMM, 2- and 3-layer-ONIOM, Crystal-QMMM,
                                                   LR-CPCM, SF, NACMEs, symmetry and pop. for TD-DFT,
                                                   nearIR, NL-DFT gradient (VV10), updates on ESD,
                                                   ML-optimized integration grids, MBIS, APM,
                                                   GOAT, DOCKER, SOLVATOR, interface openCOSMO-RS
   S Lehtola, MJT Oliveira, MAL Marques          : LibXC Library
   Liviu Ungur et al                             : ANISO software


 Your calculation uses the libint2 library for the computation of 2-el integrals
 For citations please refer to: http://libint.valeyev.net

 Your ORCA version has been built with support for libXC version: 6.2.2
 For citations please refer to: https://libxc.gitlab.io

 This ORCA versions uses:
   CBLAS   interface :  Fast vector & matrix operations
   LAPACKE interface :  Fast linear algebra routines
   SCALAPACK package :  Parallel linear algebra routines
   Shared memory     :  Shared parallel matrices
   BLAS/LAPACK       :  OpenBLAS 0.3.27  USE64BITINT DYNAMIC_ARCH NO_AFFINITY Zen SINGLE_THREADED
        Core in use  :  Zen
   Copyright (c) 2011-2014, The OpenBLAS Project


Your calculation utilizes the atom-pairwise dispersion correction
with the Becke-Johnson damping scheme (D3BJ)


Warning: RI is on but no J-basis has been assigned. Assigning Def2/J (nothing to worry about!)
================================================================================

----- Orbital basis set information -----
Your calculation utilizes the basis: def2-TZVPPD
   F. Weigend and R. Ahlrichs, Phys. Chem. Chem. Phys. 7, 3297 (2005).
   D. Rappoport and F. Furche, J. Chem. Phys. 133, 134105 (2010)
   D. Rappoport, J. Chem. Phys. 155, 124102 (2021).

----- AuxJ basis set information -----
Your calculation utilizes the auxiliary basis: def2/J
   F. Weigend, Phys. Chem. Chem. Phys. 8, 1057 (2006).

================================================================================
                                        WARNINGS
                       Please study these warnings very carefully!
================================================================================

Using LibXC functional ID 531 : wB97M-V exchange-correlation functional
[ 1]  N. Mardirossian and M. Head-Gordon.,  J. Chem. Phys. 144, 214110 (2016)
Using LibXC functional ID 531 : wB97M-V exchange-correlation functional
[ 1]  N. Mardirossian and M. Head-Gordon.,  J. Chem. Phys. 144, 214110 (2016)

WARNING: B97M-V or wB97M-V functional requested.
  ===> : libXC variant has now been activated.
         Any manually given DFX/HFX/RangeSep scaling parameters are IGNORED!

Your calculation utilizes LibXC
 by S Lehtola, C Steigemann, MJT Oliveira & MAL Marques
Please cite in your paper:
 S Lehtola, C Steigemann, MJT Oliveira & MAL Marques, SoftwareX, 7, (2018), 1.
   


WARNING: your system is open-shell and RHF/RKS was chosen
  ===> : WILL SWITCH to UHF/UKS

INFO   : Checking CIS options ...

WARNING: CIS/ROCIS methods need fully converged wavefunctions
  ===> : Setting SCFConvForced true
         You can overwrite this default with %scf ConvForced false 


================================================================================
                                       INPUT FILE
================================================================================
NAME = orca.inp
|  1> ! Engrad def2-TZVPPD wB97M-D3BJ 
|  2> %pal nprocs 8 end%pal nprocs 64 end 
|  3>  %tddft nroots 2 Iroot 2 
|  4> sf true 
|  5> end 
|  6> *xyz 0 3 
|  7> O   4.0797237711536 0.02098116105016 0.71696875643131
|  8> O   -1.82691111067472 1.1367261573637 -2.50697135453247
|  9> O   1.25776279290574 -2.77148972885504 -1.46481385757343
| 10> O   -3.7145865638974 -0.92463132394373 0.97496382240202
| 11> N   0.33761061702212 -1.1977040335347 -0.11127761299755
| 12> N   -1.91693961157711 0.41107647644394 1.39257611948947
| 13> N   2.63864858296519 -1.43654057922463 -0.25240247799522
| 14> N   -2.43663370062642 -0.22436189319187 -0.78101721399602
| 15> C   1.78131870974867 0.28117331114562 1.18860276330912
| 16> C   -0.84146795167021 1.51627286054077 -0.38795020639954
| 17> C   0.43071406580251 -0.31357717957701 1.02327739408613
| 18> C   -0.56596011161548 0.81810200240726 0.95073058553585
| 19> C   2.04465706802632 1.36426039536459 2.1543126225278
| 20> C   -0.67128026571495 2.97417436540972 -0.49885950552475
| 21> C   2.92903266023483 -0.34866666023129 0.55537736787467
| 22> C   -1.69618041628036 0.82566722221661 -1.34159521036167
| 23> C   1.38612160577161 -1.87521093206287 -0.6630469073632
| 24> C   -2.76220468355267 -0.29482884016057 0.57808132534892
| 25> H   0.22111596608425 -0.88560441177167 1.94928265498756
| 26> H   -0.2584121948115 1.58555322991269 1.65111922786011
| 27> H   1.80427064724355 2.35095046385536 1.73684811921443
| 28> H   1.44192756846477 1.25457944537078 3.05931714653858
| 29> H   3.09988577615917 1.37437451816808 2.40876274262673
| 30> H   -1.43377067641735 3.49496895111376 0.09785264521856
| 31> H   0.29806924061668 3.29816969911682 -0.11572256187997
| 32> H   -0.79436982576827 3.28865107138517 -1.53153076714386
| 33> H   -0.56045478939594 -1.58209433389266 -0.34712174228184
| 34> H   -2.12639643392716 0.3093833101726 2.37090929372325
| 35> H   3.41970965356361 -1.88003827179983 -0.70874211127948
| 36> H   -3.11240038983309 -0.6553164527918 -1.39333105784548
| 37> *
| 38> 
| 39>                          ****END OF INPUT****
================================================================================

                     *******************************
                     * Energy+Gradient Calculation *
                     *******************************

---------------------------------
CARTESIAN COORDINATES (ANGSTROEM)
---------------------------------
  O      4.079724    0.020981    0.716969
  O     -1.826911    1.136726   -2.506971
  O      1.257763   -2.771490   -1.464814
  O     -3.714587   -0.924631    0.974964
  N      0.337611   -1.197704   -0.111278
  N     -1.916940    0.411076    1.392576
  N      2.638649   -1.436541   -0.252402
  N     -2.436634   -0.224362   -0.781017
  C      1.781319    0.281173    1.188603
  C     -0.841468    1.516273   -0.387950
  C      0.430714   -0.313577    1.023277
  C     -0.565960    0.818102    0.950731
  C      2.044657    1.364260    2.154313
  C     -0.671280    2.974174   -0.498860
  C      2.929033   -0.348667    0.555377
  C     -1.696180    0.825667   -1.341595
  C      1.386122   -1.875211   -0.663047
  C     -2.762205   -0.294829    0.578081
  H      0.221116   -0.885604    1.949283
  H     -0.258412    1.585553    1.651119
  H      1.804271    2.350950    1.736848
  H      1.441928    1.254579    3.059317
  H      3.099886    1.374375    2.408763
  H     -1.433771    3.494969    0.097853
  H      0.298069    3.298170   -0.115723
  H     -0.794370    3.288651   -1.531531
  H     -0.560455   -1.582094   -0.347122
  H     -2.126396    0.309383    2.370909
  H      3.419710   -1.880038   -0.708742
  H     -3.112400   -0.655316   -1.393331

----------------------------
CARTESIAN COORDINATES (A.U.)
----------------------------
  NO LB      ZA    FRAG     MASS         X           Y           Z
   0 O     8.0000    0    15.999    7.709561    0.039649    1.354875
   1 O     8.0000    0    15.999   -3.452362    2.148101   -4.737489
   2 O     8.0000    0    15.999    2.376827   -5.237357   -2.768097
   3 O     8.0000    0    15.999   -7.019551   -1.747300    1.842415
   4 N     7.0000    0    14.007    0.637992   -2.263333   -0.210284
   5 N     7.0000    0    14.007   -3.622491    0.776822    2.631587
   6 N     7.0000    0    14.007    4.986323   -2.714668   -0.476972
   7 N     7.0000    0    14.007   -4.604570   -0.423983   -1.475909
   8 C     6.0000    0    12.011    3.366205    0.531341    2.246134
   9 C     6.0000    0    12.011   -1.590144    2.865340   -0.733120
  10 C     6.0000    0    12.011    0.813932   -0.592575    1.933714
  11 C     6.0000    0    12.011   -1.069510    1.545989    1.796620
  12 C     6.0000    0    12.011    3.863842    2.578079    4.071061
  13 C     6.0000    0    12.011   -1.268536    5.620375   -0.942708
  14 C     6.0000    0    12.011    5.535070   -0.658884    1.049511
  15 C     6.0000    0    12.011   -3.205316    1.560285   -2.535248
  16 C     6.0000    0    12.011    2.619390   -3.543635   -1.252977
  17 C     6.0000    0    12.011   -5.219810   -0.557146    1.092415
  18 H     1.0000    0     1.008    0.417849   -1.673550    3.683610
  19 H     1.0000    0     1.008   -0.488328    2.996261    3.120163
  20 H     1.0000    0     1.008    3.409577    4.442653    3.282167
  21 H     1.0000    0     1.008    2.724848    2.370812    5.781272
  22 H     1.0000    0     1.008    5.857935    2.597191    4.551902
  23 H     1.0000    0     1.008   -2.709434    6.604534    0.184915
  24 H     1.0000    0     1.008    0.563269    6.232637   -0.218684
  25 H     1.0000    0     1.008   -1.501141    6.214650   -2.894174
  26 H     1.0000    0     1.008   -1.059106   -2.989725   -0.655965
  27 H     1.0000    0     1.008   -4.018307    0.584650    4.480369
  28 H     1.0000    0     1.008    6.462315   -3.552757   -1.339328
  29 H     1.0000    0     1.008   -5.881584   -1.238369   -2.633014

--------------------------------
INTERNAL COORDINATES (ANGSTROEM)
--------------------------------
 O      0   0   0     0.000000000000     0.00000000     0.00000000
 O      1   0   0     6.821071203492     0.00000000     0.00000000
 O      1   2   0     4.530069845874    48.22303287     0.00000000
 O      2   1   3     4.465018013269    85.52618500    72.43798637
 N      3   1   2     2.270581821243    62.48906209   317.83991324
 N      4   2   1     2.278168107028    62.52723253    36.61090513
 N      1   2   3     2.267321748566    49.66157011   355.73257649
 N      2   1   3     2.281061159482    77.06985143    63.96787523
 C      1   2   3     2.360678804435    39.94180888   261.77956094
 C      6   4   2     2.355498320073   119.78887660   359.23227224
 C      5   3   1     1.441375596492   150.25037965   334.25466729
 C      6   4   2     1.478527261831   145.85596225   317.07243898
 C      9   1   2     1.474794987493    92.17309492   234.44413691
 C     10   6   4     1.471985570236   125.06130998   121.64718255
 C      1   2   3     1.219361029958    33.87851380   313.36368524
 C      2   1   3     1.213239355195    53.89661401    88.01477851
 C      3   1   2     1.209389064308    32.62205907   313.57296526
 C      4   2   1     1.208800285844    33.93581715    24.47251493
 H     11   5   3     1.108436854762   109.19708840   278.41028707
 H     12   6   4     1.083564191927   105.13892482   178.33724262
 H     13   9   1     1.098007073785   111.83238213   103.85551571
 H     13   9   1     1.092861358505   111.71981826   223.14686714
 H     13   9   1     1.085520513655   109.50620822   345.33808004
 H     14  10   6     1.099401663523   110.37070838   336.67513968
 H     14  10   6     1.091515166764   111.72921347    95.03575945
 H     14  10   6     1.086488183539   110.19339317   218.13601134
 H      5   3   1     1.004937724703    87.54312232   181.72498680
 H      6   4   2     1.005658719597    87.40329201   169.85941958
 H      7   1   2     1.007468342048    89.07696668   132.90287078
 H      8   2   1     1.008618210252    88.54976174   215.66826259

---------------------------
INTERNAL COORDINATES (A.U.)
---------------------------
 O      0   0   0     0.000000000000     0.00000000     0.00000000
 O      1   0   0    12.889956514577     0.00000000     0.00000000
 O      1   2   0     8.560591376236    48.22303287     0.00000000
 O      2   1   3     8.437661228103    85.52618500    72.43798637
 N      3   1   2     4.290777806809    62.48906209   317.83991324
 N      4   2   1     4.305113809318    62.52723253    36.61090513
 N      1   2   3     4.284617162273    49.66157011   355.73257649
 N      2   1   3     4.310580886146    77.06985143    63.96787523
 C      1   2   3     4.461036430534    39.94180888   261.77956094
 C      6   4   2     4.451246733850   119.78887660   359.23227224
 C      5   3   1     2.723805133487   150.25037965   334.25466729
 C      6   4   2     2.794011606397   145.85596225   317.07243898
 C      9   1   2     2.786958630042    92.17309492   234.44413691
 C     10   6   4     2.781649600830   125.06130998   121.64718255
 C      1   2   3     2.304258404998    33.87851380   313.36368524
 C      2   1   3     2.292690116214    53.89661401    88.01477851
 C      3   1   2     2.285414120902    32.62205907   313.57296526
 C      4   2   1     2.284301490850    33.93581715    24.47251493
 H     11   5   3     2.094642092245   109.19708840   278.41028707
 H     12   6   4     2.047639571266   105.13892482   178.33724262
 H     13   9   1     2.074932662562   111.83238213   103.85551571
 H     13   9   1     2.065208669919   111.71981826   223.14686714
 H     13   9   1     2.051336483562   109.50620822   345.33808004
 H     14  10   6     2.077568055235   110.37070838   336.67513968
 H     14  10   6     2.062664736204   111.72921347    95.03575945
 H     14  10   6     2.053165114630   110.19339317   218.13601134
 H      5   3   1     1.899057081335    87.54312232   181.72498680
 H      6   4   2     1.900419564228    87.40329201   169.85941958
 H      7   1   2     1.903839255067    89.07696668   132.90287078
 H      8   2   1     1.906012191061    88.54976174   215.66826259

---------------------
BASIS SET INFORMATION
---------------------
There are 4 groups of distinct atoms

 Group   1 Type O   : 12s7p3d1f contracted to 6s4p3d1f pattern {621111/4111/111/1}
 Group   2 Type N   : 12s6p3d1f contracted to 6s3p3d1f pattern {621111/411/111/1}
 Group   3 Type C   : 12s6p3d1f contracted to 6s3p3d1f pattern {621111/411/111/1}
 Group   4 Type H   : 5s3p1d contracted to 3s3p1d pattern {311/111/1}

Atom   0O    basis set group =>   1
Atom   1O    basis set group =>   1
Atom   2O    basis set group =>   1
Atom   3O    basis set group =>   1
Atom   4N    basis set group =>   2
Atom   5N    basis set group =>   2
Atom   6N    basis set group =>   2
Atom   7N    basis set group =>   2
Atom   8C    basis set group =>   3
Atom   9C    basis set group =>   3
Atom  10C    basis set group =>   3
Atom  11C    basis set group =>   3
Atom  12C    basis set group =>   3
Atom  13C    basis set group =>   3
Atom  14C    basis set group =>   3
Atom  15C    basis set group =>   3
Atom  16C    basis set group =>   3
Atom  17C    basis set group =>   3
Atom  18H    basis set group =>   4
Atom  19H    basis set group =>   4
Atom  20H    basis set group =>   4
Atom  21H    basis set group =>   4
Atom  22H    basis set group =>   4
Atom  23H    basis set group =>   4
Atom  24H    basis set group =>   4
Atom  25H    basis set group =>   4
Atom  26H    basis set group =>   4
Atom  27H    basis set group =>   4
Atom  28H    basis set group =>   4
Atom  29H    basis set group =>   4
---------------------------------
AUXILIARY/J BASIS SET INFORMATION
---------------------------------
There are 4 groups of distinct atoms

 Group   1 Type O   : 12s5p4d2f1g contracted to 6s4p3d1f1g pattern {711111/2111/211/2/1}
 Group   2 Type N   : 12s5p4d2f1g contracted to 6s4p3d1f1g pattern {711111/2111/211/2/1}
 Group   3 Type C   : 12s5p4d2f1g contracted to 6s4p3d1f1g pattern {711111/2111/211/2/1}
 Group   4 Type H   : 5s2p1d contracted to 3s1p1d pattern {311/2/1}

Atom   0O    basis set group =>   1
Atom   1O    basis set group =>   1
Atom   2O    basis set group =>   1
Atom   3O    basis set group =>   1
Atom   4N    basis set group =>   2
Atom   5N    basis set group =>   2
Atom   6N    basis set group =>   2
Atom   7N    basis set group =>   2
Atom   8C    basis set group =>   3
Atom   9C    basis set group =>   3
Atom  10C    basis set group =>   3
Atom  11C    basis set group =>   3
Atom  12C    basis set group =>   3
Atom  13C    basis set group =>   3
Atom  14C    basis set group =>   3
Atom  15C    basis set group =>   3
Atom  16C    basis set group =>   3
Atom  17C    basis set group =>   3
Atom  18H    basis set group =>   4
Atom  19H    basis set group =>   4
Atom  20H    basis set group =>   4
Atom  21H    basis set group =>   4
Atom  22H    basis set group =>   4
Atom  23H    basis set group =>   4
Atom  24H    basis set group =>   4
Atom  25H    basis set group =>   4
Atom  26H    basis set group =>   4
Atom  27H    basis set group =>   4
Atom  28H    basis set group =>   4
Atom  29H    basis set group =>   4
[1738801100.122961] [ohm:3021645:0]        ib_iface.c:1059 UCX  ERROR ibv_create_cq(cqe=256) failed: Connection timed out
[1738801100.126728] [ohm:3021643:0]        ib_iface.c:1059 UCX  ERROR ibv_create_cq(cqe=256) failed: Connection timed out
[1738801100.140701] [ohm:3021627:0]        ib_iface.c:1059 UCX  ERROR ibv_create_cq(cqe=256) failed: Connection timed out
[1738801100.145682] [ohm:3021652:0]        ib_iface.c:1059 UCX  ERROR ibv_create_cq(cqe=256) failed: Connection timed out
[1738801100.149108] [ohm:3021624:0]        ib_iface.c:1059 UCX  ERROR ibv_create_cq(cqe=256) failed: Connection timed out
[1738801100.156714] [ohm:3021628:0]        ib_iface.c:1059 UCX  ERROR ibv_create_cq(cqe=256) failed: Connection timed out
[1738801100.171743] [ohm:3021633:0]        ib_iface.c:1059 UCX  ERROR ibv_create_cq(cqe=256) failed: Connection timed out
[1738801100.193413] [ohm:3021626:0]        ib_iface.c:1059 UCX  ERROR ibv_create_cq(cqe=256) failed: Connection timed out
[1738801100.195476] [ohm:3021651:0]        ib_iface.c:1059 UCX  ERROR ibv_create_cq(cqe=256) failed: Connection timed out
[1738801100.196304] [ohm:3021634:0]        ib_iface.c:1059 UCX  ERROR ibv_create_cq(cqe=256) failed: Connection timed out
[1738801100.199075] [ohm:3021637:0]        ib_iface.c:1059 UCX  ERROR ibv_create_cq(cqe=256) failed: Connection timed out
[1738801100.199387] [ohm:3021632:0]        ib_iface.c:1059 UCX  ERROR ibv_create_cq(cqe=256) failed: Connection timed out
[1738801100.200279] [ohm:3021629:0]        ib_iface.c:1059 UCX  ERROR ibv_create_cq(cqe=256) failed: Connection timed out
[1738801100.201152] [ohm:3021641:0]        ib_iface.c:1059 UCX  ERROR ibv_create_cq(cqe=256) failed: Connection timed out
[1738801100.213686] [ohm:3021650:0]        ib_iface.c:1059 UCX  ERROR ibv_create_cq(cqe=256) failed: Connection timed out
[1738801100.215239] [ohm:3021625:0]        ib_iface.c:1059 UCX  ERROR ibv_create_cq(cqe=256) failed: Connection timed out
[1738801100.222950] [ohm:3021636:0]        ib_iface.c:1059 UCX  ERROR ibv_create_cq(cqe=256) failed: Connection timed out
[1738801100.229120] [ohm:3021707:0]        ib_iface.c:1059 UCX  ERROR ibv_create_cq(cqe=256) failed: Connection timed out
[1738801100.267563] [ohm:3021704:0]        ib_iface.c:1059 UCX  ERROR ibv_create_cq(cqe=256) failed: Connection timed out
[1738801100.282379] [ohm:3021640:0]        ib_iface.c:1059 UCX  ERROR ibv_create_cq(cqe=256) failed: Connection timed out
[1738801100.289841] [ohm:3021647:0]        ib_iface.c:1059 UCX  ERROR ibv_create_cq(cqe=256) failed: Connection timed out
[1738801100.290374] [ohm:3021630:0]        ib_iface.c:1059 UCX  ERROR ibv_create_cq(cqe=256) failed: Connection timed out
[1738801100.302172] [ohm:3021712:0]        ib_iface.c:1059 UCX  ERROR ibv_create_cq(cqe=256) failed: Connection timed out
[1738801100.310167] [ohm:3021660:0]        ib_iface.c:1059 UCX  ERROR ibv_create_cq(cqe=256) failed: Connection timed out
[1738801100.339177] [ohm:3021677:0]        ib_iface.c:1059 UCX  ERROR ibv_create_cq(cqe=256) failed: Connection timed out
[1738801100.341294] [ohm:3021631:0]        ib_iface.c:1059 UCX  ERROR ibv_create_cq(cqe=256) failed: Connection timed out
[1738801100.344776] [ohm:3021668:0]        ib_iface.c:1059 UCX  ERROR ibv_create_cq(cqe=256) failed: Connection timed out
[1738801100.345719] [ohm:3021675:0]        ib_iface.c:1059 UCX  ERROR ibv_create_cq(cqe=256) failed: Connection timed out
[1738801100.347787] [ohm:3021742:0]        ib_iface.c:1059 UCX  ERROR ibv_create_cq(cqe=256) failed: Connection timed out
[1738801100.352189] [ohm:3021722:0]        ib_iface.c:1059 UCX  ERROR ibv_create_cq(cqe=256) failed: Connection timed out
[1738801100.352396] [ohm:3021728:0]        ib_iface.c:1059 UCX  ERROR ibv_create_cq(cqe=256) failed: Connection timed out
[1738801100.356423] [ohm:3021759:0]        ib_iface.c:1059 UCX  ERROR ibv_create_cq(cqe=256) failed: Connection timed out
[1738801100.360085] [ohm:3021644:0]        ib_iface.c:1059 UCX  ERROR ibv_create_cq(cqe=256) failed: Connection timed out
[1738801100.373547] [ohm:3021717:0]        ib_iface.c:1059 UCX  ERROR ibv_create_cq(cqe=256) failed: Connection timed out
[1738801100.376257] [ohm:3021661:0]        ib_iface.c:1059 UCX  ERROR ibv_create_cq(cqe=256) failed: Connection timed out
[1738801100.379648] [ohm:3021751:0]        ib_iface.c:1059 UCX  ERROR ibv_create_cq(cqe=256) failed: Connection timed out
[1738801100.384833] [ohm:3021735:0]        ib_iface.c:1059 UCX  ERROR ibv_create_cq(cqe=256) failed: Connection timed out
[1738801100.385872] [ohm:3021642:0]        ib_iface.c:1059 UCX  ERROR ibv_create_cq(cqe=256) failed: Connection timed out
[1738801100.386105] [ohm:3021693:0]        ib_iface.c:1059 UCX  ERROR ibv_create_cq(cqe=256) failed: Connection timed out
[1738801100.390135] [ohm:3021768:0]        ib_iface.c:1059 UCX  ERROR ibv_create_cq(cqe=256) failed: Connection timed out
[1738801100.400176] [ohm:3021709:0]        ib_iface.c:1059 UCX  ERROR ibv_create_cq(cqe=256) failed: Connection timed out
[1738801100.401948] [ohm:3021748:0]        ib_iface.c:1059 UCX  ERROR ibv_create_cq(cqe=256) failed: Connection timed out
[1738801100.409457] [ohm:3021752:0]        ib_iface.c:1059 UCX  ERROR ibv_create_cq(cqe=256) failed: Connection timed out
[1738801100.410088] [ohm:3021762:0]        ib_iface.c:1059 UCX  ERROR ibv_create_cq(cqe=256) failed: Connection timed out
[1738801100.414661] [ohm:3021714:0]        ib_iface.c:1059 UCX  ERROR ibv_create_cq(cqe=256) failed: Connection timed out
[1738801100.416615] [ohm:3021764:0]        ib_iface.c:1059 UCX  ERROR ibv_create_cq(cqe=256) failed: Connection timed out
[1738801100.418041] [ohm:3021687:0]        ib_iface.c:1059 UCX  ERROR ibv_create_cq(cqe=256) failed: Connection timed out
[1738801100.420728] [ohm:3021653:0]        ib_iface.c:1059 UCX  ERROR ibv_create_cq(cqe=256) failed: Connection timed out
[1738801100.424907] [ohm:3021699:0]        ib_iface.c:1059 UCX  ERROR ibv_create_cq(cqe=256) failed: Connection timed out
[1738801100.428261] [ohm:3021756:0]        ib_iface.c:1059 UCX  ERROR ibv_create_cq(cqe=256) failed: Connection timed out
[1738801100.437952] [ohm:3021635:0]        ib_iface.c:1059 UCX  ERROR ibv_create_cq(cqe=256) failed: Connection timed out
[1738801100.443685] [ohm:3021649:0]        ib_iface.c:1059 UCX  ERROR ibv_create_cq(cqe=256) failed: Connection timed out
[1738801100.448672] [ohm:3021719:0]        ib_iface.c:1059 UCX  ERROR ibv_create_cq(cqe=256) failed: Connection timed out
[1738801100.457350] [ohm:3021648:0]        ib_iface.c:1059 UCX  ERROR ibv_create_cq(cqe=256) failed: Connection timed out
[1738801100.461168] [ohm:3021682:0]        ib_iface.c:1059 UCX  ERROR ibv_create_cq(cqe=256) failed: Connection timed out
[1738801100.462165] [ohm:3021684:0]        ib_iface.c:1059 UCX  ERROR ibv_create_cq(cqe=256) failed: Connection timed out
[1738801100.462163] [ohm:3021738:0]        ib_iface.c:1059 UCX  ERROR ibv_create_cq(cqe=256) failed: Connection timed out
[1738801100.463427] [ohm:3021747:0]        ib_iface.c:1059 UCX  ERROR ibv_create_cq(cqe=256) failed: Connection timed out
[1738801100.463978] [ohm:3021695:0]        ib_iface.c:1059 UCX  ERROR ibv_create_cq(cqe=256) failed: Connection timed out
[1738801100.465344] [ohm:3021726:0]        ib_iface.c:1059 UCX  ERROR ibv_create_cq(cqe=256) failed: Connection timed out
[1738801100.465802] [ohm:3021734:0]        ib_iface.c:1059 UCX  ERROR ibv_create_cq(cqe=256) failed: Connection timed out
[1738801100.468007] [ohm:3021638:0]        ib_iface.c:1059 UCX  ERROR ibv_create_cq(cqe=256) failed: Connection timed out
[1738801100.468788] [ohm:3021639:0]        ib_iface.c:1059 UCX  ERROR ibv_create_cq(cqe=256) failed: Connection timed out
[1738801100.469240] [ohm:3021646:0]        ib_iface.c:1059 UCX  ERROR ibv_create_cq(cqe=256) failed: Connection timed out


           ************************************************************
           *        Program running with 64 parallel MPI-processes    *
           *              working on a common directory               *
           ************************************************************
------------------------------------------------------------------------------
                             ORCA STARTUP CALCULATIONS
                           -- RI-GTO INTEGRALS CHOSEN --
------------------------------------------------------------------------------
------------------------------------------------------------------------------
                   ___                                                        
                  /   \      - P O W E R E D   B Y -                         
                 /     \                                                     
                 |  |  |   _    _      __       _____    __    __             
                 |  |  |  | |  | |    /  \     |  _  \  |  |  /  |          
                  \  \/   | |  | |   /    \    | | | |  |  | /  /          
                 / \  \   | |__| |  /  /\  \   | |_| |  |  |/  /          
                |  |  |   |  __  | /  /__\  \  |    /   |      \           
                |  |  |   | |  | | |   __   |  |    \   |  |\   \          
                \     /   | |  | | |  |  |  |  | |\  \  |  | \   \       
                 \___/    |_|  |_| |__|  |__|  |_| \__\ |__|  \__/        
                                                                              
                      - O R C A' S   B I G   F R I E N D -                    
                                      &                                       
                       - I N T E G R A L  F E E D E R -                       
                                                                              
 v1 FN, 2020, v2 2021, v3 2022-2024                                           
------------------------------------------------------------------------------


----------------------
SHARK INTEGRAL PACKAGE
----------------------

Number of atoms                             ...     30
Number of basis functions                   ...    882
Number of shells                            ...    322
Maximum angular momentum                    ...      3
Integral batch strategy                     ... SHARK/LIBINT Hybrid
RI-J (if used) integral strategy            ... SPLIT-RIJ (Revised 2003 algorithm where possible)
Printlevel                                  ...      1
Contraction scheme used                     ... SEGMENTED contraction
Prescreening option                         ... SCHWARTZ
   Thresh                                   ... 2.500e-11
   Tcut                                     ... 2.500e-12
   Tpresel                                  ... 2.500e-12 
Coulomb Range Separation                    ... NOT USED
Exchange Range Separation                   ... Long Range
   Mu parameter                             ... 3.000e-01
   Scaling (regular/separated)              ... 1.500e-01 8.500e-01
Multipole approximations                    ... NOT USED
Finite Nucleus Model                        ... NOT USED
CABS basis                                  ... NOT available
Auxiliary Coulomb fitting basis             ... AVAILABLE
   # of basis functions in Aux-J            ...   1014
   # of shells in Aux-J                     ...    330
   Maximum angular momentum in Aux-J        ...      4
Auxiliary J/K fitting basis                 ... NOT available
Auxiliary Correlation fitting basis         ... NOT available
Auxiliary 'external' fitting basis          ... NOT available

Checking pre-screening integrals            ... done (  0.0 sec) Dimension = 322
Check shell pair data                       ... done (  0.0 sec)
Shell pair information
Shell pair cut-off parameter TPreSel        ...   2.5e-12
Total number of shell pairs                 ...     52003
Shell pairs after pre-screening             ...     44009
Total number of primitive shell pairs       ...    129718
Primitive shell pairs kept                  ...     82000
          la=0 lb=0:   8544 shell pairs
          la=1 lb=0:  11679 shell pairs
          la=1 lb=1:   4036 shell pairs
          la=2 lb=0:   7935 shell pairs
          la=2 lb=1:   5482 shell pairs
          la=2 lb=2:   1878 shell pairs
          la=3 lb=0:   1975 shell pairs
          la=3 lb=1:   1404 shell pairs
          la=3 lb=2:    952 shell pairs
          la=3 lb=3:    124 shell pairs

Calculating one electron integrals          ... done (  0.2 sec)
Calculating RI/J V-Matrix + Cholesky decomp.... done (  0.1 sec)
Calculating Nuclear repulsion               ... done (  0.0 sec) ENN=   1397.521219431865 Eh

Diagonalization of the overlap matrix:
Smallest eigenvalue                        ... 4.771e-07
Time for diagonalization                   ...    0.127 sec
Threshold for overlap eigenvalues          ... 1.000e-07
Number of eigenvalues below threshold      ... 0

IMPORTANT:
Smallest eigenvalue of S below the DiffSThresh (1.000e-06) while
Thresh>1e-12 and/or TCut>1e-13! In order to avoid SCF convergence issues,
Thresh will be set to at least 1e-12 and TCut to at least 1e-13.
This can be turned off by adding %SCF DiffSThresh -1 END to the input.

Time for construction of square roots      ...    0.140 sec
Total time needed                          ...    0.284 sec

-------------------
DFT GRID GENERATION
-------------------

General Integration Accuracy     IntAcc      ... 4.388
Radial Grid Type                 RadialGrid  ... OptM3 with GC (2021)
Angular Grid (max. ang.)         AngularGrid ... 4 (Lebedev-302)
Angular grid pruning method      GridPruning ... 4 (adaptive)
Weight generation scheme         WeightScheme... mBecke (2022)
Basis function cutoff            BFCut       ... 1.0000e-11
Integration weight cutoff        WCut        ... 1.0000e-14
Partially contracted basis set               ... off
Rotationally invariant grid construction     ... off
Angular grids for H and He will be reduced by one unit
Diffuse basis detected: some atoms will have their outermost
                        angular grid increased by 1.

Total number of grid points                  ...   152199
Total number of batches                      ...     2395
Average number of points per batch           ...       63
Average number of grid points per atom       ...     5073

--------------------
COSX GRID GENERATION
--------------------

GRIDX 1
-------
General Integration Accuracy     IntAcc      ... 3.816
Radial Grid Type                 RadialGrid  ... OptM3 with GC (2021)
Angular Grid (max. ang.)         AngularGrid ... 1 (Lebedev-50)
Angular grid pruning method      GridPruning ... 4 (adaptive)
Weight generation scheme         WeightScheme... mBecke (2022)
Basis function cutoff            BFCut       ... 1.0000e-11
Integration weight cutoff        WCut        ... 1.0000e-14
Partially contracted basis set               ... on
Rotationally invariant grid construction     ... off
Angular grids for H and He will be reduced by one unit
Diffuse basis detected: some atoms will have their outermost
                        angular grid increased by 1.

Total number of grid points                  ...    19074
Total number of batches                      ...      166
Average number of points per batch           ...      114
Average number of grid points per atom       ...      636
UseSFitting                                  ... on

GRIDX 2
-------
General Integration Accuracy     IntAcc      ... 4.020
Radial Grid Type                 RadialGrid  ... OptM3 with GC (2021)
Angular Grid (max. ang.)         AngularGrid ... 2 (Lebedev-110)
Angular grid pruning method      GridPruning ... 4 (adaptive)
Weight generation scheme         WeightScheme... mBecke (2022)
Basis function cutoff            BFCut       ... 1.0000e-11
Integration weight cutoff        WCut        ... 1.0000e-14
Partially contracted basis set               ... on
Rotationally invariant grid construction     ... off
Angular grids for H and He will be reduced by one unit
Diffuse basis detected: some atoms will have their outermost
                        angular grid increased by 1.

Total number of grid points                  ...    46157
Total number of batches                      ...      376
Average number of points per batch           ...      122
Average number of grid points per atom       ...     1539
UseSFitting                                  ... on

GRIDX 3
-------
General Integration Accuracy     IntAcc      ... 4.338
Radial Grid Type                 RadialGrid  ... OptM3 with GC (2021)
Angular Grid (max. ang.)         AngularGrid ... 3 (Lebedev-194)
Angular grid pruning method      GridPruning ... 4 (adaptive)
Weight generation scheme         WeightScheme... mBecke (2022)
Basis function cutoff            BFCut       ... 1.0000e-11
Integration weight cutoff        WCut        ... 1.0000e-14
Partially contracted basis set               ... on
Rotationally invariant grid construction     ... off
Angular grids for H and He will be reduced by one unit
Diffuse basis detected: some atoms will have their outermost
                        angular grid increased by 1.

Total number of grid points                  ...   101503
Total number of batches                      ...      808
Average number of points per batch           ...      125
Average number of grid points per atom       ...     3383
UseSFitting                                  ... on
Initializing property integral containers    ... done (  0.0 sec)

SHARK setup successfully completed in   4.0 seconds

Maximum memory used throughout the entire STARTUP-calculation: 78.8 MB
[1738801106.322704] [ohm:3021970:0]        ib_iface.c:1059 UCX  ERROR ibv_create_cq(cqe=256) failed: Connection timed out
[1738801106.326007] [ohm:3021955:0]        ib_iface.c:1059 UCX  ERROR ibv_create_cq(cqe=256) failed: Connection timed out
[1738801106.341272] [ohm:3021956:0]        ib_iface.c:1059 UCX  ERROR ibv_create_cq(cqe=256) failed: Connection timed out
[1738801106.350962] [ohm:3021957:0]        ib_iface.c:1059 UCX  ERROR ibv_create_cq(cqe=256) failed: Connection timed out
[1738801106.351496] [ohm:3021952:0]        ib_iface.c:1059 UCX  ERROR ibv_create_cq(cqe=256) failed: Connection timed out
[1738801106.354562] [ohm:3021958:0]        ib_iface.c:1059 UCX  ERROR ibv_create_cq(cqe=256) failed: Connection timed out
[1738801106.355246] [ohm:3021960:0]        ib_iface.c:1059 UCX  ERROR ibv_create_cq(cqe=256) failed: Connection timed out
[1738801106.359765] [ohm:3021953:0]        ib_iface.c:1059 UCX  ERROR ibv_create_cq(cqe=256) failed: Connection timed out
[1738801106.369237] [ohm:3021963:0]        ib_iface.c:1059 UCX  ERROR ibv_create_cq(cqe=256) failed: Connection timed out
[1738801106.374016] [ohm:3021959:0]        ib_iface.c:1059 UCX  ERROR ibv_create_cq(cqe=256) failed: Connection timed out
[1738801106.376849] [ohm:3021964:0]        ib_iface.c:1059 UCX  ERROR ibv_create_cq(cqe=256) failed: Connection timed out
[1738801106.379709] [ohm:3021975:0]        ib_iface.c:1059 UCX  ERROR ibv_create_cq(cqe=256) failed: Connection timed out
[1738801106.393337] [ohm:3022085:0]        ib_iface.c:1059 UCX  ERROR ibv_create_cq(cqe=256) failed: Connection timed out
[1738801106.399998] [ohm:3021980:0]        ib_iface.c:1059 UCX  ERROR ibv_create_cq(cqe=256) failed: Connection timed out
[1738801106.432878] [ohm:3022062:0]        ib_iface.c:1059 UCX  ERROR ibv_create_cq(cqe=256) failed: Connection timed out
[1738801106.443184] [ohm:3021973:0]        ib_iface.c:1059 UCX  ERROR ibv_create_cq(cqe=256) failed: Connection timed out
[1738801106.449338] [ohm:3021961:0]        ib_iface.c:1059 UCX  ERROR ibv_create_cq(cqe=256) failed: Connection timed out
[1738801106.449898] [ohm:3021954:0]        ib_iface.c:1059 UCX  ERROR ibv_create_cq(cqe=256) failed: Connection timed out
[1738801106.466670] [ohm:3022025:0]        ib_iface.c:1059 UCX  ERROR ibv_create_cq(cqe=256) failed: Connection timed out
[1738801106.472720] [ohm:3022093:0]        ib_iface.c:1059 UCX  ERROR ibv_create_cq(cqe=256) failed: Connection timed out
[1738801106.475246] [ohm:3022029:0]        ib_iface.c:1059 UCX  ERROR ibv_create_cq(cqe=256) failed: Connection timed out
[1738801106.481362] [ohm:3022021:0]        ib_iface.c:1059 UCX  ERROR ibv_create_cq(cqe=256) failed: Connection timed out
[1738801106.481359] [ohm:3022074:0]        ib_iface.c:1059 UCX  ERROR ibv_create_cq(cqe=256) failed: Connection timed out
[1738801106.483826] [ohm:3022016:0]        ib_iface.c:1059 UCX  ERROR ibv_create_cq(cqe=256) failed: Connection timed out
[1738801106.502256] [ohm:3021979:0]        ib_iface.c:1059 UCX  ERROR ibv_create_cq(cqe=256) failed: Connection timed out
[1738801106.511992] [ohm:3022004:0]        ib_iface.c:1059 UCX  ERROR ibv_create_cq(cqe=256) failed: Connection timed out
[1738801106.514352] [ohm:3022064:0]        ib_iface.c:1059 UCX  ERROR ibv_create_cq(cqe=256) failed: Connection timed out
[1738801106.521641] [ohm:3021962:0]        ib_iface.c:1059 UCX  ERROR ibv_create_cq(cqe=256) failed: Connection timed out
[1738801106.522225] [ohm:3022048:0]        ib_iface.c:1059 UCX  ERROR ibv_create_cq(cqe=256) failed: Connection timed out
[1738801106.523394] [ohm:3022082:0]        ib_iface.c:1059 UCX  ERROR ibv_create_cq(cqe=256) failed: Connection timed out
[1738801106.523354] [ohm:3022090:0]        ib_iface.c:1059 UCX  ERROR ibv_create_cq(cqe=256) failed: Connection timed out
[1738801106.538399] [ohm:3022058:0]        ib_iface.c:1059 UCX  ERROR ibv_create_cq(cqe=256) failed: Connection timed out
[1738801106.542940] [ohm:3022069:0]        ib_iface.c:1059 UCX  ERROR ibv_create_cq(cqe=256) failed: Connection timed out
[1738801106.542917] [ohm:3022097:0]        ib_iface.c:1059 UCX  ERROR ibv_create_cq(cqe=256) failed: Connection timed out
[1738801106.543013] [ohm:3022001:0]        ib_iface.c:1059 UCX  ERROR ibv_create_cq(cqe=256) failed: Connection timed out
[1738801106.544394] [ohm:3021974:0]        ib_iface.c:1059 UCX  ERROR ibv_create_cq(cqe=256) failed: Connection timed out
[1738801106.544554] [ohm:3022009:0]        ib_iface.c:1059 UCX  ERROR ibv_create_cq(cqe=256) failed: Connection timed out
[1738801106.549333] [ohm:3021985:0]        ib_iface.c:1059 UCX  ERROR ibv_create_cq(cqe=256) failed: Connection timed out
[1738801106.550407] [ohm:3022013:0]        ib_iface.c:1059 UCX  ERROR ibv_create_cq(cqe=256) failed: Connection timed out
[1738801106.566474] [ohm:3021994:0]        ib_iface.c:1059 UCX  ERROR ibv_create_cq(cqe=256) failed: Connection timed out
[1738801106.594444] [ohm:3022077:0]        ib_iface.c:1059 UCX  ERROR ibv_create_cq(cqe=256) failed: Connection timed out
[1738801106.595972] [ohm:3022002:0]        ib_iface.c:1059 UCX  ERROR ibv_create_cq(cqe=256) failed: Connection timed out
[1738801106.599291] [ohm:3021999:0]        ib_iface.c:1059 UCX  ERROR ibv_create_cq(cqe=256) failed: Connection timed out
[1738801106.604954] [ohm:3022057:0]        ib_iface.c:1059 UCX  ERROR ibv_create_cq(cqe=256) failed: Connection timed out
[1738801106.608584] [ohm:3022099:0]        ib_iface.c:1059 UCX  ERROR ibv_create_cq(cqe=256) failed: Connection timed out
[1738801106.608651] [ohm:3022014:0]        ib_iface.c:1059 UCX  ERROR ibv_create_cq(cqe=256) failed: Connection timed out
[1738801106.622802] [ohm:3022041:0]        ib_iface.c:1059 UCX  ERROR ibv_create_cq(cqe=256) failed: Connection timed out
[1738801106.624120] [ohm:3022054:0]        ib_iface.c:1059 UCX  ERROR ibv_create_cq(cqe=256) failed: Connection timed out
[1738801106.631414] [ohm:3022011:0]        ib_iface.c:1059 UCX  ERROR ibv_create_cq(cqe=256) failed: Connection timed out
[1738801106.632326] [ohm:3022012:0]        ib_iface.c:1059 UCX  ERROR ibv_create_cq(cqe=256) failed: Connection timed out
[1738801106.633915] [ohm:3022066:0]        ib_iface.c:1059 UCX  ERROR ibv_create_cq(cqe=256) failed: Connection timed out
[1738801106.642749] [ohm:3021981:0]        ib_iface.c:1059 UCX  ERROR ibv_create_cq(cqe=256) failed: Connection timed out
[1738801106.642754] [ohm:3021990:0]        ib_iface.c:1059 UCX  ERROR ibv_create_cq(cqe=256) failed: Connection timed out
[1738801106.644250] [ohm:3022032:0]        ib_iface.c:1059 UCX  ERROR ibv_create_cq(cqe=256) failed: Connection timed out
[1738801106.645151] [ohm:3022007:0]        ib_iface.c:1059 UCX  ERROR ibv_create_cq(cqe=256) failed: Connection timed out
[1738801106.645424] [ohm:3022039:0]        ib_iface.c:1059 UCX  ERROR ibv_create_cq(cqe=256) failed: Connection timed out
[1738801106.649120] [ohm:3022101:0]        ib_iface.c:1059 UCX  ERROR ibv_create_cq(cqe=256) failed: Connection timed out
[1738801106.649143] [ohm:3022022:0]        ib_iface.c:1059 UCX  ERROR ibv_create_cq(cqe=256) failed: Connection timed out
[1738801106.650613] [ohm:3021996:0]        ib_iface.c:1059 UCX  ERROR ibv_create_cq(cqe=256) failed: Connection timed out
[1738801106.652035] [ohm:3022051:0]        ib_iface.c:1059 UCX  ERROR ibv_create_cq(cqe=256) failed: Connection timed out
[1738801106.652396] [ohm:3021987:0]        ib_iface.c:1059 UCX  ERROR ibv_create_cq(cqe=256) failed: Connection timed out
[1738801106.653221] [ohm:3021983:0]        ib_iface.c:1059 UCX  ERROR ibv_create_cq(cqe=256) failed: Connection timed out
[1738801106.653851] [ohm:3021982:0]        ib_iface.c:1059 UCX  ERROR ibv_create_cq(cqe=256) failed: Connection timed out
[1738801106.655606] [ohm:3022017:0]        ib_iface.c:1059 UCX  ERROR ibv_create_cq(cqe=256) failed: Connection timed out


           ************************************************************
           *        Program running with 64 parallel MPI-processes    *
           *              working on a common directory               *
           ************************************************************
-------------------------------------------------------------------------------
                                 ORCA GUESS
                   Start orbitals & Density for SCF / CASSCF
-------------------------------------------------------------------------------

------------
SCF SETTINGS
------------
Hamiltonian:
 Density Functional     Method          .... DFT(GTOs)
  Functional kind                       .... Exchange-Correlation
  Functional name                       .... wB97M-V exchange-correlation functional
  Functional family                     .... Hybrid MGGA
  Functional refs                              
    [ 0] N. Mardirossian and M. Head-Gordon.,  J. Chem. Phys. 144, 214110 (2016), doi: 10.1063/1.4952647
  Fraction of HF Exchange (short range) .... 0.1500
  Fraction of HF Exchange (long range)  .... 1.0000
  Range separation parameter mu         .... 0.3000
  Functional external parameters        .... 17
    Parameter  0 _cx00      =  8.500000e-01 : u^00 coefficient for exchange
    Parameter  1 _cx01      =  1.007000e+00 : u^01 coefficient for exchange
    Parameter  2 _cx10      =  2.590000e-01 : u^10 coefficient for exchange
    Parameter  3 _css00     =  4.430000e-01 : u^00 coefficient for same-spin correlation
    Parameter  4 _css04     = -1.437000e+00 : u^04 coefficient for same-spin correlation
    Parameter  5 _css10     = -4.535000e+00 : u^10 coefficient for same-spin correlation
    Parameter  6 _css20     = -3.390000e+00 : u^20 coefficient for same-spin correlation
    Parameter  7 _css43     =  4.278000e+00 : u^43 coefficient for same-spin correlation
    Parameter  8 _cos00     =  1.000000e+00 : u^00 coefficient for opposite-spin correlation
    Parameter  9 _cos10     =  1.358000e+00 : u^10 coefficient for opposite-spin correlation
    Parameter 10 _cos20     =  2.924000e+00 : u^20 coefficient for opposite-spin correlation
    Parameter 11 _cos21     = -8.812000e+00 : u^21 coefficient for opposite-spin correlation
    Parameter 12 _cos60     = -1.390000e+00 : u^60 coefficient for opposite-spin correlation
    Parameter 13 _cos61     =  9.142000e+00 : u^61 coefficient for opposite-spin correlation
    Parameter 14 _alpha     =  1.000000e+00 : fraction of HF exchange
    Parameter 15 _beta      = -8.500000e-01 : fraction of short-range exchange
    Parameter 16 _omega     =  3.000000e-01 : range-separation constant
 Long-range corrected/Screened/Range-Separated Hybrid DFT is turned on
   Amount of maximum screened exact exchange              ....  0.850000
   Range separation parameter mu (erf(mu*r12)/r12)        ....  0.300000
 RI-approximation to the Coulomb term is turned on
   Number of AuxJ basis functions       .... 1014
   RIJ-COSX (HFX calculated with COS-X)).... on


General Settings:
 Integral files         IntName         .... orca
 Hartree-Fock type      HFTyp           .... UHF
 Total Charge           Charge          ....    0
 Multiplicity           Mult            ....    3
 Number of Electrons    NEL             ....  132
 Basis Dimension        Dim             ....  882
 Nuclear Repulsion      ENuc            ....   1397.5212194319 Eh

Convergence Acceleration:
 AO-DIIS                CNVDIIS         .... on
   Start iteration      DIISMaxIt       ....    12
   Startup error        DIISStart       ....  0.200000
   # of expansion vecs  DIISMaxEq       ....     5
   Bias factor          DIISBfac        ....   1.050
   Max. coefficient     DIISMaxC        ....  10.000
 MO-DIIS                CNVKDIIS        .... off
 Trust-Rad. Augm. Hess. CNVTRAH         .... auto
   Auto Start mean grad. ratio tolernc. ....  1.125000
   Auto Start start iteration           ....    50
   Auto Start num. interpolation iter.  ....    10
   Max. Number of Micro iterations      ....    24
   Max. Number of Macro iterations      .... Maxiter - #DIIS iter
   Number of Davidson start vectors     ....     2
   Converg. threshold    (grad. norm)   ....   1.000e-05
   Grad. Scal. Fac. for Micro threshold ....   0.100
   Minimum threshold for Micro iter.    ....   1.000e-02
   NR start threshold (gradient norm)   ....   1.000e-04
   Initial trust radius                 ....   0.400
   Minimum AH scaling param. (alpha)    ....   1.000
   Maximum AH scaling param. (alpha)    .... 1000.000
   Quad. conv. algorithm                .... NR
   White noise on init. David. guess    .... on
   Maximum white noise                  ....   0.010
   Pseudo random numbers                .... off
   Inactive MOs                         .... canonical
   Orbital update algorithm             .... Taylor
   Preconditioner                       .... Diag
   Full preconditioner red. dimension   ....   250
 SOSCF                  CNVSOSCF        .... on
   Start iteration      SOSCFMaxIt      ....   150
   Startup grad/error   SOSCFStart      ....  0.003300
   Hessian update       SOSCFHessUp     .... L-BFGS
 Level Shifting         CNVShift        .... on
   Level shift para.    LevelShift      ....    0.2500
   Turn off err/grad.   ShiftErr        ....    0.0010
 Zerner damping         CNVZerner       .... off
 Static damping         CNVDamp         .... on
   Fraction old density DampFac         ....    0.7000
   Max. Damping (<1)    DampMax         ....    0.9800
   Min. Damping (>=0)   DampMin         ....    0.0000
   Turn off err/grad.   DampErr         ....    0.1000

SCF Procedure:
 Maximum # iterations   MaxIter         ....   125
 SCF integral mode      SCFMode         .... Direct
   Integral package                     .... SHARK and LIBINT hybrid scheme
 Reset frequency        DirectResetFreq ....    20
 Integral Threshold     Thresh          ....  1.000e-12 Eh
 Primitive CutOff       TCut            ....  1.000e-13 Eh

Convergence Tolerance:
 Convergence Check Mode ConvCheckMode   .... Total+1el-Energy
 Convergence forced     ConvForced      .... 1
 Energy Change          TolE            ....  1.000e-08 Eh
 1-El. energy change                    ....  1.000e-05 Eh
 Orbital Gradient       TolG            ....  1.000e-05
 Orbital Rotation angle TolX            ....  1.000e-05
 DIIS Error             TolErr          ....  5.000e-07

------------------------------
INITIAL GUESS: MODEL POTENTIAL
------------------------------
Loading Hartree-Fock densities                     ... done
Calculating cut-offs                               ... done
Initializing the effective Hamiltonian             ... done
Setting up the integral package (SHARK)            ... done
Starting the Coulomb interaction                   ... done (   0.1 sec)
Making the grid                                    ... done (   0.3 sec)
Mapping shells                                     ... done
Starting the XC term evaluation                    ... done (   0.1 sec)
  promolecular density results
     # of electrons  =    131.989927151
     EX              =   -113.578840581
     EC              =     -4.497439333
     EX+EC           =   -118.076279914
Transforming the Hamiltonian                       ... done (   0.1 sec)
Diagonalizing the Hamiltonian                      ... done (   0.1 sec)
Back transforming the eigenvectors                 ... done (   0.1 sec)
Now organizing SCF variables                       ... done
                      ------------------
                      INITIAL GUESS DONE (   1.1 sec)
                      ------------------
             **** ENERGY FILE WAS UPDATED (orca.en.tmp) ****
Finished Guess after   3.6 sec
Maximum memory used throughout the entire GUESS-calculation: 71.0 MB
[1738801110.514803] [ohm:3022282:0]        ib_iface.c:1059 UCX  ERROR ibv_create_cq(cqe=256) failed: Connection timed out
[1738801110.520244] [ohm:3022286:0]        ib_iface.c:1059 UCX  ERROR ibv_create_cq(cqe=256) failed: Connection timed out
[1738801110.531194] [ohm:3022285:0]        ib_iface.c:1059 UCX  ERROR ibv_create_cq(cqe=256) failed: Connection timed out
[1738801110.532371] [ohm:3022284:0]        ib_iface.c:1059 UCX  ERROR ibv_create_cq(cqe=256) failed: Connection timed out
[1738801110.534681] [ohm:3022283:0]        ib_iface.c:1059 UCX  ERROR ibv_create_cq(cqe=256) failed: Connection timed out
[1738801110.585393] [ohm:3022291:0]        ib_iface.c:1059 UCX  ERROR ibv_create_cq(cqe=256) failed: Connection timed out
[1738801110.587629] [ohm:3022287:0]        ib_iface.c:1059 UCX  ERROR ibv_create_cq(cqe=256) failed: Connection timed out
[1738801110.590282] [ohm:3022367:0]        ib_iface.c:1059 UCX  ERROR ibv_create_cq(cqe=256) failed: Connection timed out
[1738801110.597618] [ohm:3022292:0]        ib_iface.c:1059 UCX  ERROR ibv_create_cq(cqe=256) failed: Connection timed out
[1738801110.602995] [ohm:3022299:0]        ib_iface.c:1059 UCX  ERROR ibv_create_cq(cqe=256) failed: Connection timed out
[1738801110.605584] [ohm:3022289:0]        ib_iface.c:1059 UCX  ERROR ibv_create_cq(cqe=256) failed: Connection timed out
[1738801110.609878] [ohm:3022343:0]        ib_iface.c:1059 UCX  ERROR ibv_create_cq(cqe=256) failed: Connection timed out
[1738801110.629433] [ohm:3022310:0]        ib_iface.c:1059 UCX  ERROR ibv_create_cq(cqe=256) failed: Connection timed out
[1738801110.631127] [ohm:3022297:0]        ib_iface.c:1059 UCX  ERROR ibv_create_cq(cqe=256) failed: Connection timed out
[1738801110.660071] [ohm:3022293:0]        ib_iface.c:1059 UCX  ERROR ibv_create_cq(cqe=256) failed: Connection timed out
[1738801110.665628] [ohm:3022304:0]        ib_iface.c:1059 UCX  ERROR ibv_create_cq(cqe=256) failed: Connection timed out
[1738801110.674635] [ohm:3022301:0]        ib_iface.c:1059 UCX  ERROR ibv_create_cq(cqe=256) failed: Connection timed out
[1738801110.682624] [ohm:3022373:0]        ib_iface.c:1059 UCX  ERROR ibv_create_cq(cqe=256) failed: Connection timed out
[1738801110.696991] [ohm:3022307:0]        ib_iface.c:1059 UCX  ERROR ibv_create_cq(cqe=256) failed: Connection timed out
[1738801110.710278] [ohm:3022311:0]        ib_iface.c:1059 UCX  ERROR ibv_create_cq(cqe=256) failed: Connection timed out
[1738801110.710915] [ohm:3022300:0]        ib_iface.c:1059 UCX  ERROR ibv_create_cq(cqe=256) failed: Connection timed out
[1738801110.714018] [ohm:3022325:0]        ib_iface.c:1059 UCX  ERROR ibv_create_cq(cqe=256) failed: Connection timed out
[1738801110.717818] [ohm:3022379:0]        ib_iface.c:1059 UCX  ERROR ibv_create_cq(cqe=256) failed: Connection timed out
[1738801110.725372] [ohm:3022391:0]        ib_iface.c:1059 UCX  ERROR ibv_create_cq(cqe=256) failed: Connection timed out
[1738801110.750233] [ohm:3022332:0]        ib_iface.c:1059 UCX  ERROR ibv_create_cq(cqe=256) failed: Connection timed out
[1738801110.756559] [ohm:3022294:0]        ib_iface.c:1059 UCX  ERROR ibv_create_cq(cqe=256) failed: Connection timed out
[1738801110.761429] [ohm:3022365:0]        ib_iface.c:1059 UCX  ERROR ibv_create_cq(cqe=256) failed: Connection timed out
[1738801110.763620] [ohm:3022384:0]        ib_iface.c:1059 UCX  ERROR ibv_create_cq(cqe=256) failed: Connection timed out
[1738801110.773165] [ohm:3022295:0]        ib_iface.c:1059 UCX  ERROR ibv_create_cq(cqe=256) failed: Connection timed out
[1738801110.777757] [ohm:3022415:0]        ib_iface.c:1059 UCX  ERROR ibv_create_cq(cqe=256) failed: Connection timed out
[1738801110.778618] [ohm:3022322:0]        ib_iface.c:1059 UCX  ERROR ibv_create_cq(cqe=256) failed: Connection timed out
[1738801110.784333] [ohm:3022429:0]        ib_iface.c:1059 UCX  ERROR ibv_create_cq(cqe=256) failed: Connection timed out
[1738801110.787904] [ohm:3022296:0]        ib_iface.c:1059 UCX  ERROR ibv_create_cq(cqe=256) failed: Connection timed out
[1738801110.795888] [ohm:3022362:0]        ib_iface.c:1059 UCX  ERROR ibv_create_cq(cqe=256) failed: Connection timed out
[1738801110.800209] [ohm:3022315:0]        ib_iface.c:1059 UCX  ERROR ibv_create_cq(cqe=256) failed: Connection timed out
[1738801110.800599] [ohm:3022303:0]        ib_iface.c:1059 UCX  ERROR ibv_create_cq(cqe=256) failed: Connection timed out
[1738801110.806707] [ohm:3022298:0]        ib_iface.c:1059 UCX  ERROR ibv_create_cq(cqe=256) failed: Connection timed out
[1738801110.808845] [ohm:3022302:0]        ib_iface.c:1059 UCX  ERROR ibv_create_cq(cqe=256) failed: Connection timed out
[1738801110.810686] [ohm:3022288:0]        ib_iface.c:1059 UCX  ERROR ibv_create_cq(cqe=256) failed: Connection timed out
[1738801110.812001] [ohm:3022382:0]        ib_iface.c:1059 UCX  ERROR ibv_create_cq(cqe=256) failed: Connection timed out
[1738801110.822026] [ohm:3022410:0]        ib_iface.c:1059 UCX  ERROR ibv_create_cq(cqe=256) failed: Connection timed out
[1738801110.833248] [ohm:3022345:0]        ib_iface.c:1059 UCX  ERROR ibv_create_cq(cqe=256) failed: Connection timed out
[1738801110.837466] [ohm:3022336:0]        ib_iface.c:1059 UCX  ERROR ibv_create_cq(cqe=256) failed: Connection timed out
[1738801110.837540] [ohm:3022358:0]        ib_iface.c:1059 UCX  ERROR ibv_create_cq(cqe=256) failed: Connection timed out
[1738801110.838382] [ohm:3022406:0]        ib_iface.c:1059 UCX  ERROR ibv_create_cq(cqe=256) failed: Connection timed out
[1738801110.847131] [ohm:3022376:0]        ib_iface.c:1059 UCX  ERROR ibv_create_cq(cqe=256) failed: Connection timed out
[1738801110.847807] [ohm:3022355:0]        ib_iface.c:1059 UCX  ERROR ibv_create_cq(cqe=256) failed: Connection timed out
[1738801110.847834] [ohm:3022308:0]        ib_iface.c:1059 UCX  ERROR ibv_create_cq(cqe=256) failed: Connection timed out
[1738801110.849295] [ohm:3022306:0]        ib_iface.c:1059 UCX  ERROR ibv_create_cq(cqe=256) failed: Connection timed out
[1738801110.850005] [ohm:3022411:0]        ib_iface.c:1059 UCX  ERROR ibv_create_cq(cqe=256) failed: Connection timed out
[1738801110.850650] [ohm:3022403:0]        ib_iface.c:1059 UCX  ERROR ibv_create_cq(cqe=256) failed: Connection timed out
[1738801110.852255] [ohm:3022400:0]        ib_iface.c:1059 UCX  ERROR ibv_create_cq(cqe=256) failed: Connection timed out
[1738801110.855745] [ohm:3022388:0]        ib_iface.c:1059 UCX  ERROR ibv_create_cq(cqe=256) failed: Connection timed out
[1738801110.857042] [ohm:3022405:0]        ib_iface.c:1059 UCX  ERROR ibv_create_cq(cqe=256) failed: Connection timed out
[1738801110.857113] [ohm:3022354:0]        ib_iface.c:1059 UCX  ERROR ibv_create_cq(cqe=256) failed: Connection timed out
[1738801110.858567] [ohm:3022318:0]        ib_iface.c:1059 UCX  ERROR ibv_create_cq(cqe=256) failed: Connection timed out
[1738801110.860884] [ohm:3022418:0]        ib_iface.c:1059 UCX  ERROR ibv_create_cq(cqe=256) failed: Connection timed out
[1738801110.861809] [ohm:3022420:0]        ib_iface.c:1059 UCX  ERROR ibv_create_cq(cqe=256) failed: Connection timed out
[1738801110.865207] [ohm:3022326:0]        ib_iface.c:1059 UCX  ERROR ibv_create_cq(cqe=256) failed: Connection timed out
[1738801110.867358] [ohm:3022396:0]        ib_iface.c:1059 UCX  ERROR ibv_create_cq(cqe=256) failed: Connection timed out
[1738801110.867362] [ohm:3022385:0]        ib_iface.c:1059 UCX  ERROR ibv_create_cq(cqe=256) failed: Connection timed out
[1738801110.870724] [ohm:3022305:0]        ib_iface.c:1059 UCX  ERROR ibv_create_cq(cqe=256) failed: Connection timed out
[1738801110.871257] [ohm:3022369:0]        ib_iface.c:1059 UCX  ERROR ibv_create_cq(cqe=256) failed: Connection timed out
[1738801110.877590] [ohm:3022290:0]        ib_iface.c:1059 UCX  ERROR ibv_create_cq(cqe=256) failed: Connection timed out


           ************************************************************
           *        Program running with 64 parallel MPI-processes    *
           *              working on a common directory               *
           ************************************************************

-------------------------------------------------------------------------------------------
                                      ORCA LEAN-SCF
                              memory conserving SCF solver
-------------------------------------------------------------------------------------------

----------------------------------------D-I-I-S--------------------------------------------
Iteration    Energy (Eh)           Delta-E    RMSDP     MaxDP     DIISErr   Damp  Time(sec)
-------------------------------------------------------------------------------------------
               ***  Starting incremental Fock matrix formation  ***
    1    -908.1505564765056988     0.00e+00  1.79e-03  3.67e-01  1.46e-01  0.700   7.6
    2    -908.4155561823299649    -2.65e-01  1.40e-03  2.34e-01  6.93e-02  0.700   6.5
                               ***Turning on AO-DIIS***
    3    -908.5328400051939752    -1.17e-01  9.93e-04  1.59e-01  2.92e-02  0.700   5.8
    4    -908.6047998477033616    -7.20e-02  2.27e-03  3.28e-01  1.79e-02  0.000   5.7
    5    -908.7662849231223845    -1.61e-01  2.66e-04  6.01e-02  3.97e-03  0.000   5.8
                              *** Initializing SOSCF ***
---------------------------------------S-O-S-C-F--------------------------------------
Iteration    Energy (Eh)           Delta-E    RMSDP     MaxDP     MaxGrad    Time(sec)
--------------------------------------------------------------------------------------
    6    -908.7674985360463324    -1.21e-03  1.15e-04  2.95e-02  2.23e-03     6.5
               *** Restarting incremental Fock matrix formation ***
    7    -908.7679822308523399    -4.84e-04  3.41e-04  3.75e-02  3.05e-03     7.3
    8    -908.7683063625536306    -3.24e-04  2.68e-04  4.60e-02  1.64e-03     6.5
    9    -908.7684156027544304    -1.09e-04  1.98e-04  2.11e-02  8.51e-04     6.5
   10    -908.7684761831069409    -6.06e-05  2.19e-05  6.17e-03  3.53e-04     6.3
   11    -908.7684830274606611    -6.84e-06  9.78e-06  1.10e-03  1.58e-04     6.1
   12    -908.7684847619689208    -1.73e-06  4.91e-06  5.48e-04  1.67e-04     6.0
   13    -908.7684856253436010    -8.63e-07  4.80e-06  5.61e-04  2.81e-05     6.0
   14    -908.7684857360454771    -1.11e-07  1.26e-06  2.12e-04  2.05e-05     5.9
   15    -908.7684857934486899    -5.74e-08  1.50e-06  2.42e-04  6.60e-06     5.8
   16    -908.7684857861809178     7.27e-09  1.25e-06  3.67e-04  4.59e-06     5.6
                 **** Energy Check signals convergence ****

               *****************************************************
               *                     SUCCESS                       *
               *           SCF CONVERGED AFTER  16 CYCLES          *
               *****************************************************

Recomputing exchange energy using gridx3       ... done (    7.666 sec)
Old exchange energy                            :    -35.053941811 Eh
New exchange energy                            :    -35.053947823 Eh
Exchange energy change after final integration :     -0.000006012 Eh
Total energy after final integration           :   -908.768491798 Eh
             **** ENERGY FILE WAS UPDATED (orca.en.tmp) ****

----------------
TOTAL SCF ENERGY
----------------

Total Energy       :       -908.76849179803014 Eh          -24728.84785 eV

Components:
Nuclear Repulsion  :       1397.52121943186467 Eh           38028.48571 eV
Electronic Energy  :      -2306.28970521804513 Eh          -62757.33340 eV
One Electron Energy:      -4011.65731415678783 Eh         -109162.74524 eV
Two Electron Energy:       1705.36760893874248 Eh           46405.41184 eV

Virial components:
Potential Energy   :      -1814.71242107304374 Eh          -49380.83545 eV
Kinetic Energy     :        905.94392927501360 Eh           24651.98760 eV
Virial Ratio       :          2.00311781163463

DFT components:
N(Alpha)           :       66.999953872909 electrons
N(Beta)            :       64.999969606104 electrons
N(Total)           :      131.999923479013 electrons
E(XC)              :      -86.301991555606 Eh       

---------------
SCF CONVERGENCE
---------------

  Last Energy change         ...   -7.2678e-09  Tolerance :   1.0000e-08
  Last MAX-Density change    ...    3.6709e-04  Tolerance :   1.0000e-07
  Last RMS-Density change    ...    1.2462e-06  Tolerance :   5.0000e-09
  Last DIIS Error            ...    2.2348e-03  Tolerance :   5.0000e-07
  Last Orbital Gradient      ...    4.5913e-06  Tolerance :   1.0000e-05
  Last Orbital Rotation      ...    1.1851e-05  Tolerance :   1.0000e-05


----------------------
UHF SPIN CONTAMINATION
----------------------

Warning: in a DFT calculation there is little theoretical justification to 
         calculate <S**2> as in Hartree-Fock theory. We will do it anyways
         but you should keep in mind that the values have only limited relevance

Expectation value of <S**2>     :     2.013610
Ideal value S*(S+1) for S=1.0   :     2.000000
Deviation                       :     0.013610

----------------
ORBITAL ENERGIES
----------------
                 SPIN UP ORBITALS
  NO   OCC          E(Eh)            E(eV) 
   0   1.0000     -19.342200      -526.3280 
   1   1.0000     -19.334638      -526.1222 
   2   1.0000     -19.327811      -525.9365 
   3   1.0000     -19.316642      -525.6325 
   4   1.0000     -14.567392      -396.3989 
   5   1.0000     -14.566328      -396.3699 
   6   1.0000     -14.562717      -396.2717 
   7   1.0000     -14.557234      -396.1225 
   8   1.0000     -10.510927      -286.0169 
   9   1.0000     -10.503596      -285.8174 
  10   1.0000     -10.486710      -285.3579 
  11   1.0000     -10.482843      -285.2527 
  12   1.0000     -10.447860      -284.3007 
  13   1.0000     -10.445808      -284.2449 
  14   1.0000     -10.423007      -283.6245 
  15   1.0000     -10.421479      -283.5828 
  16   1.0000     -10.380815      -282.4763 
  17   1.0000     -10.377866      -282.3961 
  18   1.0000      -1.226756       -33.3817 
  19   1.0000      -1.218851       -33.1666 
  20   1.0000      -1.204449       -32.7747 
  21   1.0000      -1.196851       -32.5680 
  22   1.0000      -1.123450       -30.5706 
  23   1.0000      -1.101600       -29.9761 
  24   1.0000      -1.068800       -29.0835 
  25   1.0000      -1.060247       -28.8508 
  26   1.0000      -0.988382       -26.8952 
  27   1.0000      -0.962969       -26.2037 
  28   1.0000      -0.898566       -24.4512 
  29   1.0000      -0.849175       -23.1072 
  30   1.0000      -0.832200       -22.6453 
  31   1.0000      -0.802360       -21.8333 
  32   1.0000      -0.788029       -21.4434 
  33   1.0000      -0.783907       -21.3312 
  34   1.0000      -0.704989       -19.1837 
  35   1.0000      -0.699975       -19.0473 
  36   1.0000      -0.693509       -18.8713 
  37   1.0000      -0.685049       -18.6411 
  38   1.0000      -0.653232       -17.7753 
  39   1.0000      -0.638621       -17.3778 
  40   1.0000      -0.625798       -17.0288 
  41   1.0000      -0.608237       -16.5510 
  42   1.0000      -0.601424       -16.3656 
  43   1.0000      -0.590719       -16.0743 
  44   1.0000      -0.580864       -15.8061 
  45   1.0000      -0.574541       -15.6341 
  46   1.0000      -0.571316       -15.5463 
  47   1.0000      -0.567052       -15.4303 
  48   1.0000      -0.564094       -15.3498 
  49   1.0000      -0.559976       -15.2377 
  50   1.0000      -0.556135       -15.1332 
  51   1.0000      -0.546841       -14.8803 
  52   1.0000      -0.531642       -14.4667 
  53   1.0000      -0.528957       -14.3937 
  54   1.0000      -0.520945       -14.1756 
  55   1.0000      -0.509863       -13.8741 
  56   1.0000      -0.499855       -13.6018 
  57   1.0000      -0.430338       -11.7101 
  58   1.0000      -0.424386       -11.5481 
  59   1.0000      -0.410168       -11.1612 
  60   1.0000      -0.407534       -11.0896 
  61   1.0000      -0.401661       -10.9297 
  62   1.0000      -0.397363       -10.8128 
  63   1.0000      -0.391732       -10.6596 
  64   1.0000      -0.386322       -10.5124 
  65   1.0000      -0.345692        -9.4067 
  66   1.0000      -0.341771        -9.3001 
  67   0.0000       0.008653         0.2355 
  68   0.0000       0.029227         0.7953 
  69   0.0000       0.030059         0.8179 
  70   0.0000       0.033136         0.9017 
  71   0.0000       0.051702         1.4069 
  72   0.0000       0.054164         1.4739 
  73   0.0000       0.058476         1.5912 
  74   0.0000       0.060773         1.6537 
  75   0.0000       0.064171         1.7462 
  76   0.0000       0.068128         1.8539 
  77   0.0000       0.073283         1.9941 

                 SPIN DOWN ORBITALS
  NO   OCC          E(Eh)            E(eV) 
   0   1.0000     -19.338050      -526.2151 
   1   1.0000     -19.330562      -526.0113 
   2   1.0000     -19.327555      -525.9295 
   3   1.0000     -19.316616      -525.6318 
   4   1.0000     -14.567256      -396.3952 
   5   1.0000     -14.565437      -396.3457 
   6   1.0000     -14.562014      -396.2525 
   7   1.0000     -14.557102      -396.1189 
   8   1.0000     -10.510940      -286.0172 
   9   1.0000     -10.503650      -285.8188 
  10   1.0000     -10.487745      -285.3861 
  11   1.0000     -10.483854      -285.2802 
  12   1.0000     -10.447789      -284.2988 
  13   1.0000     -10.446135      -284.2538 
  14   1.0000     -10.410974      -283.2970 
  15   1.0000     -10.410096      -283.2731 
  16   1.0000     -10.381435      -282.4932 
  17   1.0000     -10.378449      -282.4120 
  18   1.0000      -1.224958       -33.3328 
  19   1.0000      -1.216963       -33.1153 
  20   1.0000      -1.199603       -32.6429 
  21   1.0000      -1.192481       -32.4491 
  22   1.0000      -1.120728       -30.4966 
  23   1.0000      -1.099431       -29.9170 
  24   1.0000      -1.067089       -29.0370 
  25   1.0000      -1.058672       -28.8079 
  26   1.0000      -0.976648       -26.5759 
  27   1.0000      -0.945587       -25.7307 
  28   1.0000      -0.892969       -24.2989 
  29   1.0000      -0.843533       -22.9537 
  30   1.0000      -0.823425       -22.4065 
  31   1.0000      -0.798133       -21.7183 
  32   1.0000      -0.786356       -21.3978 
  33   1.0000      -0.782016       -21.2797 
  34   1.0000      -0.700971       -19.0744 
  35   1.0000      -0.693023       -18.8581 
  36   1.0000      -0.686388       -18.6776 
  37   1.0000      -0.677360       -18.4319 
  38   1.0000      -0.643572       -17.5125 
  39   1.0000      -0.631452       -17.1827 
  40   1.0000      -0.623228       -16.9589 
  41   1.0000      -0.602401       -16.3922 
  42   1.0000      -0.595593       -16.2069 
  43   1.0000      -0.585010       -15.9189 
  44   1.0000      -0.573762       -15.6129 
  45   1.0000      -0.570028       -15.5113 
  46   1.0000      -0.563198       -15.3254 
  47   1.0000      -0.562442       -15.3048 
  48   1.0000      -0.555553       -15.1174 
  49   1.0000      -0.551906       -15.0181 
  50   1.0000      -0.548457       -14.9243 
  51   1.0000      -0.538898       -14.6642 
  52   1.0000      -0.525612       -14.3026 
  53   1.0000      -0.518486       -14.1087 
  54   1.0000      -0.514440       -13.9986 
  55   1.0000      -0.503351       -13.6969 
  56   1.0000      -0.493997       -13.4423 
  57   1.0000      -0.426712       -11.6114 
  58   1.0000      -0.419936       -11.4270 
  59   1.0000      -0.402195       -10.9443 
  60   1.0000      -0.397034       -10.8038 
  61   1.0000      -0.393554       -10.7091 
  62   1.0000      -0.392034       -10.6678 
  63   1.0000      -0.387176       -10.5356 
  64   1.0000      -0.382797       -10.4164 
  65   0.0000      -0.061163        -1.6643 
  66   0.0000      -0.053380        -1.4525 
  67   0.0000       0.008218         0.2236 
  68   0.0000       0.028837         0.7847 
  69   0.0000       0.029751         0.8096 
  70   0.0000       0.033092         0.9005 
  71   0.0000       0.053340         1.4515 
  72   0.0000       0.054168         1.4740 
  73   0.0000       0.060683         1.6513 
  74   0.0000       0.062789         1.7086 
  75   0.0000       0.067117         1.8263 
*Only the first 10 virtual orbitals were printed.

                    ********************************
                    * MULLIKEN POPULATION ANALYSIS *
                    ********************************

--------------------------------------------
MULLIKEN ATOMIC CHARGES AND SPIN POPULATIONS
--------------------------------------------
   0 O :   -0.653621    0.149379
   1 O :   -0.636892    0.147951
   2 O :   -0.656153    0.001156
   3 O :   -0.649404    0.008437
   4 N :   -0.088003    0.038050
   5 N :   -0.281450    0.034118
   6 N :   -0.058020    0.027149
   7 N :   -0.043710    0.009356
   8 C :    0.101876    0.444357
   9 C :    0.207889    0.513701
  10 C :    0.632166    0.066814
  11 C :    0.520635    0.142633
  12 C :   -1.897122   -0.051220
  13 C :   -1.466873    0.007303
  14 C :    0.733834    0.173194
  15 C :    0.313555    0.108542
  16 C :    0.411109    0.008541
  17 C :    0.401801   -0.000602
  18 H :    0.337131    0.045480
  19 H :    0.564370    0.013704
  20 H :    0.330456    0.035206
  21 H :    0.367213    0.007448
  22 H :    0.315047    0.010617
  23 H :    0.335697    0.032489
  24 H :    0.266896    0.015942
  25 H :    0.373286    0.013110
  26 H :    0.039253   -0.001510
  27 H :    0.067304    0.002020
  28 H :    0.048801   -0.002820
  29 H :    0.062927   -0.000547
Sum of atomic charges         :    0.0000000
Sum of atomic spin populations:    2.0000000

-----------------------------------------------------
MULLIKEN REDUCED ORBITAL CHARGES AND SPIN POPULATIONS
[...]
[1738801356.281121] [ohm:3025880:0]        ib_iface.c:1059 UCX  ERROR ibv_create_cq(cqe=256) failed: Connection timed out
[1738801356.282954] [ohm:3025863:0]        ib_iface.c:1059 UCX  ERROR ibv_create_cq(cqe=256) failed: Connection timed out
[1738801356.284423] [ohm:3025840:0]        ib_iface.c:1059 UCX  ERROR ibv_create_cq(cqe=256) failed: Connection timed out
[1738801356.285150] [ohm:3025920:0]        ib_iface.c:1059 UCX  ERROR ibv_create_cq(cqe=256) failed: Connection timed out
[1738801356.285641] [ohm:3025894:0]        ib_iface.c:1059 UCX  ERROR ibv_create_cq(cqe=256) failed: Connection timed out
[1738801356.286727] [ohm:3025856:0]        ib_iface.c:1059 UCX  ERROR ibv_create_cq(cqe=256) failed: Connection timed out
[1738801356.287451] [ohm:3025873:0]        ib_iface.c:1059 UCX  ERROR ibv_create_cq(cqe=256) failed: Connection timed out
[1738801356.288005] [ohm:3025877:0]        ib_iface.c:1059 UCX  ERROR ibv_create_cq(cqe=256) failed: Connection timed out
[1738801356.289295] [ohm:3025911:0]        ib_iface.c:1059 UCX  ERROR ibv_create_cq(cqe=256) failed: Connection timed out
[1738801356.289610] [ohm:3025914:0]        ib_iface.c:1059 UCX  ERROR ibv_create_cq(cqe=256) failed: Connection timed out


           ************************************************************
           *        Program running with 64 parallel MPI-processes    *
           *              working on a common directory               *
           ************************************************************

------------------------------------------------------------------------------
                              ORCA PROPERTY CALCULATIONS
------------------------------------------------------------------------------

GBWName                                 ... orca.gbw
Number of atoms                         ...     30
Number of basis functions               ...    882
Max core memory                         ...   1024 MB

Electric properties:
Dipole moment                           ... YES
Quadrupole moment                       ...  NO
Static polarizability (Dipole/Dipole)   ...  NO
Static polarizability (Dipole/Quad.)    ...  NO
Static polarizability (Quad./Quad.)     ...  NO
Static polarizability (Velocity)        ...  NO

Atomic electric properties:
Dipole moment                           ...  NO
Quadrupole moment                       ...  NO
Static polarizability                   ...  NO

Choice of electric origin               ... Center of mass
Position of electric origin             ...     0.029208    -0.025642     0.142305

General magnetic properties:
Magnetizability                         ...  NO

EPR properties:
g-Tensor (aka g-matrix)                 ...  NO
Zero-Field splitting spin-orbit         ...  NO
Zero-field splitting spin-spin          ...  NO
Hyperfine couplings                     ...  NO (   0 nuclei)
Quadrupole couplings                    ...  NO (   0 nuclei)
Contact density                         ...  NO (   0 nuclei)

NMR properties:
Chemical shifts                         ...  NO (   0 nuclei)
Spin-rotation constants                 ...  NO (   0 nuclei)
Spin-spin couplings                     ...  NO (   0 nuclei,    0 pairs)

Choice of magnetic origin               ... GIAO
Position of magnetic origin             ...     0.000000     0.000000     0.000000

Properties with geometric perturbations:
SCF Hessian                             ...  NO
IR spectrum                             ...  NO
VCD spectrum                            ...  NO
X-ray spectroscopy properties:
SCF XES/XAS/RIXS spectra                ...  NO


-------------
DIPOLE MOMENT
-------------

Method             : SCF
Type of density    : Electron Density
Multiplicity       :   3
Irrep              :   0
Energy             :  -908.7684917980301407 Eh
Relativity type    : 
Basis              : AO
                                X                 Y                 Z
Electronic contribution:     -1.689072041      -9.770239400      -5.794559202
Nuclear contribution   :      1.689713052      11.317412657       7.723996051
                        -----------------------------------------
Total Dipole Moment    :      0.000641011       1.547173258       1.929436849
                        -----------------------------------------
Magnitude (a.u.)       :      2.473150229
Magnitude (Debye)      :      6.286248305



--------------------
Rotational spectrum 
--------------------
 
Rotational constants in cm-1:             0.021059             0.010799             0.009686 
Rotational constants in MHz :           631.324079           323.738396           290.374007 

Dipole components along the rotational axes: 
x,y,z [a.u.] :    -0.038436    -2.255819     1.013053 
x,y,z [Debye]:    -0.097697    -5.733835     2.574977 

 

-------------
DIPOLE MOMENT
-------------

Method             : TDA/CIS
Type of density    : Electron Density
Level              : Relaxed density
State              :   2
Multiplicity       :   3
Irrep              :   0
Energy             :     0.0000000000000000 Eh
Relativity type    : 
Basis              : AO
                                X                 Y                 Z
Electronic contribution:     -1.690867748      -9.674965624      -5.689616248
Nuclear contribution   :      1.689713052      11.317412657       7.723996051
                        -----------------------------------------
Total Dipole Moment    :     -0.001154696       1.642447033       2.034379803
                        -----------------------------------------
Magnitude (a.u.)       :      2.614638555
Magnitude (Debye)      :      6.645883050



--------------------
Rotational spectrum 
--------------------
 
Rotational constants in cm-1:             0.021059             0.010799             0.009686 
Rotational constants in MHz :           631.324079           323.738396           290.374007 

Dipole components along the rotational axes: 
x,y,z [a.u.] :    -0.044377    -2.388101     1.063645 
x,y,z [Debye]:    -0.112797    -6.070069     2.703571 

 

Dipole moment calculation done in   0.2 sec 

Maximum memory used throughout the entire PROP-calculation: 80.4 MB
[1738801358.740445] [ohm:3026329:0]        ib_iface.c:1059 UCX  ERROR ibv_create_cq(cqe=256) failed: Connection timed out
[1738801358.751242] [ohm:3026331:0]        ib_iface.c:1059 UCX  ERROR ibv_create_cq(cqe=256) failed: Connection timed out
[1738801358.757992] [ohm:3026347:0]        ib_iface.c:1059 UCX  ERROR ibv_create_cq(cqe=256) failed: Connection timed out
[1738801358.762306] [ohm:3026346:0]        ib_iface.c:1059 UCX  ERROR ibv_create_cq(cqe=256) failed: Connection timed out
[1738801358.763117] [ohm:3026344:0]        ib_iface.c:1059 UCX  ERROR ibv_create_cq(cqe=256) failed: Connection timed out
[1738801358.765788] [ohm:3026330:0]        ib_iface.c:1059 UCX  ERROR ibv_create_cq(cqe=256) failed: Connection timed out
[1738801358.766533] [ohm:3026333:0]        ib_iface.c:1059 UCX  ERROR ibv_create_cq(cqe=256) failed: Connection timed out
[1738801358.766905] [ohm:3026332:0]        ib_iface.c:1059 UCX  ERROR ibv_create_cq(cqe=256) failed: Connection timed out
[1738801358.767330] [ohm:3026366:0]        ib_iface.c:1059 UCX  ERROR ibv_create_cq(cqe=256) failed: Connection timed out
[1738801358.773192] [ohm:3026345:0]        ib_iface.c:1059 UCX  ERROR ibv_create_cq(cqe=256) failed: Connection timed out
[1738801358.776369] [ohm:3026334:0]        ib_iface.c:1059 UCX  ERROR ibv_create_cq(cqe=256) failed: Connection timed out
[1738801358.784414] [ohm:3026341:0]        ib_iface.c:1059 UCX  ERROR ibv_create_cq(cqe=256) failed: Connection timed out
[1738801358.790464] [ohm:3026340:0]        ib_iface.c:1059 UCX  ERROR ibv_create_cq(cqe=256) failed: Connection timed out
[1738801358.790868] [ohm:3026430:0]        ib_iface.c:1059 UCX  ERROR ibv_create_cq(cqe=256) failed: Connection timed out
[1738801358.793160] [ohm:3026349:0]        ib_iface.c:1059 UCX  ERROR ibv_create_cq(cqe=256) failed: Connection timed out
[1738801358.803342] [ohm:3026478:0]        ib_iface.c:1059 UCX  ERROR ibv_create_cq(cqe=256) failed: Connection timed out
[1738801358.807261] [ohm:3026459:0]        ib_iface.c:1059 UCX  ERROR ibv_create_cq(cqe=256) failed: Connection timed out
[1738801358.812427] [ohm:3026401:0]        ib_iface.c:1059 UCX  ERROR ibv_create_cq(cqe=256) failed: Connection timed out
[1738801358.825737] [ohm:3026403:0]        ib_iface.c:1059 UCX  ERROR ibv_create_cq(cqe=256) failed: Connection timed out
[1738801358.857403] [ohm:3026427:0]        ib_iface.c:1059 UCX  ERROR ibv_create_cq(cqe=256) failed: Connection timed out
[1738801358.858168] [ohm:3026350:0]        ib_iface.c:1059 UCX  ERROR ibv_create_cq(cqe=256) failed: Connection timed out
[1738801358.860801] [ohm:3026387:0]        ib_iface.c:1059 UCX  ERROR ibv_create_cq(cqe=256) failed: Connection timed out
[1738801358.861679] [ohm:3026451:0]        ib_iface.c:1059 UCX  ERROR ibv_create_cq(cqe=256) failed: Connection timed out
[1738801358.864010] [ohm:3026441:0]        ib_iface.c:1059 UCX  ERROR ibv_create_cq(cqe=256) failed: Connection timed out
[1738801358.867479] [ohm:3026423:0]        ib_iface.c:1059 UCX  ERROR ibv_create_cq(cqe=256) failed: Connection timed out
[1738801358.884153] [ohm:3026457:0]        ib_iface.c:1059 UCX  ERROR ibv_create_cq(cqe=256) failed: Connection timed out
[1738801358.884476] [ohm:3026393:0]        ib_iface.c:1059 UCX  ERROR ibv_create_cq(cqe=256) failed: Connection timed out
[1738801358.891705] [ohm:3026402:0]        ib_iface.c:1059 UCX  ERROR ibv_create_cq(cqe=256) failed: Connection timed out
[1738801358.894147] [ohm:3026446:0]        ib_iface.c:1059 UCX  ERROR ibv_create_cq(cqe=256) failed: Connection timed out
[1738801358.895917] [ohm:3026475:0]        ib_iface.c:1059 UCX  ERROR ibv_create_cq(cqe=256) failed: Connection timed out
[1738801358.910359] [ohm:3026453:0]        ib_iface.c:1059 UCX  ERROR ibv_create_cq(cqe=256) failed: Connection timed out
[1738801358.911669] [ohm:3026410:0]        ib_iface.c:1059 UCX  ERROR ibv_create_cq(cqe=256) failed: Connection timed out
[1738801358.925427] [ohm:3026399:0]        ib_iface.c:1059 UCX  ERROR ibv_create_cq(cqe=256) failed: Connection timed out
[1738801358.935222] [ohm:3026433:0]        ib_iface.c:1059 UCX  ERROR ibv_create_cq(cqe=256) failed: Connection timed out
[1738801358.938020] [ohm:3026407:0]        ib_iface.c:1059 UCX  ERROR ibv_create_cq(cqe=256) failed: Connection timed out
[1738801358.938497] [ohm:3026437:0]        ib_iface.c:1059 UCX  ERROR ibv_create_cq(cqe=256) failed: Connection timed out
[1738801358.939808] [ohm:3026425:0]        ib_iface.c:1059 UCX  ERROR ibv_create_cq(cqe=256) failed: Connection timed out
[1738801358.940067] [ohm:3026379:0]        ib_iface.c:1059 UCX  ERROR ibv_create_cq(cqe=256) failed: Connection timed out
[1738801358.945309] [ohm:3026413:0]        ib_iface.c:1059 UCX  ERROR ibv_create_cq(cqe=256) failed: Connection timed out
[1738801358.945900] [ohm:3026365:0]        ib_iface.c:1059 UCX  ERROR ibv_create_cq(cqe=256) failed: Connection timed out
[1738801358.949912] [ohm:3026383:0]        ib_iface.c:1059 UCX  ERROR ibv_create_cq(cqe=256) failed: Connection timed out
[1738801358.952298] [ohm:3026404:0]        ib_iface.c:1059 UCX  ERROR ibv_create_cq(cqe=256) failed: Connection timed out
[1738801358.953744] [ohm:3026406:0]        ib_iface.c:1059 UCX  ERROR ibv_create_cq(cqe=256) failed: Connection timed out
[1738801358.958328] [ohm:3026371:0]        ib_iface.c:1059 UCX  ERROR ibv_create_cq(cqe=256) failed: Connection timed out
[1738801358.958824] [ohm:3026465:0]        ib_iface.c:1059 UCX  ERROR ibv_create_cq(cqe=256) failed: Connection timed out
[1738801358.962432] [ohm:3026342:0]        ib_iface.c:1059 UCX  ERROR ibv_create_cq(cqe=256) failed: Connection timed out
[1738801358.972014] [ohm:3026377:0]        ib_iface.c:1059 UCX  ERROR ibv_create_cq(cqe=256) failed: Connection timed out
[1738801358.974733] [ohm:3026368:0]        ib_iface.c:1059 UCX  ERROR ibv_create_cq(cqe=256) failed: Connection timed out
[1738801358.975054] [ohm:3026420:0]        ib_iface.c:1059 UCX  ERROR ibv_create_cq(cqe=256) failed: Connection timed out
[1738801358.983186] [ohm:3026397:0]        ib_iface.c:1059 UCX  ERROR ibv_create_cq(cqe=256) failed: Connection timed out
[1738801358.983744] [ohm:3026417:0]        ib_iface.c:1059 UCX  ERROR ibv_create_cq(cqe=256) failed: Connection timed out
[1738801358.993491] [ohm:3026483:0]        ib_iface.c:1059 UCX  ERROR ibv_create_cq(cqe=256) failed: Connection timed out
[1738801358.994226] [ohm:3026389:0]        ib_iface.c:1059 UCX  ERROR ibv_create_cq(cqe=256) failed: Connection timed out
[1738801359.000869] [ohm:3026348:0]        ib_iface.c:1059 UCX  ERROR ibv_create_cq(cqe=256) failed: Connection timed out
[1738801359.003585] [ohm:3026471:0]        ib_iface.c:1059 UCX  ERROR ibv_create_cq(cqe=256) failed: Connection timed out
[1738801359.006321] [ohm:3026444:0]        ib_iface.c:1059 UCX  ERROR ibv_create_cq(cqe=256) failed: Connection timed out
[1738801359.006963] [ohm:3026400:0]        ib_iface.c:1059 UCX  ERROR ibv_create_cq(cqe=256) failed: Connection timed out
[1738801359.009583] [ohm:3026468:0]        ib_iface.c:1059 UCX  ERROR ibv_create_cq(cqe=256) failed: Connection timed out
[1738801359.015157] [ohm:3026372:0]        ib_iface.c:1059 UCX  ERROR ibv_create_cq(cqe=256) failed: Connection timed out
[1738801359.016814] [ohm:3026364:0]        ib_iface.c:1059 UCX  ERROR ibv_create_cq(cqe=256) failed: Connection timed out
[1738801359.016890] [ohm:3026363:0]        ib_iface.c:1059 UCX  ERROR ibv_create_cq(cqe=256) failed: Connection timed out
[1738801359.017749] [ohm:3026398:0]        ib_iface.c:1059 UCX  ERROR ibv_create_cq(cqe=256) failed: Connection timed out
[1738801359.019463] [ohm:3026395:0]        ib_iface.c:1059 UCX  ERROR ibv_create_cq(cqe=256) failed: Connection timed out
[1738801359.019947] [ohm:3026462:0]        ib_iface.c:1059 UCX  ERROR ibv_create_cq(cqe=256) failed: Connection timed out

--------------------------------
SUGGESTED CITATIONS FOR THIS RUN
--------------------------------

Below you find a list of papers that are relevant to this ORCA run
We neither can nor want to force you to cite these papers, but we appreciate if you do
You receive ORCA, which is the product of decades of hard work by many enthusiastic individuals, for free
The only thing we kindly ask in return is that you cite our papers,
We deeply appreciate it, if you show your appreciation for ORCA by not just citing the generic ORCA reference.

Please note that relegating all ORCA citations to the supporting information does *not* help us.
SI sections are not indexed - citations you put there will not count into any citation statistics
But we need these citations in order to attract the funding resources that allow us to do what we are doing

Therefore, if you are a happy ORCA user, please consider citing a few of the papers listed below in the main body of your paper

In addition to the list printed below, the program has created the file orca.bibtex that contains the list in bibtex format
You can import this file easily into all common literature databanks and citation aid programs


List of essential papers. We consider these as the minimum necessary citations

  1. Neese,F.
     Software update: the ORCA program system, version 5.0
     WIRES Comput. Molec. Sci., 2022 12(1)e1606
     doi.org/10.1002/wcms.1606

List of papers to cite with high priority. The work reported in these papers was absolutely
necessary for this run to complete.
Our perspective: the developers of density functionals and basis sets usually get cited in chemistry papers
Good! But without the algorithms to do something with them, the functionals or basis sets would not do anything.
Hence, in our opinion, the algorithm design and method developments papers are equally worthy of getting cited

  1. Neese,F.; Olbrich,G.
     Efficient use of the resolution of the identity approximation in time-dependent density functional calculations with hybrid density functionals
     Chem. Phys. Lett., 2002 362 170-178
     doi.org/10.1016/s0009-2614(02)01053-9
  2. Neese,F.
     An improvement of the resolution of the identity approximation for the formation of the Coulomb matrix
     J. Comp. Chem., 2003 24(14)1740-1747
     doi.org/10.1002/jcc.10318
  3. Neese,F.; Wennmohs,F.; Hansen,A.; Becker,U.
     Efficient, approximate and parallel Hartree-Fock and hybrid DFT calculations. A 'chain-of-spheres' algorithm for the Hartree-Fock exchange
     Chem. Phys., 2009 356(1-3)98-109
     doi.org/10.1016/j.chemphys.2008.10.036
  4. Petrenko,T.; Kossmann,S.; Neese,F.
     Efficient time-dependent density functional theory approximations for hybrid density functionals: Analytical gradients and parallelization
     J. Chem. Phys., 2011 134 054116
     doi.org/10.1063/1.3533441
  5. Helmich-Paris,B.; de Souza,B.; Neese,F.; Izsák,R.
     An improved chain of spheres for exchange algorithm
     J. Chem. Phys., 2021 155 104109
     doi.org/doi: 10.1063/5.0058766.
  6. Neese,F.
     The SHARK Integral Generation and Digestion System
     J. Comp. Chem., 2022  1-16
     doi.org/10.1002/jcc.26942
  7. Lehtola,S.; Steigemann,C.; Oliveira,M.; Marques,M.
     Recent developments in Libxc - A comprehensive library of functionals for density functional theory
     Software X, 2018 7 
     doi.org/10.1016/j.softx.2017.11.002
  8. Grimme,S.; Antony,J.; Ehrlich,S.; Krieg,H.
     A consistent and accurate ab initio parametrization of density functional dispersion correction (DFT-D) for the 94 elements H-Pu
     J. Chem. Phys., 2010 132 154104-XXXX
     doi.org/10.1063/1.3382344
  9. Grimme,S.; Ehrlich,S.; Goerigk,L.
     Effect of the damping function in dispersion corrected density functional theory
     J. Comput. Chem., 2011 32(7)1456-1465
     doi.org/10.1002/jcc.21759

List of suggested additional citations. These are papers that are important in the 'surrounding' of 
of this run, or papers that preceded the highly important papers. If you like your results we are grateful for a citation.

  1. Izsak,R.; Neese,F.
     An overlap fitted chain of spheres exchange method
     J. Chem. Phys., 2011 135 144105
     doi.org/10.1063/1.3646921
  2. Izsak,R.; Hansen,A.; Neese,F.
     The resolution of identity and chain of spheres approximations for the LPNO-CCSD singles Fock term
     Molec. Phys., 2012 110 2413-2417
     doi.org/10.1080/00268976.2012.687466
  3. Neese,F.
     The ORCA program system
     WIRES Comput. Molec. Sci., 2012 2(1)73-78
     doi.org/10.1002/wcms.81
  4. Izsak,R.; Neese,F.; Klopper,W.
     Robust fitting techniques in the chain of spheres approximation to the Fock exchange: The role of the complementary space
     J. Chem. Phys., 2013 139 
     doi.org/10.1063/1.4819264
  5. Neese,F.
     Software update: the ORCA program system, version 4.0
     WIRES Comput. Molec. Sci., 2018 8(1)1-6
     doi.org/10.1002/wcms.1327
  6. Neese,F.; Wennmohs,F.; Becker,U.; Riplinger,C.
     The ORCA quantum chemistry program package
     J. Chem. Phys., 2020 152 Art. No. L224108
     doi.org/10.1063/5.0004608

List of optional additional citations

  1. Neese,F.
     Approximate second-order SCF convergence for spin unrestricted wavefunctions
     Chem. Phys. Lett., 2000 325(1-3)93-98
     doi.org/10.1016/s0009-2614(00)00662-x

Timings for individual modules:

Sum of individual times          ...      258.523 sec (=   4.309 min)
Startup calculation              ...        6.202 sec (=   0.103 min)   2.4 %
SCF iterations                   ...      117.218 sec (=   1.954 min)  45.3 %
Property integrals               ...        4.107 sec (=   0.068 min)   1.6 %
Property calculations            ...        2.960 sec (=   0.049 min)   1.1 %
CIS module                       ...      128.035 sec (=   2.134 min)  49.5 %
                             ****ORCA TERMINATED NORMALLY****
TOTAL RUN TIME: 0 days 0 hours 4 minutes 20 seconds 537 msec
