
                                 *****************
                                 * O   R   C   A *
                                 *****************

                                            #,                                       
                                            ###                                      
                                            ####                                     
                                            #####                                    
                                            ######                                   
                                           ########,                                 
                                     ,,################,,,,,                         
                               ,,#################################,,                 
                          ,,##########################################,,             
                       ,#########################################, ''#####,          
                    ,#############################################,,   '####,        
                  ,##################################################,,,,####,       
                ,###########''''           ''''###############################       
              ,#####''   ,,,,##########,,,,          '''####'''          '####       
            ,##' ,,,,###########################,,,                        '##       
           ' ,,###''''                  '''############,,,                           
         ,,##''                                '''############,,,,        ,,,,,,###''
      ,#''                                            '''#######################'''  
     '                                                          ''''####''''         
             ,#######,   #######,   ,#######,      ##                                
            ,#'     '#,  ##    ##  ,#'     '#,    #''#        ,####,   ,####,        
            ##       ##  ##   ,#'  ##            #'  '#       #'       #'  '#        
            ##       ##  #######   ##           ,######,      #####,   #    #        
            '#,     ,#'  ##    ##  '#,     ,#' ,#      #,     #,   #   #,  ,#        
             '#######'   ##     ##  '#######'  #'      '#     '####' # '####'        



                #########################################################
                #                        -***-                          #
                #          Department of theory and spectroscopy        #
                #                                                       #
                #                      Frank Neese                      #
                #                                                       #
                #     Directorship, Architecture, Infrastructure        #
                #                    SHARK, DRIVERS                     #
                #        Core code/Algorithms in most modules           #
                #                                                       #
                #        Max Planck Institute fuer Kohlenforschung      #
                #                Kaiser Wilhelm Platz 1                 #
                #                 D-45470 Muelheim/Ruhr                 #
                #                      Germany                          #
                #                                                       #
                #                  All rights reserved                  #
                #                        -***-                          #
                #########################################################


                         Program Version 6.0.0  -   RELEASE  -


 With contributions from (in alphabetic order):
   Daniel Aravena         : Magnetic Suceptibility
   Michael Atanasov       : Ab Initio Ligand Field Theory (pilot matlab implementation)
   Alexander A. Auer      : GIAO ZORA, VPT2 properties, NMR spectrum
   Ute Becker             : All parallelization in ORCA, NUMFREQ, NUMCALC
   Giovanni Bistoni       : ED, misc. LED, open-shell LED, HFLD
   Martin Brehm           : Molecular dynamics
   Dmytro Bykov           : pre 5.0 version of the SCF Hessian
   Marcos Casanova-Páez   : Triplet and SCS-CIS(D). UHF-(DLPNO)-IP/EA/STEOM-CCSD. UHF-CVS-IP/STEOM-CCSD
   Vijay G. Chilkuri      : MRCI spin determinant printing, contributions to CSF-ICE
   Pauline Colinet        : FMM embedding
   Dipayan Datta          : RHF DLPNO-CCSD density
   Achintya Kumar Dutta   : EOM-CC, STEOM-CC
   Nicolas Foglia         : Exact transition moments, OPA infrastructure, MCD improvements
   Dmitry Ganyushin       : Spin-Orbit,Spin-Spin,Magnetic field MRCI
   Miquel Garcia          : C-PCM and meta-GGA Hessian, CCSD/C-PCM, Gaussian charge scheme
   Tiago L. C. Gouveia    : GS-ROHF, GS-ROCIS
   Yang Guo               : DLPNO-NEVPT2, F12-NEVPT2, CIM, IAO-localization
   Andreas Hansen         : Spin unrestricted coupled pair/coupled cluster methods
   Ingolf Harden          : AUTO-CI MPn and infrastructure 
   Benjamin Helmich-Paris : MC-RPA, TRAH-(SCF,CASSCF), AVAS, COSX integrals, SCF dyn. polar.
   Lee Huntington         : MR-EOM, pCC
   Robert Izsak           : Overlap fitted RIJCOSX, COSX-SCS-MP3, EOM
   Riya Kayal             : Wick's Theorem for AUTO-CI, AUTO-CI UHF-CCSDT
   Emily Kempfer          : AUTO-CI, RHF CISDT and CCSDT
   Christian Kollmar      : KDIIS, OOCD, Brueckner-CCSD(T), CCSD density, CASPT2, CASPT2-K, improved NEVPT2
   Axel Koslowski         : Symmetry handling
   Simone Kossmann        : Meta GGA functionals, TD-DFT gradient, OOMP2, (MP2 Hessian; deprecated post 5.0)
   Lucas Lang             : DCDCAS
   Marvin Lechner         : AUTO-CI (C++ implementation), FIC-MRCC
   Spencer Leger          : CASSCF response
   Dagmar Lenk            : GEPOL surface, SMD, ORCA-2-JSON
   Dimitrios Liakos       : Extrapolation schemes; Compound Job, initial MDCI parallelization
   Dimitrios Manganas     : Further ROCIS development; embedding schemes. LFT, Crystal Embedding
   Dimitrios Pantazis     : SARC Basis sets
   Anastasios Papadopoulos: AUTO-CI, single reference methods and gradients
   Taras Petrenko         : pre 6.0 DFT Hessian and TD-DFT gradient, (ASA, deprecated), ECA, 1-Electron XAS/XES, NRVS
   Peter Pinski           : DLPNO-MP2, DLPNO-MP2 Gradient
   Christoph Reimann      : Effective Core Potentials
   Marius Retegan         : Local ZFS, SOC
   Christoph Riplinger    : Optimizer, TS searches, QM/MM, DLPNO-CCSD(T), (RO)-DLPNO pert. Triples
   Michael Roemelt        : Original ROCIS implementation
   Masaaki Saitow         : Open-shell DLPNO-CCSD energy and density
   Barbara Sandhoefer     : DKH picture change effects
   Kantharuban Sivalingam : CASSCF convergence/infrastructure, NEVPT2 and variants, FIC-MRCI
   Bernardo de Souza      : ESD, SOC TD-DFT
   Georgi Stoychev        : AutoAux, RI-MP2 NMR, DLPNO-MP2 response, X2C
   Van Anh Tran           : RI-MP2 g-tensors
   Willem Van den Heuvel  : Paramagnetic NMR
   Zikuan Wang            : NOTCH, Electric field optimization 
   Frank Wennmohs         : Technical directorship and infrastructure
   Hang Xu                : AUTO-CI-Response properties 


 We gratefully acknowledge several colleagues who have allowed us to
 interface, adapt or use parts of their codes:
   Stefan Grimme, W. Hujo, H. Kruse, P. Pracht,  : VdW corrections, initial TS optimization,
                  C. Bannwarth, S. Ehlert,         DFT functionals, gCP, sTDA/sTD-DF
                  L. Wittmann, M. Mueller
   Ed Valeev, F. Pavosevic, A. Kumar             : LibInt (2-el integral package), F12 methods
   Garnet Chan, S. Sharma, J. Yang, R. Olivares  : DMRG
   Ulf Ekstrom                                   : XCFun DFT Library
   Mihaly Kallay                                 : mrcc  (arbitrary order and MRCC methods)
   Frank Weinhold                                : gennbo (NPA and NBO analysis)
   Simon Mueller                                 : openCOSMO-RS
   Christopher J. Cramer and Donald G. Truhlar   : smd solvation model
   Lars Goerigk                                  : TD-DFT with DH, B97 family of functionals
   V. Asgeirsson, H. Jonsson                     : NEB implementation
   FAccTs GmbH                                   : IRC, NEB, NEB-TS, DLPNO-Multilevel, CI-OPT
                                                   MM, QMMM, 2- and 3-layer-ONIOM, Crystal-QMMM,
                                                   LR-CPCM, SF, NACMEs, symmetry and pop. for TD-DFT,
                                                   nearIR, NL-DFT gradient (VV10), updates on ESD,
                                                   ML-optimized integration grids, MBIS, APM,
                                                   GOAT, DOCKER, SOLVATOR, interface openCOSMO-RS
   S Lehtola, MJT Oliveira, MAL Marques          : LibXC Library
   Liviu Ungur et al                             : ANISO software


 Your calculation uses the libint2 library for the computation of 2-el integrals
 For citations please refer to: http://libint.valeyev.net

 Your ORCA version has been built with support for libXC version: 6.2.2
 For citations please refer to: https://libxc.gitlab.io

 This ORCA versions uses:
   CBLAS   interface :  Fast vector & matrix operations
   LAPACKE interface :  Fast linear algebra routines
   SCALAPACK package :  Parallel linear algebra routines
   Shared memory     :  Shared parallel matrices
   BLAS/LAPACK       :  OpenBLAS 0.3.27  USE64BITINT DYNAMIC_ARCH NO_AFFINITY Zen SINGLE_THREADED
        Core in use  :  Zen
   Copyright (c) 2011-2014, The OpenBLAS Project


Your calculation utilizes the atom-pairwise dispersion correction
with the Becke-Johnson damping scheme (D3BJ)


Warning: RI is on but no J-basis has been assigned. Assigning Def2/J (nothing to worry about!)
================================================================================

----- Orbital basis set information -----
Your calculation utilizes the basis: def2-TZVPPD
   F. Weigend and R. Ahlrichs, Phys. Chem. Chem. Phys. 7, 3297 (2005).
   D. Rappoport and F. Furche, J. Chem. Phys. 133, 134105 (2010)
   D. Rappoport, J. Chem. Phys. 155, 124102 (2021).

----- AuxJ basis set information -----
Your calculation utilizes the auxiliary basis: def2/J
   F. Weigend, Phys. Chem. Chem. Phys. 8, 1057 (2006).

================================================================================
                                        WARNINGS
                       Please study these warnings very carefully!
================================================================================

Using LibXC functional ID 531 : wB97M-V exchange-correlation functional
[ 1]  N. Mardirossian and M. Head-Gordon.,  J. Chem. Phys. 144, 214110 (2016)
Using LibXC functional ID 531 : wB97M-V exchange-correlation functional
[ 1]  N. Mardirossian and M. Head-Gordon.,  J. Chem. Phys. 144, 214110 (2016)

WARNING: B97M-V or wB97M-V functional requested.
  ===> : libXC variant has now been activated.
         Any manually given DFX/HFX/RangeSep scaling parameters are IGNORED!

Your calculation utilizes LibXC
 by S Lehtola, C Steigemann, MJT Oliveira & MAL Marques
Please cite in your paper:
 S Lehtola, C Steigemann, MJT Oliveira & MAL Marques, SoftwareX, 7, (2018), 1.
   


WARNING: your system is open-shell and RHF/RKS was chosen
  ===> : WILL SWITCH to UHF/UKS

INFO   : Checking CIS options ...

WARNING: CIS/ROCIS methods need fully converged wavefunctions
  ===> : Setting SCFConvForced true
         You can overwrite this default with %scf ConvForced false 


================================================================================
                                       INPUT FILE
================================================================================
NAME = orca.inp
|  1> ! Engrad def2-TZVPPD wB97M-D3BJ 
|  2> %pal nprocs 8 end%pal nprocs 64 end 
|  3> %tddft 
|  4>  Iroot 1 Nroots 3 
|  5> sf true 
|  6> end 
|  7> *xyz 0 3 
|  8> O   1.36022236 0.53143326 0.57985427
|  9> C   0.05455675 0.44569096 0.14502652
| 10> C   -0.16747601 -0.82704125 -0.56851851
| 11> H   -0.42236549 1.30579711 -0.47582689
| 12> H   -0.74420096 0.4178102 1.01176024
| 13> H   -1.10112214 -1.09400772 -0.96314032
| 14> H   0.61741082 -1.61161491 -0.54316086
| 15> *
| 16> 
| 17>                          ****END OF INPUT****
================================================================================

                     *******************************
                     * Energy+Gradient Calculation *
                     *******************************

---------------------------------
CARTESIAN COORDINATES (ANGSTROEM)
---------------------------------
  O      1.360222    0.531433    0.579854
  C      0.054557    0.445691    0.145027
  C     -0.167476   -0.827041   -0.568519
  H     -0.422365    1.305797   -0.475827
  H     -0.744201    0.417810    1.011760
  H     -1.101122   -1.094008   -0.963140
  H      0.617411   -1.611615   -0.543161

----------------------------
CARTESIAN COORDINATES (A.U.)
----------------------------
  NO LB      ZA    FRAG     MASS         X           Y           Z
   0 O     8.0000    0    15.999    2.570448    1.004263    1.095766
   1 C     6.0000    0    12.011    0.103097    0.842234    0.274060
   2 C     6.0000    0    12.011   -0.316484   -1.562881   -1.074344
   3 H     1.0000    0     1.008   -0.798155    2.467599   -0.899183
   4 H     1.0000    0     1.008   -1.406336    0.789547    1.911950
   5 H     1.0000    0     1.008   -2.080819   -2.067375   -1.820071
   6 H     1.0000    0     1.008    1.166737   -3.045511   -1.026425

--------------------------------
INTERNAL COORDINATES (ANGSTROEM)
--------------------------------
 O      0   0   0     0.000000000000     0.00000000     0.00000000
 C      1   0   0     1.378836320713     0.00000000     0.00000000
 C      2   1   0     1.475903904298   110.39826269     0.00000000
 H      2   1   3     1.163054757517   120.70745584   232.01845020
 H      2   1   3     1.178990482340   114.27869610   116.13992639
 H      3   2   1     1.048185367717   122.38780843   178.83703653
 H      3   2   1     1.110065842321   119.47691322     9.69789849

---------------------------
INTERNAL COORDINATES (A.U.)
---------------------------
 O      0   0   0     0.000000000000     0.00000000     0.00000000
 C      1   0   0     2.605623029650     0.00000000     0.00000000
 C      2   1   0     2.789054179109   110.39826269     0.00000000
 H      2   1   3     2.197854970461   120.70745584   232.01845020
 H      2   1   3     2.227969126122   114.27869610   116.13992639
 H      3   2   1     1.980783282569   122.38780843   178.83703653
 H      3   2   1     2.097720432606   119.47691322     9.69789849

---------------------
BASIS SET INFORMATION
---------------------
There are 3 groups of distinct atoms

 Group   1 Type O   : 12s7p3d1f contracted to 6s4p3d1f pattern {621111/4111/111/1}
 Group   2 Type C   : 12s6p3d1f contracted to 6s3p3d1f pattern {621111/411/111/1}
 Group   3 Type H   : 5s3p1d contracted to 3s3p1d pattern {311/111/1}

Atom   0O    basis set group =>   1
Atom   1C    basis set group =>   2
Atom   2C    basis set group =>   2
Atom   3H    basis set group =>   3
Atom   4H    basis set group =>   3
Atom   5H    basis set group =>   3
Atom   6H    basis set group =>   3
---------------------------------
AUXILIARY/J BASIS SET INFORMATION
---------------------------------
There are 3 groups of distinct atoms

 Group   1 Type O   : 12s5p4d2f1g contracted to 6s4p3d1f1g pattern {711111/2111/211/2/1}
 Group   2 Type C   : 12s5p4d2f1g contracted to 6s4p3d1f1g pattern {711111/2111/211/2/1}
 Group   3 Type H   : 5s2p1d contracted to 3s1p1d pattern {311/2/1}

Atom   0O    basis set group =>   1
Atom   1C    basis set group =>   2
Atom   2C    basis set group =>   2
Atom   3H    basis set group =>   3
Atom   4H    basis set group =>   3
Atom   5H    basis set group =>   3
Atom   6H    basis set group =>   3
[1741608655.286734] [ohm:3247871:0]        ib_iface.c:1059 UCX  ERROR ibv_create_cq(cqe=256) failed: Connection timed out
[1741608655.288856] [ohm:3247867:0]        ib_iface.c:1059 UCX  ERROR ibv_create_cq(cqe=256) failed: Connection timed out
[1741608655.290666] [ohm:3247870:0]        ib_iface.c:1059 UCX  ERROR ibv_create_cq(cqe=256) failed: Connection timed out
[1741608655.315831] [ohm:3247865:0]        ib_iface.c:1059 UCX  ERROR ibv_create_cq(cqe=256) failed: Connection timed out
[1741608655.317521] [ohm:3247866:0]        ib_iface.c:1059 UCX  ERROR ibv_create_cq(cqe=256) failed: Connection timed out
[1741608655.365126] [ohm:3247908:0]        ib_iface.c:1059 UCX  ERROR ibv_create_cq(cqe=256) failed: Connection timed out
[1741608655.368085] [ohm:3247869:0]        ib_iface.c:1059 UCX  ERROR ibv_create_cq(cqe=256) failed: Connection timed out
[1741608655.369125] [ohm:3247912:0]        ib_iface.c:1059 UCX  ERROR ibv_create_cq(cqe=256) failed: Connection timed out
[1741608655.371189] [ohm:3247915:0]        ib_iface.c:1059 UCX  ERROR ibv_create_cq(cqe=256) failed: Connection timed out
[1741608655.374057] [ohm:3247864:0]        ib_iface.c:1059 UCX  ERROR ibv_create_cq(cqe=256) failed: Connection timed out
[1741608655.375043] [ohm:3247896:0]        ib_iface.c:1059 UCX  ERROR ibv_create_cq(cqe=256) failed: Connection timed out
[1741608655.376889] [ohm:3247921:0]        ib_iface.c:1059 UCX  ERROR ibv_create_cq(cqe=256) failed: Connection timed out
[1741608655.381666] [ohm:3247873:0]        ib_iface.c:1059 UCX  ERROR ibv_create_cq(cqe=256) failed: Connection timed out
[1741608655.388631] [ohm:3247920:0]        ib_iface.c:1059 UCX  ERROR ibv_create_cq(cqe=256) failed: Connection timed out
[1741608655.414000] [ohm:3247876:0]        ib_iface.c:1059 UCX  ERROR ibv_create_cq(cqe=256) failed: Connection timed out
[1741608655.414022] [ohm:3247894:0]        ib_iface.c:1059 UCX  ERROR ibv_create_cq(cqe=256) failed: Connection timed out
[1741608655.419210] [ohm:3247914:0]        ib_iface.c:1059 UCX  ERROR ibv_create_cq(cqe=256) failed: Connection timed out
[1741608655.425658] [ohm:3247874:0]        ib_iface.c:1059 UCX  ERROR ibv_create_cq(cqe=256) failed: Connection timed out
[1741608655.457829] [ohm:3247913:0]        ib_iface.c:1059 UCX  ERROR ibv_create_cq(cqe=256) failed: Connection timed out
[1741608655.471417] [ohm:3247877:0]        ib_iface.c:1059 UCX  ERROR ibv_create_cq(cqe=256) failed: Connection timed out
[1741608655.473571] [ohm:3247969:0]        ib_iface.c:1059 UCX  ERROR ibv_create_cq(cqe=256) failed: Connection timed out
[1741608655.478149] [ohm:3247910:0]        ib_iface.c:1059 UCX  ERROR ibv_create_cq(cqe=256) failed: Connection timed out
[1741608655.480010] [ohm:3247927:0]        ib_iface.c:1059 UCX  ERROR ibv_create_cq(cqe=256) failed: Connection timed out
[1741608655.481705] [ohm:3247875:0]        ib_iface.c:1059 UCX  ERROR ibv_create_cq(cqe=256) failed: Connection timed out
[1741608655.486716] [ohm:3247918:0]        ib_iface.c:1059 UCX  ERROR ibv_create_cq(cqe=256) failed: Connection timed out
[1741608655.500459] [ohm:3247898:0]        ib_iface.c:1059 UCX  ERROR ibv_create_cq(cqe=256) failed: Connection timed out
[1741608655.515188] [ohm:3247902:0]        ib_iface.c:1059 UCX  ERROR ibv_create_cq(cqe=256) failed: Connection timed out
[1741608655.520786] [ohm:3247926:0]        ib_iface.c:1059 UCX  ERROR ibv_create_cq(cqe=256) failed: Connection timed out
[1741608655.525698] [ohm:3247923:0]        ib_iface.c:1059 UCX  ERROR ibv_create_cq(cqe=256) failed: Connection timed out
[1741608655.529994] [ohm:3247919:0]        ib_iface.c:1059 UCX  ERROR ibv_create_cq(cqe=256) failed: Connection timed out
[1741608655.532296] [ohm:3247924:0]        ib_iface.c:1059 UCX  ERROR ibv_create_cq(cqe=256) failed: Connection timed out
[1741608655.537498] [ohm:3247916:0]        ib_iface.c:1059 UCX  ERROR ibv_create_cq(cqe=256) failed: Connection timed out
[1741608655.562589] [ohm:3247961:0]        ib_iface.c:1059 UCX  ERROR ibv_create_cq(cqe=256) failed: Connection timed out
[1741608655.579031] [ohm:3247941:0]        ib_iface.c:1059 UCX  ERROR ibv_create_cq(cqe=256) failed: Connection timed out
[1741608655.579887] [ohm:3247872:0]        ib_iface.c:1059 UCX  ERROR ibv_create_cq(cqe=256) failed: Connection timed out
[1741608655.586630] [ohm:3247925:0]        ib_iface.c:1059 UCX  ERROR ibv_create_cq(cqe=256) failed: Connection timed out
[1741608655.602019] [ohm:3247982:0]        ib_iface.c:1059 UCX  ERROR ibv_create_cq(cqe=256) failed: Connection timed out
[1741608655.608789] [ohm:3247979:0]        ib_iface.c:1059 UCX  ERROR ibv_create_cq(cqe=256) failed: Connection timed out
[1741608655.609991] [ohm:3248005:0]        ib_iface.c:1059 UCX  ERROR ibv_create_cq(cqe=256) failed: Connection timed out
[1741608655.613074] [ohm:3248020:0]        ib_iface.c:1059 UCX  ERROR ibv_create_cq(cqe=256) failed: Connection timed out
[1741608655.614230] [ohm:3247946:0]        ib_iface.c:1059 UCX  ERROR ibv_create_cq(cqe=256) failed: Connection timed out
[1741608655.619411] [ohm:3247973:0]        ib_iface.c:1059 UCX  ERROR ibv_create_cq(cqe=256) failed: Connection timed out
[1741608655.632375] [ohm:3247991:0]        ib_iface.c:1059 UCX  ERROR ibv_create_cq(cqe=256) failed: Connection timed out
[1741608655.636893] [ohm:3247931:0]        ib_iface.c:1059 UCX  ERROR ibv_create_cq(cqe=256) failed: Connection timed out
[1741608655.640246] [ohm:3247975:0]        ib_iface.c:1059 UCX  ERROR ibv_create_cq(cqe=256) failed: Connection timed out
[1741608655.640673] [ohm:3247957:0]        ib_iface.c:1059 UCX  ERROR ibv_create_cq(cqe=256) failed: Connection timed out
[1741608655.644372] [ohm:3247936:0]        ib_iface.c:1059 UCX  ERROR ibv_create_cq(cqe=256) failed: Connection timed out
[1741608655.645037] [ohm:3248017:0]        ib_iface.c:1059 UCX  ERROR ibv_create_cq(cqe=256) failed: Connection timed out
[1741608655.646367] [ohm:3247917:0]        ib_iface.c:1059 UCX  ERROR ibv_create_cq(cqe=256) failed: Connection timed out
[1741608655.654379] [ohm:3248011:0]        ib_iface.c:1059 UCX  ERROR ibv_create_cq(cqe=256) failed: Connection timed out
[1741608655.654669] [ohm:3247934:0]        ib_iface.c:1059 UCX  ERROR ibv_create_cq(cqe=256) failed: Connection timed out
[1741608655.656257] [ohm:3247943:0]        ib_iface.c:1059 UCX  ERROR ibv_create_cq(cqe=256) failed: Connection timed out
[1741608655.656699] [ohm:3247928:0]        ib_iface.c:1059 UCX  ERROR ibv_create_cq(cqe=256) failed: Connection timed out
[1741608655.658651] [ohm:3247868:0]        ib_iface.c:1059 UCX  ERROR ibv_create_cq(cqe=256) failed: Connection timed out
[1741608655.660590] [ohm:3247998:0]        ib_iface.c:1059 UCX  ERROR ibv_create_cq(cqe=256) failed: Connection timed out
[1741608655.666132] [ohm:3247953:0]        ib_iface.c:1059 UCX  ERROR ibv_create_cq(cqe=256) failed: Connection timed out
[1741608655.666514] [ohm:3247964:0]        ib_iface.c:1059 UCX  ERROR ibv_create_cq(cqe=256) failed: Connection timed out
[1741608655.666892] [ohm:3247995:0]        ib_iface.c:1059 UCX  ERROR ibv_create_cq(cqe=256) failed: Connection timed out
[1741608655.667653] [ohm:3248014:0]        ib_iface.c:1059 UCX  ERROR ibv_create_cq(cqe=256) failed: Connection timed out
[1741608655.668110] [ohm:3247929:0]        ib_iface.c:1059 UCX  ERROR ibv_create_cq(cqe=256) failed: Connection timed out
[1741608655.670904] [ohm:3247987:0]        ib_iface.c:1059 UCX  ERROR ibv_create_cq(cqe=256) failed: Connection timed out
[1741608655.671040] [ohm:3247950:0]        ib_iface.c:1059 UCX  ERROR ibv_create_cq(cqe=256) failed: Connection timed out
[1741608655.671745] [ohm:3248002:0]        ib_iface.c:1059 UCX  ERROR ibv_create_cq(cqe=256) failed: Connection timed out
[1741608655.671948] [ohm:3247922:0]        ib_iface.c:1059 UCX  ERROR ibv_create_cq(cqe=256) failed: Connection timed out


           ************************************************************
           *        Program running with 64 parallel MPI-processes    *
           *              working on a common directory               *
           ************************************************************
------------------------------------------------------------------------------
                             ORCA STARTUP CALCULATIONS
                           -- RI-GTO INTEGRALS CHOSEN --
------------------------------------------------------------------------------
------------------------------------------------------------------------------
                   ___                                                        
                  /   \      - P O W E R E D   B Y -                         
                 /     \                                                     
                 |  |  |   _    _      __       _____    __    __             
                 |  |  |  | |  | |    /  \     |  _  \  |  |  /  |          
                  \  \/   | |  | |   /    \    | | | |  |  | /  /          
                 / \  \   | |__| |  /  /\  \   | |_| |  |  |/  /          
                |  |  |   |  __  | /  /__\  \  |    /   |      \           
                |  |  |   | |  | | |   __   |  |    \   |  |\   \          
                \     /   | |  | | |  |  |  |  | |\  \  |  | \   \       
                 \___/    |_|  |_| |__|  |__|  |_| \__\ |__|  \__/        
                                                                              
                      - O R C A' S   B I G   F R I E N D -                    
                                      &                                       
                       - I N T E G R A L  F E E D E R -                       
                                                                              
 v1 FN, 2020, v2 2021, v3 2022-2024                                           
------------------------------------------------------------------------------


----------------------
SHARK INTEGRAL PACKAGE
----------------------

Number of atoms                             ...      7
Number of basis functions                   ...    182
Number of shells                            ...     68
Maximum angular momentum                    ...      3
Integral batch strategy                     ... SHARK/LIBINT Hybrid
RI-J (if used) integral strategy            ... SPLIT-RIJ (Revised 2003 algorithm where possible)
Printlevel                                  ...      1
Contraction scheme used                     ... SEGMENTED contraction
Prescreening option                         ... SCHWARTZ
   Thresh                                   ... 2.500e-11
   Tcut                                     ... 2.500e-12
   Tpresel                                  ... 2.500e-12 
Coulomb Range Separation                    ... NOT USED
Exchange Range Separation                   ... Long Range
   Mu parameter                             ... 3.000e-01
   Scaling (regular/separated)              ... 1.500e-01 8.500e-01
Multipole approximations                    ... NOT USED
Finite Nucleus Model                        ... NOT USED
CABS basis                                  ... NOT available
Auxiliary Coulomb fitting basis             ... AVAILABLE
   # of basis functions in Aux-J            ...    191
   # of shells in Aux-J                     ...     65
   Maximum angular momentum in Aux-J        ...      4
Auxiliary J/K fitting basis                 ... NOT available
Auxiliary Correlation fitting basis         ... NOT available
Auxiliary 'external' fitting basis          ... NOT available

Checking pre-screening integrals            ... done (  0.0 sec) Dimension = 68
Check shell pair data                       ... done (  0.0 sec)
Shell pair information
Shell pair cut-off parameter TPreSel        ...   2.5e-12
Total number of shell pairs                 ...      2346
Shell pairs after pre-screening             ...      2329
Total number of primitive shell pairs       ...      5434
Primitive shell pairs kept                  ...      4825
          la=0 lb=0:    456 shell pairs
          la=1 lb=0:    657 shell pairs
          la=1 lb=1:    253 shell pairs
          la=2 lb=0:    386 shell pairs
          la=2 lb=1:    285 shell pairs
          la=2 lb=2:     91 shell pairs
          la=3 lb=0:     90 shell pairs
          la=3 lb=1:     66 shell pairs
          la=3 lb=2:     39 shell pairs
          la=3 lb=3:      6 shell pairs

Calculating one electron integrals          ... done (  0.0 sec)
Calculating RI/J V-Matrix + Cholesky decomp.... done (  0.0 sec)
Calculating Nuclear repulsion               ... done (  0.0 sec) ENN=     67.500424952360 Eh

Diagonalization of the overlap matrix:
Smallest eigenvalue                        ... 1.967e-05
Time for diagonalization                   ...    0.003 sec
Threshold for overlap eigenvalues          ... 1.000e-07
Number of eigenvalues below threshold      ... 0
Time for construction of square roots      ...    0.003 sec
Total time needed                          ...    0.008 sec

-------------------
DFT GRID GENERATION
-------------------

General Integration Accuracy     IntAcc      ... 4.388
Radial Grid Type                 RadialGrid  ... OptM3 with GC (2021)
Angular Grid (max. ang.)         AngularGrid ... 4 (Lebedev-302)
Angular grid pruning method      GridPruning ... 4 (adaptive)
Weight generation scheme         WeightScheme... mBecke (2022)
Basis function cutoff            BFCut       ... 1.0000e-11
Integration weight cutoff        WCut        ... 1.0000e-14
Partially contracted basis set               ... off
Rotationally invariant grid construction     ... off
Angular grids for H and He will be reduced by one unit
Diffuse basis detected: some atoms will have their outermost
                        angular grid increased by 1.

Total number of grid points                  ...    33169
Total number of batches                      ...      521
Average number of points per batch           ...       63
Average number of grid points per atom       ...     4738

--------------------
COSX GRID GENERATION
--------------------

GRIDX 1
-------
General Integration Accuracy     IntAcc      ... 3.816
Radial Grid Type                 RadialGrid  ... OptM3 with GC (2021)
Angular Grid (max. ang.)         AngularGrid ... 1 (Lebedev-50)
Angular grid pruning method      GridPruning ... 4 (adaptive)
Weight generation scheme         WeightScheme... mBecke (2022)
Basis function cutoff            BFCut       ... 1.0000e-11
Integration weight cutoff        WCut        ... 1.0000e-14
Partially contracted basis set               ... on
Rotationally invariant grid construction     ... off
Angular grids for H and He will be reduced by one unit
Diffuse basis detected: some atoms will have their outermost
                        angular grid increased by 1.

Total number of grid points                  ...     4161
Total number of batches                      ...       37
Average number of points per batch           ...      112
Average number of grid points per atom       ...      594
UseSFitting                                  ... on

GRIDX 2
-------
General Integration Accuracy     IntAcc      ... 4.020
Radial Grid Type                 RadialGrid  ... OptM3 with GC (2021)
Angular Grid (max. ang.)         AngularGrid ... 2 (Lebedev-110)
Angular grid pruning method      GridPruning ... 4 (adaptive)
Weight generation scheme         WeightScheme... mBecke (2022)
Basis function cutoff            BFCut       ... 1.0000e-11
Integration weight cutoff        WCut        ... 1.0000e-14
Partially contracted basis set               ... on
Rotationally invariant grid construction     ... off
Angular grids for H and He will be reduced by one unit
Diffuse basis detected: some atoms will have their outermost
                        angular grid increased by 1.

Total number of grid points                  ...    10305
Total number of batches                      ...       85
Average number of points per batch           ...      121
Average number of grid points per atom       ...     1472
UseSFitting                                  ... on

GRIDX 3
-------
General Integration Accuracy     IntAcc      ... 4.338
Radial Grid Type                 RadialGrid  ... OptM3 with GC (2021)
Angular Grid (max. ang.)         AngularGrid ... 3 (Lebedev-194)
Angular grid pruning method      GridPruning ... 4 (adaptive)
Weight generation scheme         WeightScheme... mBecke (2022)
Basis function cutoff            BFCut       ... 1.0000e-11
Integration weight cutoff        WCut        ... 1.0000e-14
Partially contracted basis set               ... on
Rotationally invariant grid construction     ... off
Angular grids for H and He will be reduced by one unit
Diffuse basis detected: some atoms will have their outermost
                        angular grid increased by 1.

Total number of grid points                  ...    23113
Total number of batches                      ...      185
Average number of points per batch           ...      124
Average number of grid points per atom       ...     3302
UseSFitting                                  ... on
Initializing property integral containers    ... done (  0.0 sec)

SHARK setup successfully completed in   0.4 seconds

Maximum memory used throughout the entire STARTUP-calculation: 13.8 MB
[1741608657.763525] [ohm:3248318:0]        ib_iface.c:1059 UCX  ERROR ibv_create_cq(cqe=256) failed: Connection timed out
[1741608657.767864] [ohm:3248312:0]        ib_iface.c:1059 UCX  ERROR ibv_create_cq(cqe=256) failed: Connection timed out
[1741608657.778795] [ohm:3248322:0]        ib_iface.c:1059 UCX  ERROR ibv_create_cq(cqe=256) failed: Connection timed out
[1741608657.782759] [ohm:3248321:0]        ib_iface.c:1059 UCX  ERROR ibv_create_cq(cqe=256) failed: Connection timed out
[1741608657.791963] [ohm:3248335:0]        ib_iface.c:1059 UCX  ERROR ibv_create_cq(cqe=256) failed: Connection timed out
[1741608657.798748] [ohm:3248315:0]        ib_iface.c:1059 UCX  ERROR ibv_create_cq(cqe=256) failed: Connection timed out
[1741608657.798961] [ohm:3248339:0]        ib_iface.c:1059 UCX  ERROR ibv_create_cq(cqe=256) failed: Connection timed out
[1741608657.801980] [ohm:3248320:0]        ib_iface.c:1059 UCX  ERROR ibv_create_cq(cqe=256) failed: Connection timed out
[1741608657.806782] [ohm:3248311:0]        ib_iface.c:1059 UCX  ERROR ibv_create_cq(cqe=256) failed: Connection timed out
[1741608657.810114] [ohm:3248314:0]        ib_iface.c:1059 UCX  ERROR ibv_create_cq(cqe=256) failed: Connection timed out
[1741608657.831335] [ohm:3248343:0]        ib_iface.c:1059 UCX  ERROR ibv_create_cq(cqe=256) failed: Connection timed out
[1741608657.835009] [ohm:3248381:0]        ib_iface.c:1059 UCX  ERROR ibv_create_cq(cqe=256) failed: Connection timed out
[1741608657.835186] [ohm:3248372:0]        ib_iface.c:1059 UCX  ERROR ibv_create_cq(cqe=256) failed: Connection timed out
[1741608657.847289] [ohm:3248313:0]        ib_iface.c:1059 UCX  ERROR ibv_create_cq(cqe=256) failed: Connection timed out
[1741608657.850829] [ohm:3248418:0]        ib_iface.c:1059 UCX  ERROR ibv_create_cq(cqe=256) failed: Connection timed out
[1741608657.855984] [ohm:3248363:0]        ib_iface.c:1059 UCX  ERROR ibv_create_cq(cqe=256) failed: Connection timed out
[1741608657.856173] [ohm:3248337:0]        ib_iface.c:1059 UCX  ERROR ibv_create_cq(cqe=256) failed: Connection timed out
[1741608657.861174] [ohm:3248319:0]        ib_iface.c:1059 UCX  ERROR ibv_create_cq(cqe=256) failed: Connection timed out
[1741608657.865155] [ohm:3248406:0]        ib_iface.c:1059 UCX  ERROR ibv_create_cq(cqe=256) failed: Connection timed out
[1741608657.865262] [ohm:3248356:0]        ib_iface.c:1059 UCX  ERROR ibv_create_cq(cqe=256) failed: Connection timed out
[1741608657.867280] [ohm:3248351:0]        ib_iface.c:1059 UCX  ERROR ibv_create_cq(cqe=256) failed: Connection timed out
[1741608657.868076] [ohm:3248460:0]        ib_iface.c:1059 UCX  ERROR ibv_create_cq(cqe=256) failed: Connection timed out
[1741608657.869804] [ohm:3248362:0]        ib_iface.c:1059 UCX  ERROR ibv_create_cq(cqe=256) failed: Connection timed out
[1741608657.874005] [ohm:3248426:0]        ib_iface.c:1059 UCX  ERROR ibv_create_cq(cqe=256) failed: Connection timed out
[1741608657.905208] [ohm:3248340:0]        ib_iface.c:1059 UCX  ERROR ibv_create_cq(cqe=256) failed: Connection timed out
[1741608657.917212] [ohm:3248333:0]        ib_iface.c:1059 UCX  ERROR ibv_create_cq(cqe=256) failed: Connection timed out
[1741608657.940374] [ohm:3248392:0]        ib_iface.c:1059 UCX  ERROR ibv_create_cq(cqe=256) failed: Connection timed out
[1741608657.945244] [ohm:3248334:0]        ib_iface.c:1059 UCX  ERROR ibv_create_cq(cqe=256) failed: Connection timed out
[1741608657.946515] [ohm:3248437:0]        ib_iface.c:1059 UCX  ERROR ibv_create_cq(cqe=256) failed: Connection timed out
[1741608657.948618] [ohm:3248316:0]        ib_iface.c:1059 UCX  ERROR ibv_create_cq(cqe=256) failed: Connection timed out
[1741608657.950177] [ohm:3248429:0]        ib_iface.c:1059 UCX  ERROR ibv_create_cq(cqe=256) failed: Connection timed out
[1741608657.956470] [ohm:3248336:0]        ib_iface.c:1059 UCX  ERROR ibv_create_cq(cqe=256) failed: Connection timed out
[1741608657.958036] [ohm:3248317:0]        ib_iface.c:1059 UCX  ERROR ibv_create_cq(cqe=256) failed: Connection timed out
[1741608657.960782] [ohm:3248399:0]        ib_iface.c:1059 UCX  ERROR ibv_create_cq(cqe=256) failed: Connection timed out
[1741608657.961053] [ohm:3248379:0]        ib_iface.c:1059 UCX  ERROR ibv_create_cq(cqe=256) failed: Connection timed out
[1741608657.962015] [ohm:3248405:0]        ib_iface.c:1059 UCX  ERROR ibv_create_cq(cqe=256) failed: Connection timed out
[1741608657.962240] [ohm:3248353:0]        ib_iface.c:1059 UCX  ERROR ibv_create_cq(cqe=256) failed: Connection timed out
[1741608657.963298] [ohm:3248402:0]        ib_iface.c:1059 UCX  ERROR ibv_create_cq(cqe=256) failed: Connection timed out
[1741608657.966197] [ohm:3248338:0]        ib_iface.c:1059 UCX  ERROR ibv_create_cq(cqe=256) failed: Connection timed out
[1741608657.974442] [ohm:3248465:0]        ib_iface.c:1059 UCX  ERROR ibv_create_cq(cqe=256) failed: Connection timed out
[1741608657.978872] [ohm:3248444:0]        ib_iface.c:1059 UCX  ERROR ibv_create_cq(cqe=256) failed: Connection timed out
[1741608657.987593] [ohm:3248369:0]        ib_iface.c:1059 UCX  ERROR ibv_create_cq(cqe=256) failed: Connection timed out
[1741608657.993608] [ohm:3248448:0]        ib_iface.c:1059 UCX  ERROR ibv_create_cq(cqe=256) failed: Connection timed out
[1741608657.995357] [ohm:3248415:0]        ib_iface.c:1059 UCX  ERROR ibv_create_cq(cqe=256) failed: Connection timed out
[1741608657.997472] [ohm:3248453:0]        ib_iface.c:1059 UCX  ERROR ibv_create_cq(cqe=256) failed: Connection timed out
[1741608658.008287] [ohm:3248397:0]        ib_iface.c:1059 UCX  ERROR ibv_create_cq(cqe=256) failed: Connection timed out
[1741608658.010101] [ohm:3248376:0]        ib_iface.c:1059 UCX  ERROR ibv_create_cq(cqe=256) failed: Connection timed out
[1741608658.011892] [ohm:3248367:0]        ib_iface.c:1059 UCX  ERROR ibv_create_cq(cqe=256) failed: Connection timed out
[1741608658.028765] [ohm:3248365:0]        ib_iface.c:1059 UCX  ERROR ibv_create_cq(cqe=256) failed: Connection timed out
[1741608658.028748] [ohm:3248370:0]        ib_iface.c:1059 UCX  ERROR ibv_create_cq(cqe=256) failed: Connection timed out
[1741608658.032105] [ohm:3248364:0]        ib_iface.c:1059 UCX  ERROR ibv_create_cq(cqe=256) failed: Connection timed out
[1741608658.036524] [ohm:3248347:0]        ib_iface.c:1059 UCX  ERROR ibv_create_cq(cqe=256) failed: Connection timed out
[1741608658.037464] [ohm:3248366:0]        ib_iface.c:1059 UCX  ERROR ibv_create_cq(cqe=256) failed: Connection timed out
[1741608658.040464] [ohm:3248462:0]        ib_iface.c:1059 UCX  ERROR ibv_create_cq(cqe=256) failed: Connection timed out
[1741608658.046212] [ohm:3248413:0]        ib_iface.c:1059 UCX  ERROR ibv_create_cq(cqe=256) failed: Connection timed out
[1741608658.053002] [ohm:3248394:0]        ib_iface.c:1059 UCX  ERROR ibv_create_cq(cqe=256) failed: Connection timed out
[1741608658.057311] [ohm:3248361:0]        ib_iface.c:1059 UCX  ERROR ibv_create_cq(cqe=256) failed: Connection timed out
[1741608658.057440] [ohm:3248455:0]        ib_iface.c:1059 UCX  ERROR ibv_create_cq(cqe=256) failed: Connection timed out
[1741608658.058325] [ohm:3248420:0]        ib_iface.c:1059 UCX  ERROR ibv_create_cq(cqe=256) failed: Connection timed out
[1741608658.058837] [ohm:3248439:0]        ib_iface.c:1059 UCX  ERROR ibv_create_cq(cqe=256) failed: Connection timed out
[1741608658.060172] [ohm:3248385:0]        ib_iface.c:1059 UCX  ERROR ibv_create_cq(cqe=256) failed: Connection timed out
[1741608658.060190] [ohm:3248371:0]        ib_iface.c:1059 UCX  ERROR ibv_create_cq(cqe=256) failed: Connection timed out
[1741608658.061504] [ohm:3248368:0]        ib_iface.c:1059 UCX  ERROR ibv_create_cq(cqe=256) failed: Connection timed out
[1741608658.069462] [ohm:3248358:0]        ib_iface.c:1059 UCX  ERROR ibv_create_cq(cqe=256) failed: Connection timed out


           ************************************************************
           *        Program running with 64 parallel MPI-processes    *
           *              working on a common directory               *
           ************************************************************
-------------------------------------------------------------------------------
                                 ORCA GUESS
                   Start orbitals & Density for SCF / CASSCF
-------------------------------------------------------------------------------

------------
SCF SETTINGS
------------
Hamiltonian:
 Density Functional     Method          .... DFT(GTOs)
  Functional kind                       .... Exchange-Correlation
  Functional name                       .... wB97M-V exchange-correlation functional
  Functional family                     .... Hybrid MGGA
  Functional refs                              
    [ 0] N. Mardirossian and M. Head-Gordon.,  J. Chem. Phys. 144, 214110 (2016), doi: 10.1063/1.4952647
  Fraction of HF Exchange (short range) .... 0.1500
  Fraction of HF Exchange (long range)  .... 1.0000
  Range separation parameter mu         .... 0.3000
  Functional external parameters        .... 17
    Parameter  0 _cx00      =  8.500000e-01 : u^00 coefficient for exchange
    Parameter  1 _cx01      =  1.007000e+00 : u^01 coefficient for exchange
    Parameter  2 _cx10      =  2.590000e-01 : u^10 coefficient for exchange
    Parameter  3 _css00     =  4.430000e-01 : u^00 coefficient for same-spin correlation
    Parameter  4 _css04     = -1.437000e+00 : u^04 coefficient for same-spin correlation
    Parameter  5 _css10     = -4.535000e+00 : u^10 coefficient for same-spin correlation
    Parameter  6 _css20     = -3.390000e+00 : u^20 coefficient for same-spin correlation
    Parameter  7 _css43     =  4.278000e+00 : u^43 coefficient for same-spin correlation
    Parameter  8 _cos00     =  1.000000e+00 : u^00 coefficient for opposite-spin correlation
    Parameter  9 _cos10     =  1.358000e+00 : u^10 coefficient for opposite-spin correlation
    Parameter 10 _cos20     =  2.924000e+00 : u^20 coefficient for opposite-spin correlation
    Parameter 11 _cos21     = -8.812000e+00 : u^21 coefficient for opposite-spin correlation
    Parameter 12 _cos60     = -1.390000e+00 : u^60 coefficient for opposite-spin correlation
    Parameter 13 _cos61     =  9.142000e+00 : u^61 coefficient for opposite-spin correlation
    Parameter 14 _alpha     =  1.000000e+00 : fraction of HF exchange
    Parameter 15 _beta      = -8.500000e-01 : fraction of short-range exchange
    Parameter 16 _omega     =  3.000000e-01 : range-separation constant
 Long-range corrected/Screened/Range-Separated Hybrid DFT is turned on
   Amount of maximum screened exact exchange              ....  0.850000
   Range separation parameter mu (erf(mu*r12)/r12)        ....  0.300000
 RI-approximation to the Coulomb term is turned on
   Number of AuxJ basis functions       .... 191
   RIJ-COSX (HFX calculated with COS-X)).... on


General Settings:
 Integral files         IntName         .... orca
 Hartree-Fock type      HFTyp           .... UHF
 Total Charge           Charge          ....    0
 Multiplicity           Mult            ....    3
 Number of Electrons    NEL             ....   24
 Basis Dimension        Dim             ....  182
 Nuclear Repulsion      ENuc            ....     67.5004249524 Eh

Convergence Acceleration:
 AO-DIIS                CNVDIIS         .... on
   Start iteration      DIISMaxIt       ....    12
   Startup error        DIISStart       ....  0.200000
   # of expansion vecs  DIISMaxEq       ....     5
   Bias factor          DIISBfac        ....   1.050
   Max. coefficient     DIISMaxC        ....  10.000
 MO-DIIS                CNVKDIIS        .... off
 Trust-Rad. Augm. Hess. CNVTRAH         .... auto
   Auto Start mean grad. ratio tolernc. ....  1.125000
   Auto Start start iteration           ....    50
   Auto Start num. interpolation iter.  ....    10
   Max. Number of Micro iterations      ....    24
   Max. Number of Macro iterations      .... Maxiter - #DIIS iter
   Number of Davidson start vectors     ....     2
   Converg. threshold    (grad. norm)   ....   1.000e-05
   Grad. Scal. Fac. for Micro threshold ....   0.100
   Minimum threshold for Micro iter.    ....   1.000e-02
   NR start threshold (gradient norm)   ....   1.000e-04
   Initial trust radius                 ....   0.400
   Minimum AH scaling param. (alpha)    ....   1.000
   Maximum AH scaling param. (alpha)    .... 1000.000
   Quad. conv. algorithm                .... NR
   White noise on init. David. guess    .... on
   Maximum white noise                  ....   0.010
   Pseudo random numbers                .... off
   Inactive MOs                         .... canonical
   Orbital update algorithm             .... Taylor
   Preconditioner                       .... Diag
   Full preconditioner red. dimension   ....   250
 SOSCF                  CNVSOSCF        .... on
   Start iteration      SOSCFMaxIt      ....   150
   Startup grad/error   SOSCFStart      ....  0.003300
   Hessian update       SOSCFHessUp     .... L-BFGS
 Level Shifting         CNVShift        .... on
   Level shift para.    LevelShift      ....    0.2500
   Turn off err/grad.   ShiftErr        ....    0.0010
 Zerner damping         CNVZerner       .... off
 Static damping         CNVDamp         .... on
   Fraction old density DampFac         ....    0.7000
   Max. Damping (<1)    DampMax         ....    0.9800
   Min. Damping (>=0)   DampMin         ....    0.0000
   Turn off err/grad.   DampErr         ....    0.1000

SCF Procedure:
 Maximum # iterations   MaxIter         ....   125
 SCF integral mode      SCFMode         .... Direct
   Integral package                     .... SHARK and LIBINT hybrid scheme
 Reset frequency        DirectResetFreq ....    20
 Integral Threshold     Thresh          ....  2.500e-11 Eh
 Primitive CutOff       TCut            ....  2.500e-12 Eh

Convergence Tolerance:
 Convergence Check Mode ConvCheckMode   .... Total+1el-Energy
 Convergence forced     ConvForced      .... 1
 Energy Change          TolE            ....  1.000e-08 Eh
 1-El. energy change                    ....  1.000e-05 Eh
 Orbital Gradient       TolG            ....  1.000e-05
 Orbital Rotation angle TolX            ....  1.000e-05
 DIIS Error             TolErr          ....  5.000e-07

------------------------------
INITIAL GUESS: MODEL POTENTIAL
------------------------------
Loading Hartree-Fock densities                     ... done
Calculating cut-offs                               ... done
Initializing the effective Hamiltonian             ... done
Setting up the integral package (SHARK)            ... done
Starting the Coulomb interaction                   ... done (   0.0 sec)
Making the grid                                    ... done (   0.0 sec)
Mapping shells                                     ... done
Starting the XC term evaluation                    ... done (   0.0 sec)
  promolecular density results
     # of electrons  =     23.998035560
     EX              =    -19.441024218
     EC              =     -0.763075971
     EX+EC           =    -20.204100189
Transforming the Hamiltonian                       ... done (   0.0 sec)
Diagonalizing the Hamiltonian                      ... done (   0.0 sec)
Back transforming the eigenvectors                 ... done (   0.0 sec)
Now organizing SCF variables                       ... done
                      ------------------
                      INITIAL GUESS DONE (   0.1 sec)
                      ------------------
             **** ENERGY FILE WAS UPDATED (orca.en.tmp) ****
Finished Guess after   1.7 sec
Maximum memory used throughout the entire GUESS-calculation: 9.5 MB
[1741608660.017766] [ohm:3248646:0]        ib_iface.c:1059 UCX  ERROR ibv_create_cq(cqe=256) failed: Connection timed out
[1741608660.029230] [ohm:3248643:0]        ib_iface.c:1059 UCX  ERROR ibv_create_cq(cqe=256) failed: Connection timed out
[1741608660.034529] [ohm:3248652:0]        ib_iface.c:1059 UCX  ERROR ibv_create_cq(cqe=256) failed: Connection timed out
[1741608660.041823] [ohm:3248639:0]        ib_iface.c:1059 UCX  ERROR ibv_create_cq(cqe=256) failed: Connection timed out
[1741608660.042849] [ohm:3248644:0]        ib_iface.c:1059 UCX  ERROR ibv_create_cq(cqe=256) failed: Connection timed out
[1741608660.044052] [ohm:3248645:0]        ib_iface.c:1059 UCX  ERROR ibv_create_cq(cqe=256) failed: Connection timed out
[1741608660.051718] [ohm:3248671:0]        ib_iface.c:1059 UCX  ERROR ibv_create_cq(cqe=256) failed: Connection timed out
[1741608660.052691] [ohm:3248641:0]        ib_iface.c:1059 UCX  ERROR ibv_create_cq(cqe=256) failed: Connection timed out
[1741608660.090807] [ohm:3248686:0]        ib_iface.c:1059 UCX  ERROR ibv_create_cq(cqe=256) failed: Connection timed out
[1741608660.106323] [ohm:3248725:0]        ib_iface.c:1059 UCX  ERROR ibv_create_cq(cqe=256) failed: Connection timed out
[1741608660.113889] [ohm:3248647:0]        ib_iface.c:1059 UCX  ERROR ibv_create_cq(cqe=256) failed: Connection timed out
[1741608660.114505] [ohm:3248776:0]        ib_iface.c:1059 UCX  ERROR ibv_create_cq(cqe=256) failed: Connection timed out
[1741608660.115473] [ohm:3248679:0]        ib_iface.c:1059 UCX  ERROR ibv_create_cq(cqe=256) failed: Connection timed out
[1741608660.120772] [ohm:3248660:0]        ib_iface.c:1059 UCX  ERROR ibv_create_cq(cqe=256) failed: Connection timed out
[1741608660.121177] [ohm:3248684:0]        ib_iface.c:1059 UCX  ERROR ibv_create_cq(cqe=256) failed: Connection timed out
[1741608660.133961] [ohm:3248667:0]        ib_iface.c:1059 UCX  ERROR ibv_create_cq(cqe=256) failed: Connection timed out
[1741608660.164382] [ohm:3248688:0]        ib_iface.c:1059 UCX  ERROR ibv_create_cq(cqe=256) failed: Connection timed out
[1741608660.175591] [ohm:3248697:0]        ib_iface.c:1059 UCX  ERROR ibv_create_cq(cqe=256) failed: Connection timed out
[1741608660.177020] [ohm:3248642:0]        ib_iface.c:1059 UCX  ERROR ibv_create_cq(cqe=256) failed: Connection timed out
[1741608660.177562] [ohm:3248659:0]        ib_iface.c:1059 UCX  ERROR ibv_create_cq(cqe=256) failed: Connection timed out
[1741608660.185640] [ohm:3248677:0]        ib_iface.c:1059 UCX  ERROR ibv_create_cq(cqe=256) failed: Connection timed out
[1741608660.190458] [ohm:3248770:0]        ib_iface.c:1059 UCX  ERROR ibv_create_cq(cqe=256) failed: Connection timed out
[1741608660.205584] [ohm:3248729:0]        ib_iface.c:1059 UCX  ERROR ibv_create_cq(cqe=256) failed: Connection timed out
[1741608660.207692] [ohm:3248689:0]        ib_iface.c:1059 UCX  ERROR ibv_create_cq(cqe=256) failed: Connection timed out
[1741608660.220442] [ohm:3248741:0]        ib_iface.c:1059 UCX  ERROR ibv_create_cq(cqe=256) failed: Connection timed out
[1741608660.221772] [ohm:3248748:0]        ib_iface.c:1059 UCX  ERROR ibv_create_cq(cqe=256) failed: Connection timed out
[1741608660.237486] [ohm:3248692:0]        ib_iface.c:1059 UCX  ERROR ibv_create_cq(cqe=256) failed: Connection timed out
[1741608660.244704] [ohm:3248712:0]        ib_iface.c:1059 UCX  ERROR ibv_create_cq(cqe=256) failed: Connection timed out
[1741608660.244951] [ohm:3248698:0]        ib_iface.c:1059 UCX  ERROR ibv_create_cq(cqe=256) failed: Connection timed out
[1741608660.247003] [ohm:3248781:0]        ib_iface.c:1059 UCX  ERROR ibv_create_cq(cqe=256) failed: Connection timed out
[1741608660.248278] [ohm:3248693:0]        ib_iface.c:1059 UCX  ERROR ibv_create_cq(cqe=256) failed: Connection timed out
[1741608660.260837] [ohm:3248675:0]        ib_iface.c:1059 UCX  ERROR ibv_create_cq(cqe=256) failed: Connection timed out
[1741608660.263124] [ohm:3248739:0]        ib_iface.c:1059 UCX  ERROR ibv_create_cq(cqe=256) failed: Connection timed out
[1741608660.270255] [ohm:3248766:0]        ib_iface.c:1059 UCX  ERROR ibv_create_cq(cqe=256) failed: Connection timed out
[1741608660.272725] [ohm:3248774:0]        ib_iface.c:1059 UCX  ERROR ibv_create_cq(cqe=256) failed: Connection timed out
[1741608660.273739] [ohm:3248762:0]        ib_iface.c:1059 UCX  ERROR ibv_create_cq(cqe=256) failed: Connection timed out
[1741608660.280017] [ohm:3248720:0]        ib_iface.c:1059 UCX  ERROR ibv_create_cq(cqe=256) failed: Connection timed out
[1741608660.281612] [ohm:3248790:0]        ib_iface.c:1059 UCX  ERROR ibv_create_cq(cqe=256) failed: Connection timed out
[1741608660.283701] [ohm:3248749:0]        ib_iface.c:1059 UCX  ERROR ibv_create_cq(cqe=256) failed: Connection timed out
[1741608660.284390] [ohm:3248794:0]        ib_iface.c:1059 UCX  ERROR ibv_create_cq(cqe=256) failed: Connection timed out
[1741608660.288312] [ohm:3248691:0]        ib_iface.c:1059 UCX  ERROR ibv_create_cq(cqe=256) failed: Connection timed out
[1741608660.294982] [ohm:3248666:0]        ib_iface.c:1059 UCX  ERROR ibv_create_cq(cqe=256) failed: Connection timed out
[1741608660.295553] [ohm:3248732:0]        ib_iface.c:1059 UCX  ERROR ibv_create_cq(cqe=256) failed: Connection timed out
[1741608660.296631] [ohm:3248769:0]        ib_iface.c:1059 UCX  ERROR ibv_create_cq(cqe=256) failed: Connection timed out
[1741608660.298283] [ohm:3248683:0]        ib_iface.c:1059 UCX  ERROR ibv_create_cq(cqe=256) failed: Connection timed out
[1741608660.298580] [ohm:3248690:0]        ib_iface.c:1059 UCX  ERROR ibv_create_cq(cqe=256) failed: Connection timed out
[1741608660.304498] [ohm:3248663:0]        ib_iface.c:1059 UCX  ERROR ibv_create_cq(cqe=256) failed: Connection timed out
[1741608660.306879] [ohm:3248784:0]        ib_iface.c:1059 UCX  ERROR ibv_create_cq(cqe=256) failed: Connection timed out
[1741608660.308752] [ohm:3248694:0]        ib_iface.c:1059 UCX  ERROR ibv_create_cq(cqe=256) failed: Connection timed out
[1741608660.314526] [ohm:3248759:0]        ib_iface.c:1059 UCX  ERROR ibv_create_cq(cqe=256) failed: Connection timed out
[1741608660.317657] [ohm:3248704:0]        ib_iface.c:1059 UCX  ERROR ibv_create_cq(cqe=256) failed: Connection timed out
[1741608660.325781] [ohm:3248755:0]        ib_iface.c:1059 UCX  ERROR ibv_create_cq(cqe=256) failed: Connection timed out
[1741608660.326886] [ohm:3248791:0]        ib_iface.c:1059 UCX  ERROR ibv_create_cq(cqe=256) failed: Connection timed out
[1741608660.330661] [ohm:3248661:0]        ib_iface.c:1059 UCX  ERROR ibv_create_cq(cqe=256) failed: Connection timed out
[1741608660.330664] [ohm:3248707:0]        ib_iface.c:1059 UCX  ERROR ibv_create_cq(cqe=256) failed: Connection timed out
[1741608660.331096] [ohm:3248687:0]        ib_iface.c:1059 UCX  ERROR ibv_create_cq(cqe=256) failed: Connection timed out
[1741608660.333423] [ohm:3248662:0]        ib_iface.c:1059 UCX  ERROR ibv_create_cq(cqe=256) failed: Connection timed out
[1741608660.334659] [ohm:3248681:0]        ib_iface.c:1059 UCX  ERROR ibv_create_cq(cqe=256) failed: Connection timed out
[1741608660.337612] [ohm:3248745:0]        ib_iface.c:1059 UCX  ERROR ibv_create_cq(cqe=256) failed: Connection timed out
[1741608660.337876] [ohm:3248682:0]        ib_iface.c:1059 UCX  ERROR ibv_create_cq(cqe=256) failed: Connection timed out
[1741608660.338369] [ohm:3248640:0]        ib_iface.c:1059 UCX  ERROR ibv_create_cq(cqe=256) failed: Connection timed out
[1741608660.340667] [ohm:3248685:0]        ib_iface.c:1059 UCX  ERROR ibv_create_cq(cqe=256) failed: Connection timed out
[1741608660.341190] [ohm:3248680:0]        ib_iface.c:1059 UCX  ERROR ibv_create_cq(cqe=256) failed: Connection timed out
[1741608660.341455] [ohm:3248752:0]        ib_iface.c:1059 UCX  ERROR ibv_create_cq(cqe=256) failed: Connection timed out


           ************************************************************
           *        Program running with 64 parallel MPI-processes    *
           *              working on a common directory               *
           ************************************************************

-------------------------------------------------------------------------------------------
                                      ORCA LEAN-SCF
                              memory conserving SCF solver
-------------------------------------------------------------------------------------------

----------------------------------------D-I-I-S--------------------------------------------
Iteration    Energy (Eh)           Delta-E    RMSDP     MaxDP     DIISErr   Damp  Time(sec)
-------------------------------------------------------------------------------------------
               ***  Starting incremental Fock matrix formation  ***
    1    -153.6971033106131870     0.00e+00  8.05e-04  2.05e-02  7.54e-02  0.700   0.3
    2    -153.7245361317972652    -2.74e-02  7.05e-04  1.85e-02  4.64e-02  0.700   0.3
                               ***Turning on AO-DIIS***
    3    -153.7395835793448384    -1.50e-02  5.63e-04  1.98e-02  3.09e-02  0.700   0.3
    4    -153.7489530777001789    -9.37e-03  1.40e-03  5.13e-02  2.53e-02  0.000   0.3
    5    -153.7711703182913823    -2.22e-02  1.46e-04  4.00e-03  9.38e-03  0.000   0.3
    6    -153.7717545569787205    -5.84e-04  9.42e-05  2.24e-03  5.20e-03  0.000   0.3
    7    -153.7720259032903982    -2.71e-04  5.13e-05  1.56e-03  3.84e-03  0.000   0.4
                              *** Initializing SOSCF ***
---------------------------------------S-O-S-C-F--------------------------------------
Iteration    Energy (Eh)           Delta-E    RMSDP     MaxDP     MaxGrad    Time(sec)
--------------------------------------------------------------------------------------
    8    -153.7721429505616300    -1.17e-04  3.09e-05  9.20e-04  1.77e-03     0.4
               *** Restarting incremental Fock matrix formation ***
    9    -153.7721764864964200    -3.35e-05  1.94e-05  6.25e-04  1.25e-03     0.3
   10    -153.7721926506227135    -1.62e-05  8.90e-05  3.28e-03  1.21e-03     0.3
   11    -153.7722354132817486    -4.28e-05  6.39e-05  3.09e-03  1.47e-03     0.3
   12    -153.7722674817347297    -3.21e-05  4.10e-04  2.18e-02  2.12e-03     0.3
   13    -153.7724446309303801    -1.77e-04  6.41e-04  3.68e-02  4.13e-03     0.3
   14    -153.7726552072425648    -2.11e-04  4.74e-04  2.52e-02  4.95e-03     0.3
   15    -153.7728740944473032    -2.19e-04  4.51e-04  1.91e-02  3.50e-03     0.3
   16    -153.7731083090033621    -2.34e-04  1.45e-04  6.77e-03  7.11e-04     0.3
   17    -153.7731245445869774    -1.62e-05  3.88e-05  1.64e-03  6.19e-04     0.3
   18    -153.7731287017566046    -4.16e-06  4.18e-05  1.70e-03  1.92e-04     0.3
   19    -153.7731297701711242    -1.07e-06  1.80e-05  6.92e-04  9.39e-05     0.3
   20    -153.7731300398524468    -2.70e-07  2.17e-06  6.31e-05  4.06e-05     0.4
   21    -153.7731300641612506    -2.43e-08  1.01e-06  4.27e-05  7.70e-06     0.3
   22    -153.7731300682241340    -4.06e-09  4.22e-07  1.65e-05  3.53e-06     0.3
                 **** Energy Check signals convergence ****

               *****************************************************
               *                     SUCCESS                       *
               *           SCF CONVERGED AFTER  22 CYCLES          *
               *****************************************************

Recomputing exchange energy using gridx3       ... done (    0.192 sec)
Old exchange energy                            :     -6.186547218 Eh
New exchange energy                            :     -6.186561519 Eh
Exchange energy change after final integration :     -0.000014301 Eh
Total energy after final integration           :   -153.773144369 Eh
             **** ENERGY FILE WAS UPDATED (orca.en.tmp) ****

----------------
TOTAL SCF ENERGY
----------------

Total Energy       :       -153.77314436898595 Eh           -4184.37999 eV

Components:
Nuclear Repulsion  :         67.50042495235977 Eh            1836.77994 eV
Electronic Energy  :       -221.27355502058390 Eh           -6021.15954 eV
One Electron Energy:       -341.52548703662967 Eh           -9293.38097 eV
Two Electron Energy:        120.25193201604577 Eh            3272.22143 eV

Virial components:
Potential Energy   :       -306.89138995964970 Eh           -8350.93927 eV
Kinetic Energy     :        153.11824559066375 Eh            4166.55929 eV
Virial Ratio       :          2.00427707864465

DFT components:
N(Alpha)           :       12.999986312534 electrons
N(Beta)            :       10.999981538298 electrons
N(Total)           :       23.999967850833 electrons
E(XC)              :      -14.658618415716 Eh       

---------------
SCF CONVERGENCE
---------------

  Last Energy change         ...    4.0629e-09  Tolerance :   1.0000e-08
  Last MAX-Density change    ...    1.6500e-05  Tolerance :   1.0000e-07
  Last RMS-Density change    ...    4.2236e-07  Tolerance :   5.0000e-09
  Last DIIS Error            ...    1.7679e-03  Tolerance :   5.0000e-07
  Last Orbital Gradient      ...    3.5348e-06  Tolerance :   1.0000e-05
  Last Orbital Rotation      ...    1.6582e-05  Tolerance :   1.0000e-05


----------------------
UHF SPIN CONTAMINATION
----------------------

Warning: in a DFT calculation there is little theoretical justification to 
         calculate <S**2> as in Hartree-Fock theory. We will do it anyways
         but you should keep in mind that the values have only limited relevance

Expectation value of <S**2>     :     2.008719
Ideal value S*(S+1) for S=1.0   :     2.000000
Deviation                       :     0.008719

----------------
ORBITAL ENERGIES
----------------
                 SPIN UP ORBITALS
  NO   OCC          E(Eh)            E(eV) 
   0   1.0000     -19.400044      -527.9020 
   1   1.0000     -10.428616      -283.7771 
   2   1.0000     -10.367332      -282.1094 
   3   1.0000      -1.170226       -31.8435 
   4   1.0000      -0.880867       -23.9696 
   5   1.0000      -0.728243       -19.8165 
   6   1.0000      -0.608029       -16.5453 
   7   1.0000      -0.585815       -15.9408 
   8   1.0000      -0.557810       -15.1788 
   9   1.0000      -0.510492       -13.8912 
  10   1.0000      -0.455026       -12.3819 
  11   1.0000      -0.417925       -11.3723 
  12   1.0000      -0.311504        -8.4765 
  13   0.0000       0.039775         1.0823 
  14   0.0000       0.059670         1.6237 
  15   0.0000       0.078544         2.1373 
  16   0.0000       0.082837         2.2541 
  17   0.0000       0.108331         2.9478 
  18   0.0000       0.122420         3.3312 
  19   0.0000       0.133498         3.6327 
  20   0.0000       0.143695         3.9101 
  21   0.0000       0.169576         4.6144 
  22   0.0000       0.189359         5.1527 
  23   0.0000       0.201748         5.4898 

                 SPIN DOWN ORBITALS
  NO   OCC          E(Eh)            E(eV) 
   0   1.0000     -19.377202      -527.2805 
   1   1.0000     -10.430304      -283.8230 
   2   1.0000     -10.353188      -281.7246 
   3   1.0000      -1.117225       -30.4012 
   4   1.0000      -0.848026       -23.0760 
   5   1.0000      -0.701464       -19.0878 
   6   1.0000      -0.580250       -15.7894 
   7   1.0000      -0.543936       -14.8012 
   8   1.0000      -0.526609       -14.3298 
   9   1.0000      -0.494455       -13.4548 
  10   1.0000      -0.388361       -10.5678 
  11   0.0000      -0.065305        -1.7770 
  12   0.0000       0.008292         0.2256 
  13   0.0000       0.039640         1.0787 
  14   0.0000       0.059438         1.6174 
  15   0.0000       0.079715         2.1692 
  16   0.0000       0.082111         2.2343 
  17   0.0000       0.110414         3.0045 
  18   0.0000       0.122364         3.3297 
  19   0.0000       0.137587         3.7439 
  20   0.0000       0.145069         3.9475 
  21   0.0000       0.171070         4.6551 
*Only the first 10 virtual orbitals were printed.

                    ********************************
                    * MULLIKEN POPULATION ANALYSIS *
                    ********************************

--------------------------------------------
MULLIKEN ATOMIC CHARGES AND SPIN POPULATIONS
--------------------------------------------
   0 O :   -0.325464    0.896803
   1 C :    0.061927   -0.011402
   2 C :   -0.649501    0.895127
   3 H :    0.209455    0.048343
   4 H :    0.191428    0.133041
   5 H :    0.278973    0.023018
   6 H :    0.233181    0.015070
Sum of atomic charges         :   -0.0000000
Sum of atomic spin populations:    2.0000000

-----------------------------------------------------
MULLIKEN REDUCED ORBITAL CHARGES AND SPIN POPULATIONS
-----------------------------------------------------
CHARGE
  0 O s       :     4.011426  s :     4.011426
      pz      :     1.174952  p :     4.291332
      px      :     1.301468
      py      :     1.814912
      dz2     :     0.003801  d :     0.021472
      dxz     :     0.007450
      dyz     :     0.000062
      dx2y2   :     0.006941
      dxy     :     0.003218
      f0      :     0.000102  f :     0.001234
      f+1     :     0.000173
      f-1     :     0.000022
      f+2     :     0.000267
      f-2     :     0.000085
      f+3     :     0.000361
      f-3     :     0.000224

  1 C s       :     3.184997  s :     3.184997
      pz      :     0.985188  p :     2.555911
      px      :     0.664562
      py      :     0.906161
      dz2     :     0.018470  d :     0.186565
      dxz     :     0.059054
      dyz     :     0.032961
      dx2y2   :     0.014192
      dxy     :     0.061888
      f0      :     0.000614  f :     0.010600
      f+1     :     0.001362
      f-1     :     0.000831
      f+2     :     0.002032
      f-2     :     0.001028
      f+3     :     0.001849
      f-3     :     0.002884

  2 C s       :     3.601665  s :     3.601665
      pz      :     0.941842  p :     3.010034
      px      :     1.132499
      py      :     0.935694
      dz2     :     0.013574  d :     0.033821
      dxz     :     0.009389
      dyz     :     0.005906
      dx2y2   :     0.000580
      dxy     :     0.004372
      f0      :     0.000370  f :     0.003981
      f+1     :     0.000192
      f-1     :     0.000960
      f+2     :     0.000621
      f-2     :     0.000685
      f+3     :     0.000581
      f-3     :     0.000573

  3 H s       :     0.753506  s :     0.753506
      pz      :     0.013055  p :     0.034908
      px      :     0.006114
      py      :     0.015739
      dz2     :     0.000470  d :     0.002131
      dxz     :     0.000297
      dyz     :     0.000496
      dx2y2   :     0.000488
      dxy     :     0.000380

  4 H s       :     0.776433  s :     0.776433
      pz      :     0.014336  p :     0.029931
      px      :     0.010623
      py      :     0.004972
      dz2     :     0.000502  d :     0.002207
      dxz     :     0.000543
      dyz     :     0.000491
      dx2y2   :     0.000399
      dxy     :     0.000272

  5 H s       :     0.674808  s :     0.674808
      pz      :     0.021004  p :     0.043962
      px      :     0.011523
      py      :     0.011434
      dz2     :     0.000385  d :     0.002257
      dxz     :     0.000601
      dyz     :     0.000197
      dx2y2   :     0.000458
      dxy     :     0.000616

  6 H s       :     0.730295  s :     0.730295
      pz      :     0.016528  p :     0.034246
      px      :     0.005031
      py      :     0.012687
      dz2     :     0.000166  d :     0.002278
      dxz     :     0.000411
      dyz     :     0.000440
      dx2y2   :     0.000749
      dxy     :     0.000512


SPIN
  0 O s       :    -0.003215  s :    -0.003215
      pz      :     0.699707  p :     0.904257
      px      :     0.096588
      py      :     0.107962
      dz2     :    -0.000216  d :    -0.004050
      dxz     :    -0.002770
      dyz     :    -0.000531
      dx2y2   :    -0.000617
      dxy     :     0.000084
      f0      :    -0.000056  f :    -0.000189
      f+1     :    -0.000088
      f-1     :     0.000018
      f+2     :    -0.000047
      f-2     :    -0.000003
      f+3     :    -0.000010
      f-3     :    -0.000004

  1 C s       :     0.007381  s :     0.007381
      pz      :    -0.033510  p :    -0.095650
      px      :    -0.035095
      py      :    -0.027045
      dz2     :     0.019257  d :     0.074299
      dxz     :     0.028051
      dyz     :     0.015491
      dx2y2   :     0.015712
      dxy     :    -0.004213
      f0      :     0.000044  f :     0.002569
      f+1     :     0.000831
      f-1     :     0.000695
      f+2     :     0.000417
      f-2     :     0.000104
      f+3     :     0.000319
      f-3     :     0.000159

  2 C s       :    -0.012652  s :    -0.012652
      pz      :     0.635647  p :     0.913540
      px      :     0.108228
      py      :     0.169664
      dz2     :     0.000537  d :    -0.004706
      dxz     :    -0.001421
      dyz     :     0.001079
      dx2y2   :    -0.002524
      dxy     :    -0.002376
      f0      :    -0.000264  f :    -0.001056
      f+1     :    -0.000124
      f-1     :    -0.000236
      f+2     :    -0.000208
      f-2     :    -0.000138
      f+3     :    -0.000071
      f-3     :    -0.000015

  3 H s       :     0.047197  s :     0.047197
      pz      :    -0.000781  p :     0.001128
      px      :    -0.000947
      py      :     0.002856
      dz2     :    -0.000002  d :     0.000018
      dxz     :     0.000014
      dyz     :     0.000014
      dx2y2   :     0.000002
      dxy     :    -0.000009

  4 H s       :     0.125810  s :     0.125810
      pz      :     0.002343  p :     0.007102
      px      :     0.003546
      py      :     0.001214
      dz2     :     0.000009  d :     0.000129
      dxz     :     0.000033
      dyz     :     0.000038
      dx2y2   :     0.000044
      dxy     :     0.000004

  5 H s       :    -0.001528  s :    -0.001528
      pz      :     0.014434  p :     0.023447
      px      :     0.004179
      py      :     0.004834
      dz2     :     0.000304  d :     0.001099
      dxz     :     0.000406
      dyz     :     0.000035
      dx2y2   :     0.000103
      dxy     :     0.000252

  6 H s       :    -0.009629  s :    -0.009629
      pz      :     0.016301  p :     0.023728
      px      :     0.002553
      py      :     0.004873
      dz2     :    -0.000015  d :     0.000971
      dxz     :     0.000330
      dyz     :     0.000343
      dx2y2   :     0.000318
      dxy     :    -0.000004



                     *******************************
                     * LOEWDIN POPULATION ANALYSIS *
                     *******************************

-------------------------------------------
LOEWDIN ATOMIC CHARGES AND SPIN POPULATIONS
-------------------------------------------
   0 O :    0.047705    0.828622
   1 C :   -0.282307    0.209944
   2 C :    0.225196    0.684173
   3 H :    0.047075    0.026269
   4 H :    0.074690    0.092122
   5 H :   -0.085850    0.088265
   6 H :   -0.026510    0.070605

----------------------------------------------------
LOEWDIN REDUCED ORBITAL CHARGES AND SPIN POPULATIONS
----------------------------------------------------
CHARGE
  0 O s       :     3.484926  s :     3.484926
      pz      :     1.124372  p :     4.204419
      px      :     1.416111
      py      :     1.663936
      dz2     :     0.028533  d :     0.259145
      dxz     :     0.074919
      dyz     :     0.018845
      dx2y2   :     0.063963
      dxy     :     0.072886
      f0      :     0.000352  f :     0.003804
      f+1     :     0.000660
      f-1     :     0.000037
      f+2     :     0.000746
      f-2     :     0.000357
      f+3     :     0.000857
      f-3     :     0.000796

  1 C s       :     2.672544  s :     2.672544
      pz      :     0.887218  p :     2.611276
      px      :     0.801189
      py      :     0.922869
      dz2     :     0.106266  d :     0.918362
      dxz     :     0.205670
      dyz     :     0.151829
      dx2y2   :     0.218935
      dxy     :     0.235663
      f0      :     0.007504  f :     0.080124
      f+1     :     0.010845
      f-1     :     0.005890
      f+2     :     0.012370
      f-2     :     0.008082
      f+3     :     0.015992
      f-3     :     0.019441

  2 C s       :     2.728372  s :     2.728372
      pz      :     0.777577  p :     2.608098
      px      :     0.942322
      py      :     0.888199
      dz2     :     0.066074  d :     0.414543
      dxz     :     0.049957
      dyz     :     0.083562
      dx2y2   :     0.102006
      dxy     :     0.112943
      f0      :     0.002114  f :     0.023791
      f+1     :     0.001236
      f-1     :     0.005632
      f+2     :     0.003830
      f-2     :     0.003260
      f+3     :     0.003929
      f-3     :     0.003790

  3 H s       :     0.689765  s :     0.689765
      pz      :     0.086578  p :     0.239456
      px      :     0.054993
      py      :     0.097885
      dz2     :     0.004620  d :     0.023704
      dxz     :     0.003118
      dyz     :     0.006344
      dx2y2   :     0.004502
      dxy     :     0.005120

  4 H s       :     0.658402  s :     0.658402
      pz      :     0.102907  p :     0.243543
      px      :     0.072777
      py      :     0.067860
      dz2     :     0.004825  d :     0.023364
      dxz     :     0.007391
      dyz     :     0.004803
      dx2y2   :     0.003457
      dxy     :     0.002888

  5 H s       :     0.737687  s :     0.737687
      pz      :     0.096903  p :     0.313179
      px      :     0.135901
      py      :     0.080375
      dz2     :     0.005303  d :     0.034984
      dxz     :     0.009896
      dyz     :     0.002298
      dx2y2   :     0.008400
      dxy     :     0.009087

  6 H s       :     0.717247  s :     0.717247
      pz      :     0.076971  p :     0.280872
      px      :     0.107728
      py      :     0.096173
      dz2     :     0.002755  d :     0.028390
      dxz     :     0.004497
      dyz     :     0.004472
      dx2y2   :     0.008214
      dxy     :     0.008452


SPIN
  0 O s       :     0.008672  s :     0.008672
      pz      :     0.628748  p :     0.810489
      px      :     0.080431
      py      :     0.101310
      dz2     :     0.002218  d :     0.009539
      dxz     :     0.005264
      dyz     :     0.001431
      dx2y2   :     0.001271
      dxy     :    -0.000644
      f0      :    -0.000021  f :    -0.000078
      f+1     :    -0.000010
      f-1     :     0.000024
      f+2     :    -0.000059
      f-2     :     0.000026
      f+3     :    -0.000019
      f-3     :    -0.000020

  1 C s       :    -0.005917  s :    -0.005917
      pz      :    -0.004549  p :    -0.033616
      px      :    -0.016534
      py      :    -0.012533
      dz2     :     0.064881  d :     0.227997
      dxz     :     0.075790
      dyz     :     0.045333
      dx2y2   :     0.038984
      dxy     :     0.003007
      f0      :     0.000577  f :     0.021481
      f+1     :     0.007586
      f-1     :     0.004935
      f+2     :     0.003077
      f-2     :     0.000698
      f+3     :     0.002846
      f-3     :     0.001761

  2 C s       :     0.019166  s :     0.019166
      pz      :     0.467089  p :     0.659824
      px      :     0.080525
      py      :     0.112210
      dz2     :     0.005393  d :     0.005662
      dxz     :    -0.001231
      dyz     :     0.003080
      dx2y2   :     0.002639
      dxy     :    -0.004219
      f0      :    -0.000243  f :    -0.000479
      f+1     :     0.000139
      f-1     :     0.000375
      f+2     :    -0.000345
      f-2     :    -0.000051
      f+3     :    -0.000280
      f-3     :    -0.000075

  3 H s       :     0.024365  s :     0.024365
      pz      :    -0.000250  p :     0.002086
      px      :    -0.001210
      py      :     0.003546
      dz2     :     0.000043  d :    -0.000182
      dxz     :    -0.000045
      dyz     :    -0.000020
      dx2y2   :    -0.000073
      dxy     :    -0.000087

  4 H s       :     0.083795  s :     0.083795
      pz      :     0.005206  p :     0.008798
      px      :     0.001218
      py      :     0.002373
      dz2     :    -0.000095  d :    -0.000471
      dxz     :    -0.000268
      dyz     :    -0.000025
      dx2y2   :    -0.000011
      dxy     :    -0.000072

  5 H s       :    -0.008199  s :    -0.008199
      pz      :     0.059477  p :     0.084259
      px      :     0.012050
      py      :     0.012733
      dz2     :     0.003645  d :     0.012204
      dxz     :     0.005404
      dyz     :     0.000192
      dx2y2   :     0.000754
      dxy     :     0.002209

  6 H s       :    -0.013767  s :    -0.013767
      pz      :     0.052306  p :     0.074508
      px      :     0.008861
      py      :     0.013341
      dz2     :     0.000099  d :     0.009864
      dxz     :     0.003243
      dyz     :     0.003407
      dx2y2   :     0.002590
      dxy     :     0.000524



                      *****************************
                      * MAYER POPULATION ANALYSIS *
                      *****************************

  NA   - Mulliken gross atomic population
  ZA   - Total nuclear charge
  QA   - Mulliken gross atomic charge
  VA   - Mayer's total valence
  BVA  - Mayer's bonded valence
  FA   - Mayer's free valence

  ATOM       NA         ZA         QA         VA         BVA        FA
  0 O      8.3255     8.0000    -0.3255     1.8080     1.0344     0.7736
  1 C      5.9381     6.0000     0.0619     3.5415     3.5317     0.0098
  2 C      6.6495     6.0000    -0.6495     3.5591     2.8147     0.7444
  3 H      0.7905     1.0000     0.2095     1.0196     1.0179     0.0016
  4 H      0.8086     1.0000     0.1914     0.9941     0.9765     0.0177
  5 H      0.7210     1.0000     0.2790     0.9158     0.9155     0.0003
  6 H      0.7668     1.0000     0.2332     0.9517     0.9513     0.0004

  Mayer bond orders larger than 0.100000
B(  0-O ,  1-C ) :   0.9000 B(  1-C ,  2-C ) :   0.8028 B(  1-C ,  3-H ) :   0.9910 
B(  1-C ,  4-H ) :   0.8987 B(  2-C ,  5-H ) :   0.9547 B(  2-C ,  6-H ) :   0.9700 


-------
TIMINGS
-------

Total SCF time: 0 days 0 hours 0 min 8 sec 

Total time                  ....       8.874 sec
Sum of individual times     ....       8.830 sec  ( 99.5%)

SCF preparation             ....       1.753 sec  ( 19.8%)
Fock matrix formation       ....       5.619 sec  ( 63.3%)
  Startup                   ....       0.094 sec  (  1.7% of F)
  Split-RI-J                ....       0.645 sec  ( 11.5% of F)
  Chain of spheres X        ....       2.973 sec  ( 52.9% of F)
  XC integration            ....       1.558 sec  ( 27.7% of F)
    XC Preparation          ....       0.000 sec  (  0.0% of XC)
    Basis function eval.    ....       0.088 sec  (  5.6% of XC)
    Density eval.           ....       0.314 sec  ( 20.2% of XC)
    XC-Functional eval.     ....       0.018 sec  (  1.1% of XC)
    XC-Potential eval.      ....       0.491 sec  ( 31.5% of XC)
Diagonalization             ....       0.000 sec  (  0.0%)
Density matrix formation    ....       0.178 sec  (  2.0%)
[...]
[1741608679.674674] [ohm:3249853:0]        ib_iface.c:1059 UCX  ERROR ibv_create_cq(cqe=256) failed: Connection timed out
[1741608679.679190] [ohm:3249926:0]        ib_iface.c:1059 UCX  ERROR ibv_create_cq(cqe=256) failed: Connection timed out
[1741608679.684280] [ohm:3249952:0]        ib_iface.c:1059 UCX  ERROR ibv_create_cq(cqe=256) failed: Connection timed out
[1741608679.686564] [ohm:3249905:0]        ib_iface.c:1059 UCX  ERROR ibv_create_cq(cqe=256) failed: Connection timed out
[1741608679.686871] [ohm:3249950:0]        ib_iface.c:1059 UCX  ERROR ibv_create_cq(cqe=256) failed: Connection timed out
[1741608679.687956] [ohm:3249912:0]        ib_iface.c:1059 UCX  ERROR ibv_create_cq(cqe=256) failed: Connection timed out
[1741608679.688244] [ohm:3249924:0]        ib_iface.c:1059 UCX  ERROR ibv_create_cq(cqe=256) failed: Connection timed out
[1741608679.688311] [ohm:3249901:0]        ib_iface.c:1059 UCX  ERROR ibv_create_cq(cqe=256) failed: Connection timed out
[1741608679.688335] [ohm:3249916:0]        ib_iface.c:1059 UCX  ERROR ibv_create_cq(cqe=256) failed: Connection timed out
[1741608679.689034] [ohm:3249953:0]        ib_iface.c:1059 UCX  ERROR ibv_create_cq(cqe=256) failed: Connection timed out


           ************************************************************
           *        Program running with 64 parallel MPI-processes    *
           *              working on a common directory               *
           ************************************************************

------------------------------------------------------------------------------
                              ORCA PROPERTY CALCULATIONS
------------------------------------------------------------------------------

GBWName                                 ... orca.gbw
Number of atoms                         ...      7
Number of basis functions               ...    182
Max core memory                         ...   1024 MB

Electric properties:
Dipole moment                           ... YES
Quadrupole moment                       ...  NO
Static polarizability (Dipole/Dipole)   ...  NO
Static polarizability (Dipole/Quad.)    ...  NO
Static polarizability (Quad./Quad.)     ...  NO
Static polarizability (Velocity)        ...  NO

Atomic electric properties:
Dipole moment                           ...  NO
Quadrupole moment                       ...  NO
Static polarizability                   ...  NO

Choice of electric origin               ... Center of mass
Position of electric origin             ...     0.803988     0.125779     0.137801

General magnetic properties:
Magnetizability                         ...  NO

EPR properties:
g-Tensor (aka g-matrix)                 ...  NO
Zero-Field splitting spin-orbit         ...  NO
Zero-field splitting spin-spin          ...  NO
Hyperfine couplings                     ...  NO (   0 nuclei)
Quadrupole couplings                    ...  NO (   0 nuclei)
Contact density                         ...  NO (   0 nuclei)

NMR properties:
Chemical shifts                         ...  NO (   0 nuclei)
Spin-rotation constants                 ...  NO (   0 nuclei)
Spin-spin couplings                     ...  NO (   0 nuclei,    0 pairs)

Choice of magnetic origin               ... GIAO
Position of magnetic origin             ...     0.000000     0.000000     0.000000

Properties with geometric perturbations:
SCF Hessian                             ...  NO
IR spectrum                             ...  NO
VCD spectrum                            ...  NO
X-ray spectroscopy properties:
SCF XES/XAS/RIXS spectra                ...  NO


-------------
DIPOLE MOMENT
-------------

Method             : SCF
Type of density    : Electron Density
Multiplicity       :   3
Irrep              :   0
Energy             :  -153.7731443689859532 Eh
Relativity type    : 
Basis              : AO
                                X                 Y                 Z
Electronic contribution:      2.343227469       1.054704957       1.051163873
Nuclear contribution   :     -3.131023847      -1.164205413      -1.176530639
                        -----------------------------------------
Total Dipole Moment    :     -0.787796377      -0.109500456      -0.125366766
                        -----------------------------------------
Magnitude (a.u.)       :      0.805189610
Magnitude (Debye)      :      2.046629340



--------------------
Rotational spectrum 
--------------------
 
Rotational constants in cm-1:             1.347667             0.367775             0.305525 
Rotational constants in MHz :         40402.037636         11025.620126          9159.409705 

Dipole components along the rotational axes: 
x,y,z [a.u.] :     0.636938    -0.470073     0.147213 
x,y,z [Debye]:     1.618968    -1.194830     0.374185 

 

-------------
DIPOLE MOMENT
-------------

Method             : TDA/CIS
Type of density    : Electron Density
Level              : Relaxed density
State              :   1
Multiplicity       :   3
Irrep              :   0
Energy             :     0.0000000000000000 Eh
Relativity type    : 
Basis              : AO
                                X                 Y                 Z
Electronic contribution:      1.491207124       0.489600507       0.410509129
Nuclear contribution   :     -3.131023847      -1.164205413      -1.176530639
                        -----------------------------------------
Total Dipole Moment    :     -1.639816723      -0.674604906      -0.766021511
                        -----------------------------------------
Magnitude (a.u.)       :      1.931548503
Magnitude (Debye)      :      4.909606121



--------------------
Rotational spectrum 
--------------------
 
Rotational constants in cm-1:             1.347667             0.367775             0.305525 
Rotational constants in MHz :         40402.037636         11025.620126          9159.409705 

Dipole components along the rotational axes: 
x,y,z [a.u.] :     1.832147    -0.608878     0.058169 
x,y,z [Debye]:     4.656948    -1.547645     0.147854 

 

Dipole moment calculation done in   0.0 sec 

Maximum memory used throughout the entire PROP-calculation: 7.4 MB
[1741608681.424457] [ohm:3250214:0]        ib_iface.c:1059 UCX  ERROR ibv_create_cq(cqe=256) failed: Connection timed out
[1741608681.439691] [ohm:3250236:0]        ib_iface.c:1059 UCX  ERROR ibv_create_cq(cqe=256) failed: Connection timed out
[1741608681.456908] [ohm:3250173:0]        ib_iface.c:1059 UCX  ERROR ibv_create_cq(cqe=256) failed: Connection timed out
[1741608681.466931] [ohm:3250171:0]        ib_iface.c:1059 UCX  ERROR ibv_create_cq(cqe=256) failed: Connection timed out
[1741608681.471888] [ohm:3250172:0]        ib_iface.c:1059 UCX  ERROR ibv_create_cq(cqe=256) failed: Connection timed out
[1741608681.499347] [ohm:3250180:0]        ib_iface.c:1059 UCX  ERROR ibv_create_cq(cqe=256) failed: Connection timed out
[1741608681.513105] [ohm:3250262:0]        ib_iface.c:1059 UCX  ERROR ibv_create_cq(cqe=256) failed: Connection timed out
[1741608681.526277] [ohm:3250251:0]        ib_iface.c:1059 UCX  ERROR ibv_create_cq(cqe=256) failed: Connection timed out
[1741608681.558905] [ohm:3250223:0]        ib_iface.c:1059 UCX  ERROR ibv_create_cq(cqe=256) failed: Connection timed out
[1741608681.568283] [ohm:3250218:0]        ib_iface.c:1059 UCX  ERROR ibv_create_cq(cqe=256) failed: Connection timed out
[1741608681.577042] [ohm:3250220:0]        ib_iface.c:1059 UCX  ERROR ibv_create_cq(cqe=256) failed: Connection timed out
[1741608681.581111] [ohm:3250230:0]        ib_iface.c:1059 UCX  ERROR ibv_create_cq(cqe=256) failed: Connection timed out
[1741608681.590524] [ohm:3250226:0]        ib_iface.c:1059 UCX  ERROR ibv_create_cq(cqe=256) failed: Connection timed out
[1741608681.597718] [ohm:3250177:0]        ib_iface.c:1059 UCX  ERROR ibv_create_cq(cqe=256) failed: Connection timed out
[1741608681.607014] [ohm:3250231:0]        ib_iface.c:1059 UCX  ERROR ibv_create_cq(cqe=256) failed: Connection timed out
[1741608681.608097] [ohm:3250225:0]        ib_iface.c:1059 UCX  ERROR ibv_create_cq(cqe=256) failed: Connection timed out
[1741608681.625142] [ohm:3250260:0]        ib_iface.c:1059 UCX  ERROR ibv_create_cq(cqe=256) failed: Connection timed out
[1741608681.626909] [ohm:3250227:0]        ib_iface.c:1059 UCX  ERROR ibv_create_cq(cqe=256) failed: Connection timed out
[1741608681.628511] [ohm:3250238:0]        ib_iface.c:1059 UCX  ERROR ibv_create_cq(cqe=256) failed: Connection timed out
[1741608681.628886] [ohm:3250247:0]        ib_iface.c:1059 UCX  ERROR ibv_create_cq(cqe=256) failed: Connection timed out
[1741608681.639737] [ohm:3250174:0]        ib_iface.c:1059 UCX  ERROR ibv_create_cq(cqe=256) failed: Connection timed out
[1741608681.646883] [ohm:3250199:0]        ib_iface.c:1059 UCX  ERROR ibv_create_cq(cqe=256) failed: Connection timed out
[1741608681.663104] [ohm:3250182:0]        ib_iface.c:1059 UCX  ERROR ibv_create_cq(cqe=256) failed: Connection timed out
[1741608681.678105] [ohm:3250268:0]        ib_iface.c:1059 UCX  ERROR ibv_create_cq(cqe=256) failed: Connection timed out
[1741608681.679902] [ohm:3250265:0]        ib_iface.c:1059 UCX  ERROR ibv_create_cq(cqe=256) failed: Connection timed out
[1741608681.689155] [ohm:3250185:0]        ib_iface.c:1059 UCX  ERROR ibv_create_cq(cqe=256) failed: Connection timed out
[1741608681.692094] [ohm:3250241:0]        ib_iface.c:1059 UCX  ERROR ibv_create_cq(cqe=256) failed: Connection timed out
[1741608681.700453] [ohm:3250175:0]        ib_iface.c:1059 UCX  ERROR ibv_create_cq(cqe=256) failed: Connection timed out
[1741608681.702512] [ohm:3250181:0]        ib_iface.c:1059 UCX  ERROR ibv_create_cq(cqe=256) failed: Connection timed out
[1741608681.707442] [ohm:3250200:0]        ib_iface.c:1059 UCX  ERROR ibv_create_cq(cqe=256) failed: Connection timed out
[1741608681.714017] [ohm:3250183:0]        ib_iface.c:1059 UCX  ERROR ibv_create_cq(cqe=256) failed: Connection timed out
[1741608681.715151] [ohm:3250178:0]        ib_iface.c:1059 UCX  ERROR ibv_create_cq(cqe=256) failed: Connection timed out
[1741608681.718914] [ohm:3250228:0]        ib_iface.c:1059 UCX  ERROR ibv_create_cq(cqe=256) failed: Connection timed out
[1741608681.718947] [ohm:3250243:0]        ib_iface.c:1059 UCX  ERROR ibv_create_cq(cqe=256) failed: Connection timed out
[1741608681.725635] [ohm:3250272:0]        ib_iface.c:1059 UCX  ERROR ibv_create_cq(cqe=256) failed: Connection timed out
[1741608681.726240] [ohm:3250289:0]        ib_iface.c:1059 UCX  ERROR ibv_create_cq(cqe=256) failed: Connection timed out
[1741608681.729103] [ohm:3250235:0]        ib_iface.c:1059 UCX  ERROR ibv_create_cq(cqe=256) failed: Connection timed out
[1741608681.729843] [ohm:3250202:0]        ib_iface.c:1059 UCX  ERROR ibv_create_cq(cqe=256) failed: Connection timed out
[1741608681.729941] [ohm:3250208:0]        ib_iface.c:1059 UCX  ERROR ibv_create_cq(cqe=256) failed: Connection timed out
[1741608681.731658] [ohm:3250184:0]        ib_iface.c:1059 UCX  ERROR ibv_create_cq(cqe=256) failed: Connection timed out
[1741608681.732505] [ohm:3250240:0]        ib_iface.c:1059 UCX  ERROR ibv_create_cq(cqe=256) failed: Connection timed out
[1741608681.732808] [ohm:3250224:0]        ib_iface.c:1059 UCX  ERROR ibv_create_cq(cqe=256) failed: Connection timed out
[1741608681.735918] [ohm:3250239:0]        ib_iface.c:1059 UCX  ERROR ibv_create_cq(cqe=256) failed: Connection timed out
[1741608681.739103] [ohm:3250255:0]        ib_iface.c:1059 UCX  ERROR ibv_create_cq(cqe=256) failed: Connection timed out
[1741608681.754872] [ohm:3250282:0]        ib_iface.c:1059 UCX  ERROR ibv_create_cq(cqe=256) failed: Connection timed out
[1741608681.755208] [ohm:3250295:0]        ib_iface.c:1059 UCX  ERROR ibv_create_cq(cqe=256) failed: Connection timed out
[1741608681.758732] [ohm:3250319:0]        ib_iface.c:1059 UCX  ERROR ibv_create_cq(cqe=256) failed: Connection timed out
[1741608681.759998] [ohm:3250234:0]        ib_iface.c:1059 UCX  ERROR ibv_create_cq(cqe=256) failed: Connection timed out
[1741608681.760075] [ohm:3250233:0]        ib_iface.c:1059 UCX  ERROR ibv_create_cq(cqe=256) failed: Connection timed out
[1741608681.765453] [ohm:3250302:0]        ib_iface.c:1059 UCX  ERROR ibv_create_cq(cqe=256) failed: Connection timed out
[1741608681.784625] [ohm:3250176:0]        ib_iface.c:1059 UCX  ERROR ibv_create_cq(cqe=256) failed: Connection timed out
[1741608681.787294] [ohm:3250309:0]        ib_iface.c:1059 UCX  ERROR ibv_create_cq(cqe=256) failed: Connection timed out
[1741608681.791083] [ohm:3250287:0]        ib_iface.c:1059 UCX  ERROR ibv_create_cq(cqe=256) failed: Connection timed out
[1741608681.795596] [ohm:3250237:0]        ib_iface.c:1059 UCX  ERROR ibv_create_cq(cqe=256) failed: Connection timed out
[1741608681.796059] [ohm:3250179:0]        ib_iface.c:1059 UCX  ERROR ibv_create_cq(cqe=256) failed: Connection timed out
[1741608681.796323] [ohm:3250229:0]        ib_iface.c:1059 UCX  ERROR ibv_create_cq(cqe=256) failed: Connection timed out
[1741608681.799863] [ohm:3250279:0]        ib_iface.c:1059 UCX  ERROR ibv_create_cq(cqe=256) failed: Connection timed out
[1741608681.803351] [ohm:3250299:0]        ib_iface.c:1059 UCX  ERROR ibv_create_cq(cqe=256) failed: Connection timed out
[1741608681.804783] [ohm:3250306:0]        ib_iface.c:1059 UCX  ERROR ibv_create_cq(cqe=256) failed: Connection timed out
[1741608681.808878] [ohm:3250326:0]        ib_iface.c:1059 UCX  ERROR ibv_create_cq(cqe=256) failed: Connection timed out
[1741608681.808887] [ohm:3250312:0]        ib_iface.c:1059 UCX  ERROR ibv_create_cq(cqe=256) failed: Connection timed out
[1741608681.811314] [ohm:3250314:0]        ib_iface.c:1059 UCX  ERROR ibv_create_cq(cqe=256) failed: Connection timed out
[1741608681.813998] [ohm:3250292:0]        ib_iface.c:1059 UCX  ERROR ibv_create_cq(cqe=256) failed: Connection timed out
[1741608681.814001] [ohm:3250232:0]        ib_iface.c:1059 UCX  ERROR ibv_create_cq(cqe=256) failed: Connection timed out

--------------------------------
SUGGESTED CITATIONS FOR THIS RUN
--------------------------------

Below you find a list of papers that are relevant to this ORCA run
We neither can nor want to force you to cite these papers, but we appreciate if you do
You receive ORCA, which is the product of decades of hard work by many enthusiastic individuals, for free
The only thing we kindly ask in return is that you cite our papers,
We deeply appreciate it, if you show your appreciation for ORCA by not just citing the generic ORCA reference.

Please note that relegating all ORCA citations to the supporting information does *not* help us.
SI sections are not indexed - citations you put there will not count into any citation statistics
But we need these citations in order to attract the funding resources that allow us to do what we are doing

Therefore, if you are a happy ORCA user, please consider citing a few of the papers listed below in the main body of your paper

In addition to the list printed below, the program has created the file orca.bibtex that contains the list in bibtex format
You can import this file easily into all common literature databanks and citation aid programs


List of essential papers. We consider these as the minimum necessary citations

  1. Neese,F.
     Software update: the ORCA program system, version 5.0
     WIRES Comput. Molec. Sci., 2022 12(1)e1606
     doi.org/10.1002/wcms.1606

List of papers to cite with high priority. The work reported in these papers was absolutely
necessary for this run to complete.
Our perspective: the developers of density functionals and basis sets usually get cited in chemistry papers
Good! But without the algorithms to do something with them, the functionals or basis sets would not do anything.
Hence, in our opinion, the algorithm design and method developments papers are equally worthy of getting cited

  1. Neese,F.; Olbrich,G.
     Efficient use of the resolution of the identity approximation in time-dependent density functional calculations with hybrid density functionals
     Chem. Phys. Lett., 2002 362 170-178
     doi.org/10.1016/s0009-2614(02)01053-9
  2. Neese,F.
     An improvement of the resolution of the identity approximation for the formation of the Coulomb matrix
     J. Comp. Chem., 2003 24(14)1740-1747
     doi.org/10.1002/jcc.10318
  3. Neese,F.; Wennmohs,F.; Hansen,A.; Becker,U.
     Efficient, approximate and parallel Hartree-Fock and hybrid DFT calculations. A 'chain-of-spheres' algorithm for the Hartree-Fock exchange
     Chem. Phys., 2009 356(1-3)98-109
     doi.org/10.1016/j.chemphys.2008.10.036
  4. Petrenko,T.; Kossmann,S.; Neese,F.
     Efficient time-dependent density functional theory approximations for hybrid density functionals: Analytical gradients and parallelization
     J. Chem. Phys., 2011 134 054116
     doi.org/10.1063/1.3533441
  5. Helmich-Paris,B.; de Souza,B.; Neese,F.; Izsák,R.
     An improved chain of spheres for exchange algorithm
     J. Chem. Phys., 2021 155 104109
     doi.org/doi: 10.1063/5.0058766.
  6. Neese,F.
     The SHARK Integral Generation and Digestion System
     J. Comp. Chem., 2022  1-16
     doi.org/10.1002/jcc.26942
  7. Lehtola,S.; Steigemann,C.; Oliveira,M.; Marques,M.
     Recent developments in Libxc - A comprehensive library of functionals for density functional theory
     Software X, 2018 7 
     doi.org/10.1016/j.softx.2017.11.002
  8. Grimme,S.; Antony,J.; Ehrlich,S.; Krieg,H.
     A consistent and accurate ab initio parametrization of density functional dispersion correction (DFT-D) for the 94 elements H-Pu
     J. Chem. Phys., 2010 132 154104-XXXX
     doi.org/10.1063/1.3382344
  9. Grimme,S.; Ehrlich,S.; Goerigk,L.
     Effect of the damping function in dispersion corrected density functional theory
     J. Comput. Chem., 2011 32(7)1456-1465
     doi.org/10.1002/jcc.21759

List of suggested additional citations. These are papers that are important in the 'surrounding' of 
of this run, or papers that preceded the highly important papers. If you like your results we are grateful for a citation.

  1. Izsak,R.; Neese,F.
     An overlap fitted chain of spheres exchange method
     J. Chem. Phys., 2011 135 144105
     doi.org/10.1063/1.3646921
  2. Izsak,R.; Hansen,A.; Neese,F.
     The resolution of identity and chain of spheres approximations for the LPNO-CCSD singles Fock term
     Molec. Phys., 2012 110 2413-2417
     doi.org/10.1080/00268976.2012.687466
  3. Neese,F.
     The ORCA program system
     WIRES Comput. Molec. Sci., 2012 2(1)73-78
     doi.org/10.1002/wcms.81
  4. Izsak,R.; Neese,F.; Klopper,W.
     Robust fitting techniques in the chain of spheres approximation to the Fock exchange: The role of the complementary space
     J. Chem. Phys., 2013 139 
     doi.org/10.1063/1.4819264
  5. Neese,F.
     Software update: the ORCA program system, version 4.0
     WIRES Comput. Molec. Sci., 2018 8(1)1-6
     doi.org/10.1002/wcms.1327
  6. Neese,F.; Wennmohs,F.; Becker,U.; Riplinger,C.
     The ORCA quantum chemistry program package
     J. Chem. Phys., 2020 152 Art. No. L224108
     doi.org/10.1063/5.0004608

List of optional additional citations

  1. Neese,F.
     Approximate second-order SCF convergence for spin unrestricted wavefunctions
     Chem. Phys. Lett., 2000 325(1-3)93-98
     doi.org/10.1016/s0009-2614(00)00662-x

Timings for individual modules:

Sum of individual times          ...       26.179 sec (=   0.436 min)
Startup calculation              ...        2.572 sec (=   0.043 min)   9.8 %
SCF iterations                   ...       11.491 sec (=   0.192 min)  43.9 %
Property integrals               ...        2.164 sec (=   0.036 min)   8.3 %
Property calculations            ...        2.151 sec (=   0.036 min)   8.2 %
CIS module                       ...        7.800 sec (=   0.130 min)  29.8 %
                             ****ORCA TERMINATED NORMALLY****
TOTAL RUN TIME: 0 days 0 hours 0 minutes 28 seconds 381 msec
