
                                 *****************
                                 * O   R   C   A *
                                 *****************

                                            #,                                       
                                            ###                                      
                                            ####                                     
                                            #####                                    
                                            ######                                   
                                           ########,                                 
                                     ,,################,,,,,                         
                               ,,#################################,,                 
                          ,,##########################################,,             
                       ,#########################################, ''#####,          
                    ,#############################################,,   '####,        
                  ,##################################################,,,,####,       
                ,###########''''           ''''###############################       
              ,#####''   ,,,,##########,,,,          '''####'''          '####       
            ,##' ,,,,###########################,,,                        '##       
           ' ,,###''''                  '''############,,,                           
         ,,##''                                '''############,,,,        ,,,,,,###''
      ,#''                                            '''#######################'''  
     '                                                          ''''####''''         
             ,#######,   #######,   ,#######,      ##                                
            ,#'     '#,  ##    ##  ,#'     '#,    #''#        ,####,   ,####,        
            ##       ##  ##   ,#'  ##            #'  '#       #'       #'  '#        
            ##       ##  #######   ##           ,######,      #####,   #    #        
            '#,     ,#'  ##    ##  '#,     ,#' ,#      #,     #,   #   #,  ,#        
             '#######'   ##     ##  '#######'  #'      '#     '####' # '####'        



                #########################################################
                #                        -***-                          #
                #          Department of theory and spectroscopy        #
                #                                                       #
                #                      Frank Neese                      #
                #                                                       #
                #     Directorship, Architecture, Infrastructure        #
                #                    SHARK, DRIVERS                     #
                #        Core code/Algorithms in most modules           #
                #                                                       #
                #        Max Planck Institute fuer Kohlenforschung      #
                #                Kaiser Wilhelm Platz 1                 #
                #                 D-45470 Muelheim/Ruhr                 #
                #                      Germany                          #
                #                                                       #
                #                  All rights reserved                  #
                #                        -***-                          #
                #########################################################


                         Program Version 6.0.0  -   RELEASE  -


 With contributions from (in alphabetic order):
   Daniel Aravena         : Magnetic Suceptibility
   Michael Atanasov       : Ab Initio Ligand Field Theory (pilot matlab implementation)
   Alexander A. Auer      : GIAO ZORA, VPT2 properties, NMR spectrum
   Ute Becker             : All parallelization in ORCA, NUMFREQ, NUMCALC
   Giovanni Bistoni       : ED, misc. LED, open-shell LED, HFLD
   Martin Brehm           : Molecular dynamics
   Dmytro Bykov           : pre 5.0 version of the SCF Hessian
   Marcos Casanova-Páez   : Triplet and SCS-CIS(D). UHF-(DLPNO)-IP/EA/STEOM-CCSD. UHF-CVS-IP/STEOM-CCSD
   Vijay G. Chilkuri      : MRCI spin determinant printing, contributions to CSF-ICE
   Pauline Colinet        : FMM embedding
   Dipayan Datta          : RHF DLPNO-CCSD density
   Achintya Kumar Dutta   : EOM-CC, STEOM-CC
   Nicolas Foglia         : Exact transition moments, OPA infrastructure, MCD improvements
   Dmitry Ganyushin       : Spin-Orbit,Spin-Spin,Magnetic field MRCI
   Miquel Garcia          : C-PCM and meta-GGA Hessian, CCSD/C-PCM, Gaussian charge scheme
   Tiago L. C. Gouveia    : GS-ROHF, GS-ROCIS
   Yang Guo               : DLPNO-NEVPT2, F12-NEVPT2, CIM, IAO-localization
   Andreas Hansen         : Spin unrestricted coupled pair/coupled cluster methods
   Ingolf Harden          : AUTO-CI MPn and infrastructure 
   Benjamin Helmich-Paris : MC-RPA, TRAH-(SCF,CASSCF), AVAS, COSX integrals, SCF dyn. polar.
   Lee Huntington         : MR-EOM, pCC
   Robert Izsak           : Overlap fitted RIJCOSX, COSX-SCS-MP3, EOM
   Riya Kayal             : Wick's Theorem for AUTO-CI, AUTO-CI UHF-CCSDT
   Emily Kempfer          : AUTO-CI, RHF CISDT and CCSDT
   Christian Kollmar      : KDIIS, OOCD, Brueckner-CCSD(T), CCSD density, CASPT2, CASPT2-K, improved NEVPT2
   Axel Koslowski         : Symmetry handling
   Simone Kossmann        : Meta GGA functionals, TD-DFT gradient, OOMP2, (MP2 Hessian; deprecated post 5.0)
   Lucas Lang             : DCDCAS
   Marvin Lechner         : AUTO-CI (C++ implementation), FIC-MRCC
   Spencer Leger          : CASSCF response
   Dagmar Lenk            : GEPOL surface, SMD, ORCA-2-JSON
   Dimitrios Liakos       : Extrapolation schemes; Compound Job, initial MDCI parallelization
   Dimitrios Manganas     : Further ROCIS development; embedding schemes. LFT, Crystal Embedding
   Dimitrios Pantazis     : SARC Basis sets
   Anastasios Papadopoulos: AUTO-CI, single reference methods and gradients
   Taras Petrenko         : pre 6.0 DFT Hessian and TD-DFT gradient, (ASA, deprecated), ECA, 1-Electron XAS/XES, NRVS
   Peter Pinski           : DLPNO-MP2, DLPNO-MP2 Gradient
   Christoph Reimann      : Effective Core Potentials
   Marius Retegan         : Local ZFS, SOC
   Christoph Riplinger    : Optimizer, TS searches, QM/MM, DLPNO-CCSD(T), (RO)-DLPNO pert. Triples
   Michael Roemelt        : Original ROCIS implementation
   Masaaki Saitow         : Open-shell DLPNO-CCSD energy and density
   Barbara Sandhoefer     : DKH picture change effects
   Kantharuban Sivalingam : CASSCF convergence/infrastructure, NEVPT2 and variants, FIC-MRCI
   Bernardo de Souza      : ESD, SOC TD-DFT
   Georgi Stoychev        : AutoAux, RI-MP2 NMR, DLPNO-MP2 response, X2C
   Van Anh Tran           : RI-MP2 g-tensors
   Willem Van den Heuvel  : Paramagnetic NMR
   Zikuan Wang            : NOTCH, Electric field optimization 
   Frank Wennmohs         : Technical directorship and infrastructure
   Hang Xu                : AUTO-CI-Response properties 


 We gratefully acknowledge several colleagues who have allowed us to
 interface, adapt or use parts of their codes:
   Stefan Grimme, W. Hujo, H. Kruse, P. Pracht,  : VdW corrections, initial TS optimization,
                  C. Bannwarth, S. Ehlert,         DFT functionals, gCP, sTDA/sTD-DF
                  L. Wittmann, M. Mueller
   Ed Valeev, F. Pavosevic, A. Kumar             : LibInt (2-el integral package), F12 methods
   Garnet Chan, S. Sharma, J. Yang, R. Olivares  : DMRG
   Ulf Ekstrom                                   : XCFun DFT Library
   Mihaly Kallay                                 : mrcc  (arbitrary order and MRCC methods)
   Frank Weinhold                                : gennbo (NPA and NBO analysis)
   Simon Mueller                                 : openCOSMO-RS
   Christopher J. Cramer and Donald G. Truhlar   : smd solvation model
   Lars Goerigk                                  : TD-DFT with DH, B97 family of functionals
   V. Asgeirsson, H. Jonsson                     : NEB implementation
   FAccTs GmbH                                   : IRC, NEB, NEB-TS, DLPNO-Multilevel, CI-OPT
                                                   MM, QMMM, 2- and 3-layer-ONIOM, Crystal-QMMM,
                                                   LR-CPCM, SF, NACMEs, symmetry and pop. for TD-DFT,
                                                   nearIR, NL-DFT gradient (VV10), updates on ESD,
                                                   ML-optimized integration grids, MBIS, APM,
                                                   GOAT, DOCKER, SOLVATOR, interface openCOSMO-RS
   S Lehtola, MJT Oliveira, MAL Marques          : LibXC Library
   Liviu Ungur et al                             : ANISO software


 Your calculation uses the libint2 library for the computation of 2-el integrals
 For citations please refer to: http://libint.valeyev.net

 Your ORCA version has been built with support for libXC version: 6.2.2
 For citations please refer to: https://libxc.gitlab.io

 This ORCA versions uses:
   CBLAS   interface :  Fast vector & matrix operations
   LAPACKE interface :  Fast linear algebra routines
   SCALAPACK package :  Parallel linear algebra routines
   Shared memory     :  Shared parallel matrices
   BLAS/LAPACK       :  OpenBLAS 0.3.27  USE64BITINT DYNAMIC_ARCH NO_AFFINITY Zen SINGLE_THREADED
        Core in use  :  Zen
   Copyright (c) 2011-2014, The OpenBLAS Project


Your calculation utilizes the atom-pairwise dispersion correction
with the Becke-Johnson damping scheme (D3BJ)


Warning: RI is on but no J-basis has been assigned. Assigning Def2/J (nothing to worry about!)
================================================================================

----- Orbital basis set information -----
Your calculation utilizes the basis: def2-TZVPPD
   F. Weigend and R. Ahlrichs, Phys. Chem. Chem. Phys. 7, 3297 (2005).
   D. Rappoport and F. Furche, J. Chem. Phys. 133, 134105 (2010)
   D. Rappoport, J. Chem. Phys. 155, 124102 (2021).

----- AuxJ basis set information -----
Your calculation utilizes the auxiliary basis: def2/J
   F. Weigend, Phys. Chem. Chem. Phys. 8, 1057 (2006).

================================================================================
                                        WARNINGS
                       Please study these warnings very carefully!
================================================================================

Using LibXC functional ID 531 : wB97M-V exchange-correlation functional
[ 1]  N. Mardirossian and M. Head-Gordon.,  J. Chem. Phys. 144, 214110 (2016)
Using LibXC functional ID 531 : wB97M-V exchange-correlation functional
[ 1]  N. Mardirossian and M. Head-Gordon.,  J. Chem. Phys. 144, 214110 (2016)

WARNING: B97M-V or wB97M-V functional requested.
  ===> : libXC variant has now been activated.
         Any manually given DFX/HFX/RangeSep scaling parameters are IGNORED!

Your calculation utilizes LibXC
 by S Lehtola, C Steigemann, MJT Oliveira & MAL Marques
Please cite in your paper:
 S Lehtola, C Steigemann, MJT Oliveira & MAL Marques, SoftwareX, 7, (2018), 1.
   


WARNING: your system is open-shell and RHF/RKS was chosen
  ===> : WILL SWITCH to UHF/UKS

INFO   : Checking CIS options ...

WARNING: CIS/ROCIS methods need fully converged wavefunctions
  ===> : Setting SCFConvForced true
         You can overwrite this default with %scf ConvForced false 


================================================================================
                                       INPUT FILE
================================================================================
NAME = orca.inp
|  1> ! Engrad def2-TZVPPD wB97M-D3BJ 
|  2> %pal nprocs 8 end%pal nprocs 32 end 
|  3>  %tddft nroots 2 Iroot 1 
|  4> sf true 
|  5> end 
|  6> *xyz 0 3 
|  7> O   2.60755995570874 1.15850437023835 -0.55354945613576
|  8> O   -0.5982634642633 0.8444775871161 -2.27373391227166
|  9> O   0.70197009008647 -2.86705120931525 -1.45561026766168
| 10> O   -2.5800481210622 -1.646317073666 0.9702437355217
| 11> N   0.58435044485608 -2.05283432153505 0.66810465722742
| 12> N   -1.97284087653373 0.49511687532162 1.44646726938971
| 13> N   1.71157274292992 -0.88089625124491 -0.96155459188622
| 14> N   -1.64207303887201 -0.3550484113783 -0.66264798109442
| 15> C   1.33847664400016 0.15344636488243 1.18037794222278
| 16> C   -0.77976559109863 1.8326736141618 -0.1208697717665
| 17> C   0.73361571333666 -0.98987387529303 1.52885041297468
| 18> C   -1.32530484148052 1.65359922992931 1.08644297123228
| 19> C   1.60744612634177 1.27181565691989 2.13498443236794
| 20> C   -0.07955870124976 3.08479999449881 -0.54081704069087
| 21> C   1.94602147558489 0.22545576119464 -0.14953959458552
| 22> C   -0.97358540894349 0.78466302166774 -1.12488666080335
| 23> C   0.97704799931099 -2.00516938532189 -0.65206595003075
| 24> C   -2.10828988299609 -0.58855095965004 0.60836316735227
| 25> H   0.31877595643475 -1.14348199197092 2.51335866640092
| 26> H   -1.26550823395972 2.40422154326631 1.85935596773283
| 27> H   1.37192783565882 2.2319854236789 1.68415645733799
| 28> H   1.02498368966527 1.15137675057488 3.04642463204257
| 29> H   2.66288047815093 1.30062473063158 2.401391373948
| 30> H   -0.56722283359009 3.51643138665617 -1.41250496451677
| 31> H   -0.08679201579952 3.81679869104717 0.26406055524813
| 32> H   0.95080914536376 2.87189892584079 -0.8161118447734
| 33> H   -0.04440574001544 -2.80270052595438 0.90041619209
| 34> H   -2.33635772481135 0.36992006457231 2.37355695952629
| 35> H   2.00590191759882 -0.80093023539356 -1.92251389748423
| 36> H   -1.73072374035219 -1.11995575147549 -1.31554945891445
| 37> *
| 38> 
| 39>                          ****END OF INPUT****
================================================================================

                     *******************************
                     * Energy+Gradient Calculation *
                     *******************************

---------------------------------
CARTESIAN COORDINATES (ANGSTROEM)
---------------------------------
  O      2.607560    1.158504   -0.553549
  O     -0.598263    0.844478   -2.273734
  O      0.701970   -2.867051   -1.455610
  O     -2.580048   -1.646317    0.970244
  N      0.584350   -2.052834    0.668105
  N     -1.972841    0.495117    1.446467
  N      1.711573   -0.880896   -0.961555
  N     -1.642073   -0.355048   -0.662648
  C      1.338477    0.153446    1.180378
  C     -0.779766    1.832674   -0.120870
  C      0.733616   -0.989874    1.528850
  C     -1.325305    1.653599    1.086443
  C      1.607446    1.271816    2.134984
  C     -0.079559    3.084800   -0.540817
  C      1.946021    0.225456   -0.149540
  C     -0.973585    0.784663   -1.124887
  C      0.977048   -2.005169   -0.652066
  C     -2.108290   -0.588551    0.608363
  H      0.318776   -1.143482    2.513359
  H     -1.265508    2.404222    1.859356
  H      1.371928    2.231985    1.684156
  H      1.024984    1.151377    3.046425
  H      2.662880    1.300625    2.401391
  H     -0.567223    3.516431   -1.412505
  H     -0.086792    3.816799    0.264061
  H      0.950809    2.871899   -0.816112
  H     -0.044406   -2.802701    0.900416
  H     -2.336358    0.369920    2.373557
  H      2.005902   -0.800930   -1.922514
  H     -1.730724   -1.119956   -1.315549

----------------------------
CARTESIAN COORDINATES (A.U.)
----------------------------
  NO LB      ZA    FRAG     MASS         X           Y           Z
   0 O     8.0000    0    15.999    4.927574    2.189256   -1.046057
   1 O     8.0000    0    15.999   -1.130554    1.595831   -4.296734
   2 O     8.0000    0    15.999    1.326531   -5.417942   -2.750705
   3 O     8.0000    0    15.999   -4.875584   -3.111088    1.833495
   4 N     7.0000    0    14.007    1.104262   -3.879295    1.262535
   5 N     7.0000    0    14.007   -3.728129    0.935635    2.733427
   6 N     7.0000    0    14.007    3.234404   -1.664653   -1.817075
   7 N     7.0000    0    14.007   -3.103068   -0.670944   -1.252223
   8 C     6.0000    0    12.011    2.529354    0.289972    2.230591
   9 C     6.0000    0    12.011   -1.473543    3.463251   -0.228411
  10 C     6.0000    0    12.011    1.386333   -1.870591    2.889109
  11 C     6.0000    0    12.011   -2.504463    3.124850    2.053080
  12 C     6.0000    0    12.011    3.037633    2.403383    4.034536
  13 C     6.0000    0    12.011   -0.150344    5.829427   -1.021996
  14 C     6.0000    0    12.011    3.677448    0.426050   -0.282589
  15 C     6.0000    0    12.011   -1.839810    1.482798   -2.125728
  16 C     6.0000    0    12.011    1.846353   -3.789221   -1.232226
  17 C     6.0000    0    12.011   -3.984090   -1.112200    1.149640
  18 H     1.0000    0     1.008    0.602399   -2.160868    4.749560
  19 H     1.0000    0     1.008   -2.391464    4.543320    3.513674
  20 H     1.0000    0     1.008    2.592568    4.217841    3.182594
  21 H     1.0000    0     1.008    1.936938    2.175787    5.756908
  22 H     1.0000    0     1.008    5.032115    2.457825    4.537972
  23 H     1.0000    0     1.008   -1.071896    6.645092   -2.669248
  24 H     1.0000    0     1.008   -0.164013    7.212704    0.499002
  25 H     1.0000    0     1.008    1.796769    5.427102   -1.542228
  26 H     1.0000    0     1.008   -0.083915   -5.296336    1.701540
  27 H     1.0000    0     1.008   -4.415076    0.699048    4.485373
  28 H     1.0000    0     1.008    3.790605   -1.513539   -3.633025
  29 H     1.0000    0     1.008   -3.270594   -2.116410   -2.486028

--------------------------------
INTERNAL COORDINATES (ANGSTROEM)
--------------------------------
 O      0   0   0     0.000000000000     0.00000000     0.00000000
 O      1   0   0     3.651705243265     0.00000000     0.00000000
 O      2   1   0     4.016886804537    72.50317687     0.00000000
 O      3   2   1     4.259882981141    66.53523042   107.54704137
 N      3   2   1     2.277487344309    80.95983016    59.93253007
 N      4   3   2     2.276231282162   100.55686842   317.73485856
 N      1   2   3     2.264600664834    59.35933520   359.70164375
 N      2   1   3     2.263625173642    96.61051157    56.71463018
 C      1   2   3     2.372175851189    80.68990494   296.21940803
 C      2   1   3     2.375773225160    66.69873583   113.08274874
 C      9   1   2     1.339578657605   142.49692933    68.63081284
 C     10   2   1     1.336893701161   142.54216028   242.44986114
 C      9   1   2     1.494780253693    93.06910218   237.33841809
 C     10   2   1     1.494812988171    93.32809713    69.04179660
 C      1   2   3     1.213027961653    67.16829586   324.84607468
 C      2   1   3     1.210080307915    80.17238558    84.66820092
 C      3   2   1     1.210037852743    63.30155891    33.71738285
 C      4   3   2     1.213417707454    77.31649222   337.66467903
 H     11   9   1     1.079325705466   122.16080742   171.99853638
 H     12  10   2     1.079075526416   122.07696232   185.87900994
 H     13   9   1     1.086572919465   110.92659946    51.48300167
 H     13   9   1     1.088343354775   110.83793557   172.99819306
 H     13   9   1     1.088918863933   110.51435683   293.28334783
 H     14  10   2     1.088100087865   110.32859496    54.25466423
 H     14  10   2     1.087980862438   110.64795724   174.74943422
 H     14  10   2     1.087553214112   110.54413323   295.57535643
 H      5   3   2     1.005784427089    88.91847939   122.50489921
 H      6   4   3     1.003650354437    88.81291806   218.13049218
 H      7   1   2     1.008199887804    89.12863388    76.99245122
 H      8   2   1     1.009565513252    88.95145108   243.12312503

---------------------------
INTERNAL COORDINATES (A.U.)
---------------------------
 O      0   0   0     0.000000000000     0.00000000     0.00000000
 O      1   0   0     6.900722831576     0.00000000     0.00000000
 O      2   1   0     7.590815971538    72.50317687     0.00000000
 O      3   2   1     8.050012196908    66.53523042   107.54704137
 N      3   2   1     4.303827354215    80.95983016    59.93253007
 N      4   3   2     4.301453740751   100.55686842   317.73485856
 N      1   2   3     4.279475059233    59.35933520   359.70164375
 N      2   1   3     4.277631648033    96.61051157    56.71463018
 C      1   2   3     4.482762700249    80.68990494   296.21940803
 C      2   1   3     4.489560751855    66.69873583   113.08274874
 C      9   1   2     2.531436797719   142.49692933    68.63081284
 C     10   2   1     2.526362965358   142.54216028   242.44986114
 C      9   1   2     2.824725309873    93.06910218   237.33841809
 C     10   2   1     2.824787169072    93.32809713    69.04179660
 C      1   2   3     2.292290640314    67.16829586   324.84607468
 C      2   1   3     2.286720382011    80.17238558    84.66820092
 C      3   2   1     2.286640153362    63.30155891    33.71738285
 C      4   3   2     2.293027153138    77.31649222   337.66467903
 H     11   9   1     2.039629992633   122.16080742   171.99853638
 H     12  10   2     2.039157222743   122.07696232   185.87900994
 H     13   9   1     2.053325242323   110.92659946    51.48300167
 H     13   9   1     2.056670880198   110.83793557   172.99819306
 H     13   9   1     2.057758434894   110.51435683   293.28334783
 H     14  10   2     2.056211172360   110.32859496    54.25466423
 H     14  10   2     2.055985868956   110.64795724   174.74943422
 H     14  10   2     2.055177730738   110.54413323   295.57535643
 H      5   3   2     1.900657116961    88.91847939   122.50489921
 H      6   4   3     1.896624304098    88.81291806   218.13049218
 H      7   1   2     1.905221676200    89.12863388    76.99245122
 H      8   2   1     1.907802334297    88.95145108   243.12312503

---------------------
BASIS SET INFORMATION
---------------------
There are 4 groups of distinct atoms

 Group   1 Type O   : 12s7p3d1f contracted to 6s4p3d1f pattern {621111/4111/111/1}
 Group   2 Type N   : 12s6p3d1f contracted to 6s3p3d1f pattern {621111/411/111/1}
 Group   3 Type C   : 12s6p3d1f contracted to 6s3p3d1f pattern {621111/411/111/1}
 Group   4 Type H   : 5s3p1d contracted to 3s3p1d pattern {311/111/1}

Atom   0O    basis set group =>   1
Atom   1O    basis set group =>   1
Atom   2O    basis set group =>   1
Atom   3O    basis set group =>   1
Atom   4N    basis set group =>   2
Atom   5N    basis set group =>   2
Atom   6N    basis set group =>   2
Atom   7N    basis set group =>   2
Atom   8C    basis set group =>   3
Atom   9C    basis set group =>   3
Atom  10C    basis set group =>   3
Atom  11C    basis set group =>   3
Atom  12C    basis set group =>   3
Atom  13C    basis set group =>   3
Atom  14C    basis set group =>   3
Atom  15C    basis set group =>   3
Atom  16C    basis set group =>   3
Atom  17C    basis set group =>   3
Atom  18H    basis set group =>   4
Atom  19H    basis set group =>   4
Atom  20H    basis set group =>   4
Atom  21H    basis set group =>   4
Atom  22H    basis set group =>   4
Atom  23H    basis set group =>   4
Atom  24H    basis set group =>   4
Atom  25H    basis set group =>   4
Atom  26H    basis set group =>   4
Atom  27H    basis set group =>   4
Atom  28H    basis set group =>   4
Atom  29H    basis set group =>   4
---------------------------------
AUXILIARY/J BASIS SET INFORMATION
---------------------------------
There are 4 groups of distinct atoms

 Group   1 Type O   : 12s5p4d2f1g contracted to 6s4p3d1f1g pattern {711111/2111/211/2/1}
 Group   2 Type N   : 12s5p4d2f1g contracted to 6s4p3d1f1g pattern {711111/2111/211/2/1}
 Group   3 Type C   : 12s5p4d2f1g contracted to 6s4p3d1f1g pattern {711111/2111/211/2/1}
 Group   4 Type H   : 5s2p1d contracted to 3s1p1d pattern {311/2/1}

Atom   0O    basis set group =>   1
Atom   1O    basis set group =>   1
Atom   2O    basis set group =>   1
Atom   3O    basis set group =>   1
Atom   4N    basis set group =>   2
Atom   5N    basis set group =>   2
Atom   6N    basis set group =>   2
Atom   7N    basis set group =>   2
Atom   8C    basis set group =>   3
Atom   9C    basis set group =>   3
Atom  10C    basis set group =>   3
Atom  11C    basis set group =>   3
Atom  12C    basis set group =>   3
Atom  13C    basis set group =>   3
Atom  14C    basis set group =>   3
Atom  15C    basis set group =>   3
Atom  16C    basis set group =>   3
Atom  17C    basis set group =>   3
Atom  18H    basis set group =>   4
Atom  19H    basis set group =>   4
Atom  20H    basis set group =>   4
Atom  21H    basis set group =>   4
Atom  22H    basis set group =>   4
Atom  23H    basis set group =>   4
Atom  24H    basis set group =>   4
Atom  25H    basis set group =>   4
Atom  26H    basis set group =>   4
Atom  27H    basis set group =>   4
Atom  28H    basis set group =>   4
Atom  29H    basis set group =>   4
[1736998165.072049] [ohm:81031:0]        ib_iface.c:1059 UCX  ERROR ibv_create_cq(cqe=256) failed: Connection timed out
[1736998165.099868] [ohm:81035:0]        ib_iface.c:1059 UCX  ERROR ibv_create_cq(cqe=256) failed: Connection timed out
[1736998165.108559] [ohm:81034:0]        ib_iface.c:1059 UCX  ERROR ibv_create_cq(cqe=256) failed: Connection timed out
[1736998165.112494] [ohm:81038:0]        ib_iface.c:1059 UCX  ERROR ibv_create_cq(cqe=256) failed: Connection timed out
[1736998165.112796] [ohm:81032:0]        ib_iface.c:1059 UCX  ERROR ibv_create_cq(cqe=256) failed: Connection timed out
[1736998165.115874] [ohm:81053:0]        ib_iface.c:1059 UCX  ERROR ibv_create_cq(cqe=256) failed: Connection timed out
[1736998165.119740] [ohm:81037:0]        ib_iface.c:1059 UCX  ERROR ibv_create_cq(cqe=256) failed: Connection timed out
[1736998165.125013] [ohm:81028:0]        ib_iface.c:1059 UCX  ERROR ibv_create_cq(cqe=256) failed: Connection timed out
[1736998165.139100] [ohm:81036:0]        ib_iface.c:1059 UCX  ERROR ibv_create_cq(cqe=256) failed: Connection timed out
[1736998165.139622] [ohm:81063:0]        ib_iface.c:1059 UCX  ERROR ibv_create_cq(cqe=256) failed: Connection timed out
[1736998165.143274] [ohm:81054:0]        ib_iface.c:1059 UCX  ERROR ibv_create_cq(cqe=256) failed: Connection timed out
[1736998165.148736] [ohm:81030:0]        ib_iface.c:1059 UCX  ERROR ibv_create_cq(cqe=256) failed: Connection timed out
[1736998165.149770] [ohm:81068:0]        ib_iface.c:1059 UCX  ERROR ibv_create_cq(cqe=256) failed: Connection timed out
[1736998165.163004] [ohm:81055:0]        ib_iface.c:1059 UCX  ERROR ibv_create_cq(cqe=256) failed: Connection timed out
[1736998165.163958] [ohm:81071:0]        ib_iface.c:1059 UCX  ERROR ibv_create_cq(cqe=256) failed: Connection timed out
[1736998165.167278] [ohm:81046:0]        ib_iface.c:1059 UCX  ERROR ibv_create_cq(cqe=256) failed: Connection timed out
[1736998165.177961] [ohm:81029:0]        ib_iface.c:1059 UCX  ERROR ibv_create_cq(cqe=256) failed: Connection timed out
[1736998165.179513] [ohm:81040:0]        ib_iface.c:1059 UCX  ERROR ibv_create_cq(cqe=256) failed: Connection timed out
[1736998165.184172] [ohm:81057:0]        ib_iface.c:1059 UCX  ERROR ibv_create_cq(cqe=256) failed: Connection timed out
[1736998165.184231] [ohm:81033:0]        ib_iface.c:1059 UCX  ERROR ibv_create_cq(cqe=256) failed: Connection timed out
[1736998165.186055] [ohm:81052:0]        ib_iface.c:1059 UCX  ERROR ibv_create_cq(cqe=256) failed: Connection timed out
[1736998165.186786] [ohm:81075:0]        ib_iface.c:1059 UCX  ERROR ibv_create_cq(cqe=256) failed: Connection timed out
[1736998165.191038] [ohm:81039:0]        ib_iface.c:1059 UCX  ERROR ibv_create_cq(cqe=256) failed: Connection timed out
[1736998165.191122] [ohm:81059:0]        ib_iface.c:1059 UCX  ERROR ibv_create_cq(cqe=256) failed: Connection timed out
[1736998165.192191] [ohm:81080:0]        ib_iface.c:1059 UCX  ERROR ibv_create_cq(cqe=256) failed: Connection timed out
[1736998165.193838] [ohm:81041:0]        ib_iface.c:1059 UCX  ERROR ibv_create_cq(cqe=256) failed: Connection timed out
[1736998165.196548] [ohm:81045:0]        ib_iface.c:1059 UCX  ERROR ibv_create_cq(cqe=256) failed: Connection timed out
[1736998165.196843] [ohm:81051:0]        ib_iface.c:1059 UCX  ERROR ibv_create_cq(cqe=256) failed: Connection timed out
[1736998165.199709] [ohm:81067:0]        ib_iface.c:1059 UCX  ERROR ibv_create_cq(cqe=256) failed: Connection timed out
[1736998165.204778] [ohm:81056:0]        ib_iface.c:1059 UCX  ERROR ibv_create_cq(cqe=256) failed: Connection timed out
[1736998165.209461] [ohm:81062:0]        ib_iface.c:1059 UCX  ERROR ibv_create_cq(cqe=256) failed: Connection timed out
[1736998165.210012] [ohm:81042:0]        ib_iface.c:1059 UCX  ERROR ibv_create_cq(cqe=256) failed: Connection timed out


           ************************************************************
           *        Program running with 32 parallel MPI-processes    *
           *              working on a common directory               *
           ************************************************************
------------------------------------------------------------------------------
                             ORCA STARTUP CALCULATIONS
                           -- RI-GTO INTEGRALS CHOSEN --
------------------------------------------------------------------------------
------------------------------------------------------------------------------
                   ___                                                        
                  /   \      - P O W E R E D   B Y -                         
                 /     \                                                     
                 |  |  |   _    _      __       _____    __    __             
                 |  |  |  | |  | |    /  \     |  _  \  |  |  /  |          
                  \  \/   | |  | |   /    \    | | | |  |  | /  /          
                 / \  \   | |__| |  /  /\  \   | |_| |  |  |/  /          
                |  |  |   |  __  | /  /__\  \  |    /   |      \           
                |  |  |   | |  | | |   __   |  |    \   |  |\   \          
                \     /   | |  | | |  |  |  |  | |\  \  |  | \   \       
                 \___/    |_|  |_| |__|  |__|  |_| \__\ |__|  \__/        
                                                                              
                      - O R C A' S   B I G   F R I E N D -                    
                                      &                                       
                       - I N T E G R A L  F E E D E R -                       
                                                                              
 v1 FN, 2020, v2 2021, v3 2022-2024                                           
------------------------------------------------------------------------------


----------------------
SHARK INTEGRAL PACKAGE
----------------------

Number of atoms                             ...     30
Number of basis functions                   ...    882
Number of shells                            ...    322
Maximum angular momentum                    ...      3
Integral batch strategy                     ... SHARK/LIBINT Hybrid
RI-J (if used) integral strategy            ... SPLIT-RIJ (Revised 2003 algorithm where possible)
Printlevel                                  ...      1
Contraction scheme used                     ... SEGMENTED contraction
Prescreening option                         ... SCHWARTZ
   Thresh                                   ... 2.500e-11
   Tcut                                     ... 2.500e-12
   Tpresel                                  ... 2.500e-12 
Coulomb Range Separation                    ... NOT USED
Exchange Range Separation                   ... Long Range
   Mu parameter                             ... 3.000e-01
   Scaling (regular/separated)              ... 1.500e-01 8.500e-01
Multipole approximations                    ... NOT USED
Finite Nucleus Model                        ... NOT USED
CABS basis                                  ... NOT available
Auxiliary Coulomb fitting basis             ... AVAILABLE
   # of basis functions in Aux-J            ...   1014
   # of shells in Aux-J                     ...    330
   Maximum angular momentum in Aux-J        ...      4
Auxiliary J/K fitting basis                 ... NOT available
Auxiliary Correlation fitting basis         ... NOT available
Auxiliary 'external' fitting basis          ... NOT available

Checking pre-screening integrals            ... done (  0.1 sec) Dimension = 322
Check shell pair data                       ... done (  0.1 sec)
Shell pair information
Shell pair cut-off parameter TPreSel        ...   2.5e-12
Total number of shell pairs                 ...     52003
Shell pairs after pre-screening             ...     45527
Total number of primitive shell pairs       ...    129718
Primitive shell pairs kept                  ...     84983
          la=0 lb=0:   8797 shell pairs
          la=1 lb=0:  12013 shell pairs
          la=1 lb=1:   4141 shell pairs
          la=2 lb=0:   8178 shell pairs
          la=2 lb=1:   5652 shell pairs
          la=2 lb=2:   1952 shell pairs
          la=3 lb=0:   2104 shell pairs
          la=3 lb=1:   1510 shell pairs
          la=3 lb=2:   1031 shell pairs
          la=3 lb=3:    149 shell pairs

Calculating one electron integrals          ... done (  2.6 sec)
Calculating RI/J V-Matrix + Cholesky decomp.... done (  5.4 sec)
Calculating Nuclear repulsion               ... done (  0.0 sec) ENN=   1464.085755546499 Eh

Diagonalization of the overlap matrix:
Smallest eigenvalue                        ... 4.360e-07
Time for diagonalization                   ...    0.185 sec
Threshold for overlap eigenvalues          ... 1.000e-07
Number of eigenvalues below threshold      ... 0

IMPORTANT:
Smallest eigenvalue of S below the DiffSThresh (1.000e-06) while
Thresh>1e-12 and/or TCut>1e-13! In order to avoid SCF convergence issues,
Thresh will be set to at least 1e-12 and TCut to at least 1e-13.
This can be turned off by adding %SCF DiffSThresh -1 END to the input.

Time for construction of square roots      ...    0.425 sec
Total time needed                          ...    1.067 sec

-------------------
DFT GRID GENERATION
-------------------

General Integration Accuracy     IntAcc      ... 4.388
Radial Grid Type                 RadialGrid  ... OptM3 with GC (2021)
Angular Grid (max. ang.)         AngularGrid ... 4 (Lebedev-302)
Angular grid pruning method      GridPruning ... 4 (adaptive)
Weight generation scheme         WeightScheme... mBecke (2022)
Basis function cutoff            BFCut       ... 1.0000e-11
Integration weight cutoff        WCut        ... 1.0000e-14
Partially contracted basis set               ... off
Rotationally invariant grid construction     ... off
Angular grids for H and He will be reduced by one unit
Diffuse basis detected: some atoms will have their outermost
                        angular grid increased by 1.

Total number of grid points                  ...   151959
Total number of batches                      ...     2391
Average number of points per batch           ...       63
Average number of grid points per atom       ...     5065

--------------------
COSX GRID GENERATION
--------------------

GRIDX 1
-------
General Integration Accuracy     IntAcc      ... 3.816
Radial Grid Type                 RadialGrid  ... OptM3 with GC (2021)
Angular Grid (max. ang.)         AngularGrid ... 1 (Lebedev-50)
Angular grid pruning method      GridPruning ... 4 (adaptive)
Weight generation scheme         WeightScheme... mBecke (2022)
Basis function cutoff            BFCut       ... 1.0000e-11
Integration weight cutoff        WCut        ... 1.0000e-14
Partially contracted basis set               ... on
Rotationally invariant grid construction     ... off
Angular grids for H and He will be reduced by one unit
Diffuse basis detected: some atoms will have their outermost
                        angular grid increased by 1.

Total number of grid points                  ...    19025
Total number of batches                      ...      166
Average number of points per batch           ...      114
Average number of grid points per atom       ...      634
UseSFitting                                  ... on

GRIDX 2
-------
General Integration Accuracy     IntAcc      ... 4.020
Radial Grid Type                 RadialGrid  ... OptM3 with GC (2021)
Angular Grid (max. ang.)         AngularGrid ... 2 (Lebedev-110)
Angular grid pruning method      GridPruning ... 4 (adaptive)
Weight generation scheme         WeightScheme... mBecke (2022)
Basis function cutoff            BFCut       ... 1.0000e-11
Integration weight cutoff        WCut        ... 1.0000e-14
Partially contracted basis set               ... on
Rotationally invariant grid construction     ... off
Angular grids for H and He will be reduced by one unit
Diffuse basis detected: some atoms will have their outermost
                        angular grid increased by 1.

Total number of grid points                  ...    45790
Total number of batches                      ...      373
Average number of points per batch           ...      122
Average number of grid points per atom       ...     1526
UseSFitting                                  ... on

GRIDX 3
-------
General Integration Accuracy     IntAcc      ... 4.338
Radial Grid Type                 RadialGrid  ... OptM3 with GC (2021)
Angular Grid (max. ang.)         AngularGrid ... 3 (Lebedev-194)
Angular grid pruning method      GridPruning ... 4 (adaptive)
Weight generation scheme         WeightScheme... mBecke (2022)
Basis function cutoff            BFCut       ... 1.0000e-11
Integration weight cutoff        WCut        ... 1.0000e-14
Partially contracted basis set               ... on
Rotationally invariant grid construction     ... off
Angular grids for H and He will be reduced by one unit
Diffuse basis detected: some atoms will have their outermost
                        angular grid increased by 1.

Total number of grid points                  ...   100756
Total number of batches                      ...      805
Average number of points per batch           ...      125
Average number of grid points per atom       ...     3359
UseSFitting                                  ... on
Initializing property integral containers    ... done (  0.5 sec)

SHARK setup successfully completed in  46.8 seconds

Maximum memory used throughout the entire STARTUP-calculation: 81.8 MB
[1736998213.619797] [ohm:81209:0]        ib_iface.c:1059 UCX  ERROR ibv_create_cq(cqe=256) failed: Connection timed out
[1736998213.631470] [ohm:81211:0]        ib_iface.c:1059 UCX  ERROR ibv_create_cq(cqe=256) failed: Connection timed out
[1736998213.634575] [ohm:81218:0]        ib_iface.c:1059 UCX  ERROR ibv_create_cq(cqe=256) failed: Connection timed out
[1736998213.648993] [ohm:81210:0]        ib_iface.c:1059 UCX  ERROR ibv_create_cq(cqe=256) failed: Connection timed out
[1736998213.649277] [ohm:81212:0]        ib_iface.c:1059 UCX  ERROR ibv_create_cq(cqe=256) failed: Connection timed out
[1736998213.663504] [ohm:81223:0]        ib_iface.c:1059 UCX  ERROR ibv_create_cq(cqe=256) failed: Connection timed out
[1736998213.664200] [ohm:81213:0]        ib_iface.c:1059 UCX  ERROR ibv_create_cq(cqe=256) failed: Connection timed out
[1736998213.669105] [ohm:81219:0]        ib_iface.c:1059 UCX  ERROR ibv_create_cq(cqe=256) failed: Connection timed out
[1736998213.672300] [ohm:81207:0]        ib_iface.c:1059 UCX  ERROR ibv_create_cq(cqe=256) failed: Connection timed out
[1736998213.680436] [ohm:81225:0]        ib_iface.c:1059 UCX  ERROR ibv_create_cq(cqe=256) failed: Connection timed out
[1736998213.684085] [ohm:81216:0]        ib_iface.c:1059 UCX  ERROR ibv_create_cq(cqe=256) failed: Connection timed out
[1736998213.688085] [ohm:81242:0]        ib_iface.c:1059 UCX  ERROR ibv_create_cq(cqe=256) failed: Connection timed out
[1736998213.693282] [ohm:81227:0]        ib_iface.c:1059 UCX  ERROR ibv_create_cq(cqe=256) failed: Connection timed out
[1736998213.696054] [ohm:81220:0]        ib_iface.c:1059 UCX  ERROR ibv_create_cq(cqe=256) failed: Connection timed out
[1736998213.698157] [ohm:81245:0]        ib_iface.c:1059 UCX  ERROR ibv_create_cq(cqe=256) failed: Connection timed out
[1736998213.701084] [ohm:81250:0]        ib_iface.c:1059 UCX  ERROR ibv_create_cq(cqe=256) failed: Connection timed out
[1736998213.703745] [ohm:81208:0]        ib_iface.c:1059 UCX  ERROR ibv_create_cq(cqe=256) failed: Connection timed out
[1736998213.708598] [ohm:81224:0]        ib_iface.c:1059 UCX  ERROR ibv_create_cq(cqe=256) failed: Connection timed out
[1736998213.709382] [ohm:81222:0]        ib_iface.c:1059 UCX  ERROR ibv_create_cq(cqe=256) failed: Connection timed out
[1736998213.709996] [ohm:81233:0]        ib_iface.c:1059 UCX  ERROR ibv_create_cq(cqe=256) failed: Connection timed out
[1736998213.712924] [ohm:81215:0]        ib_iface.c:1059 UCX  ERROR ibv_create_cq(cqe=256) failed: Connection timed out
[1736998213.714187] [ohm:81214:0]        ib_iface.c:1059 UCX  ERROR ibv_create_cq(cqe=256) failed: Connection timed out
[1736998213.718266] [ohm:81228:0]        ib_iface.c:1059 UCX  ERROR ibv_create_cq(cqe=256) failed: Connection timed out
[1736998213.721126] [ohm:81229:0]        ib_iface.c:1059 UCX  ERROR ibv_create_cq(cqe=256) failed: Connection timed out
[1736998213.728816] [ohm:81257:0]        ib_iface.c:1059 UCX  ERROR ibv_create_cq(cqe=256) failed: Connection timed out
[1736998213.732517] [ohm:81206:0]        ib_iface.c:1059 UCX  ERROR ibv_create_cq(cqe=256) failed: Connection timed out
[1736998213.733328] [ohm:81261:0]        ib_iface.c:1059 UCX  ERROR ibv_create_cq(cqe=256) failed: Connection timed out
[1736998213.736282] [ohm:81217:0]        ib_iface.c:1059 UCX  ERROR ibv_create_cq(cqe=256) failed: Connection timed out
[1736998213.742226] [ohm:81240:0]        ib_iface.c:1059 UCX  ERROR ibv_create_cq(cqe=256) failed: Connection timed out
[1736998213.742875] [ohm:81238:0]        ib_iface.c:1059 UCX  ERROR ibv_create_cq(cqe=256) failed: Connection timed out
[1736998213.748334] [ohm:81221:0]        ib_iface.c:1059 UCX  ERROR ibv_create_cq(cqe=256) failed: Connection timed out
[1736998213.751300] [ohm:81226:0]        ib_iface.c:1059 UCX  ERROR ibv_create_cq(cqe=256) failed: Connection timed out


           ************************************************************
           *        Program running with 32 parallel MPI-processes    *
           *              working on a common directory               *
           ************************************************************
-------------------------------------------------------------------------------
                                 ORCA GUESS
                   Start orbitals & Density for SCF / CASSCF
-------------------------------------------------------------------------------

------------
SCF SETTINGS
------------
Hamiltonian:
 Density Functional     Method          .... DFT(GTOs)
  Functional kind                       .... Exchange-Correlation
  Functional name                       .... wB97M-V exchange-correlation functional
  Functional family                     .... Hybrid MGGA
  Functional refs                              
    [ 0] N. Mardirossian and M. Head-Gordon.,  J. Chem. Phys. 144, 214110 (2016), doi: 10.1063/1.4952647
  Fraction of HF Exchange (short range) .... 0.1500
  Fraction of HF Exchange (long range)  .... 1.0000
  Range separation parameter mu         .... 0.3000
  Functional external parameters        .... 17
    Parameter  0 _cx00      =  8.500000e-01 : u^00 coefficient for exchange
    Parameter  1 _cx01      =  1.007000e+00 : u^01 coefficient for exchange
    Parameter  2 _cx10      =  2.590000e-01 : u^10 coefficient for exchange
    Parameter  3 _css00     =  4.430000e-01 : u^00 coefficient for same-spin correlation
    Parameter  4 _css04     = -1.437000e+00 : u^04 coefficient for same-spin correlation
    Parameter  5 _css10     = -4.535000e+00 : u^10 coefficient for same-spin correlation
    Parameter  6 _css20     = -3.390000e+00 : u^20 coefficient for same-spin correlation
    Parameter  7 _css43     =  4.278000e+00 : u^43 coefficient for same-spin correlation
    Parameter  8 _cos00     =  1.000000e+00 : u^00 coefficient for opposite-spin correlation
    Parameter  9 _cos10     =  1.358000e+00 : u^10 coefficient for opposite-spin correlation
    Parameter 10 _cos20     =  2.924000e+00 : u^20 coefficient for opposite-spin correlation
    Parameter 11 _cos21     = -8.812000e+00 : u^21 coefficient for opposite-spin correlation
    Parameter 12 _cos60     = -1.390000e+00 : u^60 coefficient for opposite-spin correlation
    Parameter 13 _cos61     =  9.142000e+00 : u^61 coefficient for opposite-spin correlation
    Parameter 14 _alpha     =  1.000000e+00 : fraction of HF exchange
    Parameter 15 _beta      = -8.500000e-01 : fraction of short-range exchange
    Parameter 16 _omega     =  3.000000e-01 : range-separation constant
 Long-range corrected/Screened/Range-Separated Hybrid DFT is turned on
   Amount of maximum screened exact exchange              ....  0.850000
   Range separation parameter mu (erf(mu*r12)/r12)        ....  0.300000
 RI-approximation to the Coulomb term is turned on
   Number of AuxJ basis functions       .... 1014
   RIJ-COSX (HFX calculated with COS-X)).... on


General Settings:
 Integral files         IntName         .... orca
 Hartree-Fock type      HFTyp           .... UHF
 Total Charge           Charge          ....    0
 Multiplicity           Mult            ....    3
 Number of Electrons    NEL             ....  132
 Basis Dimension        Dim             ....  882
 Nuclear Repulsion      ENuc            ....   1464.0857555465 Eh

Convergence Acceleration:
 AO-DIIS                CNVDIIS         .... on
   Start iteration      DIISMaxIt       ....    12
   Startup error        DIISStart       ....  0.200000
   # of expansion vecs  DIISMaxEq       ....     5
   Bias factor          DIISBfac        ....   1.050
   Max. coefficient     DIISMaxC        ....  10.000
 MO-DIIS                CNVKDIIS        .... off
 Trust-Rad. Augm. Hess. CNVTRAH         .... auto
   Auto Start mean grad. ratio tolernc. ....  1.125000
   Auto Start start iteration           ....    50
   Auto Start num. interpolation iter.  ....    10
   Max. Number of Micro iterations      ....    24
   Max. Number of Macro iterations      .... Maxiter - #DIIS iter
   Number of Davidson start vectors     ....     2
   Converg. threshold    (grad. norm)   ....   1.000e-05
   Grad. Scal. Fac. for Micro threshold ....   0.100
   Minimum threshold for Micro iter.    ....   1.000e-02
   NR start threshold (gradient norm)   ....   1.000e-04
   Initial trust radius                 ....   0.400
   Minimum AH scaling param. (alpha)    ....   1.000
   Maximum AH scaling param. (alpha)    .... 1000.000
   Quad. conv. algorithm                .... NR
   White noise on init. David. guess    .... on
   Maximum white noise                  ....   0.010
   Pseudo random numbers                .... off
   Inactive MOs                         .... canonical
   Orbital update algorithm             .... Taylor
   Preconditioner                       .... Diag
   Full preconditioner red. dimension   ....   250
 SOSCF                  CNVSOSCF        .... on
   Start iteration      SOSCFMaxIt      ....   150
   Startup grad/error   SOSCFStart      ....  0.003300
   Hessian update       SOSCFHessUp     .... L-BFGS
 Level Shifting         CNVShift        .... on
   Level shift para.    LevelShift      ....    0.2500
   Turn off err/grad.   ShiftErr        ....    0.0010
 Zerner damping         CNVZerner       .... off
 Static damping         CNVDamp         .... on
   Fraction old density DampFac         ....    0.7000
   Max. Damping (<1)    DampMax         ....    0.9800
   Min. Damping (>=0)   DampMin         ....    0.0000
   Turn off err/grad.   DampErr         ....    0.1000

SCF Procedure:
 Maximum # iterations   MaxIter         ....   125
 SCF integral mode      SCFMode         .... Direct
   Integral package                     .... SHARK and LIBINT hybrid scheme
 Reset frequency        DirectResetFreq ....    20
 Integral Threshold     Thresh          ....  1.000e-12 Eh
 Primitive CutOff       TCut            ....  1.000e-13 Eh

Convergence Tolerance:
 Convergence Check Mode ConvCheckMode   .... Total+1el-Energy
 Convergence forced     ConvForced      .... 1
 Energy Change          TolE            ....  1.000e-08 Eh
 1-El. energy change                    ....  1.000e-05 Eh
 Orbital Gradient       TolG            ....  1.000e-05
 Orbital Rotation angle TolX            ....  1.000e-05
 DIIS Error             TolErr          ....  5.000e-07

------------------------------
INITIAL GUESS: MODEL POTENTIAL
------------------------------
Loading Hartree-Fock densities                     ... done
Calculating cut-offs                               ... done
Initializing the effective Hamiltonian             ... done
Setting up the integral package (SHARK)            ... done
Starting the Coulomb interaction                   ... done (   2.0 sec)
Making the grid                                    ... done (   6.7 sec)
Mapping shells                                     ... done
Starting the XC term evaluation                    ... done (   0.9 sec)
  promolecular density results
     # of electrons  =    132.000799676
     EX              =   -113.599194921
     EC              =     -4.486976164
     EX+EC           =   -118.086171085
Transforming the Hamiltonian                       ... done (   1.7 sec)
Diagonalizing the Hamiltonian                      ... done (   1.2 sec)
Back transforming the eigenvectors                 ... done (   0.3 sec)
Now organizing SCF variables                       ... done
                      ------------------
                      INITIAL GUESS DONE (  15.5 sec)
                      ------------------
             **** ENERGY FILE WAS UPDATED (orca.en.tmp) ****
Finished Guess after  40.8 sec
Maximum memory used throughout the entire GUESS-calculation: 74.2 MB
[1736998255.257049] [ohm:81455:0]        ib_iface.c:1059 UCX  ERROR ibv_create_cq(cqe=256) failed: Connection timed out
[1736998255.284232] [ohm:81452:0]        ib_iface.c:1059 UCX  ERROR ibv_create_cq(cqe=256) failed: Connection timed out
[1736998255.299350] [ohm:81444:0]        ib_iface.c:1059 UCX  ERROR ibv_create_cq(cqe=256) failed: Connection timed out
[1736998255.304097] [ohm:81438:0]        ib_iface.c:1059 UCX  ERROR ibv_create_cq(cqe=256) failed: Connection timed out
[1736998255.309949] [ohm:81440:0]        ib_iface.c:1059 UCX  ERROR ibv_create_cq(cqe=256) failed: Connection timed out
[1736998255.310713] [ohm:81445:0]        ib_iface.c:1059 UCX  ERROR ibv_create_cq(cqe=256) failed: Connection timed out
[1736998255.316559] [ohm:81441:0]        ib_iface.c:1059 UCX  ERROR ibv_create_cq(cqe=256) failed: Connection timed out
[1736998255.319461] [ohm:81466:0]        ib_iface.c:1059 UCX  ERROR ibv_create_cq(cqe=256) failed: Connection timed out
[1736998255.319460] [ohm:81436:0]        ib_iface.c:1059 UCX  ERROR ibv_create_cq(cqe=256) failed: Connection timed out
[1736998255.323741] [ohm:81453:0]        ib_iface.c:1059 UCX  ERROR ibv_create_cq(cqe=256) failed: Connection timed out
[1736998255.324288] [ohm:81434:0]        ib_iface.c:1059 UCX  ERROR ibv_create_cq(cqe=256) failed: Connection timed out
[1736998255.325083] [ohm:81456:0]        ib_iface.c:1059 UCX  ERROR ibv_create_cq(cqe=256) failed: Connection timed out
[1736998255.326785] [ohm:81437:0]        ib_iface.c:1059 UCX  ERROR ibv_create_cq(cqe=256) failed: Connection timed out
[1736998255.333300] [ohm:81435:0]        ib_iface.c:1059 UCX  ERROR ibv_create_cq(cqe=256) failed: Connection timed out
[1736998255.336264] [ohm:81439:0]        ib_iface.c:1059 UCX  ERROR ibv_create_cq(cqe=256) failed: Connection timed out
[1736998255.338115] [ohm:81448:0]        ib_iface.c:1059 UCX  ERROR ibv_create_cq(cqe=256) failed: Connection timed out
[1736998255.345509] [ohm:81454:0]        ib_iface.c:1059 UCX  ERROR ibv_create_cq(cqe=256) failed: Connection timed out
[1736998255.345687] [ohm:81458:0]        ib_iface.c:1059 UCX  ERROR ibv_create_cq(cqe=256) failed: Connection timed out
[1736998255.349629] [ohm:81475:0]        ib_iface.c:1059 UCX  ERROR ibv_create_cq(cqe=256) failed: Connection timed out
[1736998255.350109] [ohm:81446:0]        ib_iface.c:1059 UCX  ERROR ibv_create_cq(cqe=256) failed: Connection timed out
[1736998255.355805] [ohm:81449:0]        ib_iface.c:1059 UCX  ERROR ibv_create_cq(cqe=256) failed: Connection timed out
[1736998255.361957] [ohm:81461:0]        ib_iface.c:1059 UCX  ERROR ibv_create_cq(cqe=256) failed: Connection timed out
[1736998255.365038] [ohm:81451:0]        ib_iface.c:1059 UCX  ERROR ibv_create_cq(cqe=256) failed: Connection timed out
[1736998255.368062] [ohm:81450:0]        ib_iface.c:1059 UCX  ERROR ibv_create_cq(cqe=256) failed: Connection timed out
[1736998255.370161] [ohm:81482:0]        ib_iface.c:1059 UCX  ERROR ibv_create_cq(cqe=256) failed: Connection timed out
[1736998255.371633] [ohm:81442:0]        ib_iface.c:1059 UCX  ERROR ibv_create_cq(cqe=256) failed: Connection timed out
[1736998255.372749] [ohm:81464:0]        ib_iface.c:1059 UCX  ERROR ibv_create_cq(cqe=256) failed: Connection timed out
[1736998255.372728] [ohm:81443:0]        ib_iface.c:1059 UCX  ERROR ibv_create_cq(cqe=256) failed: Connection timed out
[1736998255.372842] [ohm:81459:0]        ib_iface.c:1059 UCX  ERROR ibv_create_cq(cqe=256) failed: Connection timed out
[1736998255.373853] [ohm:81447:0]        ib_iface.c:1059 UCX  ERROR ibv_create_cq(cqe=256) failed: Connection timed out
[1736998255.388148] [ohm:81462:0]        ib_iface.c:1059 UCX  ERROR ibv_create_cq(cqe=256) failed: Connection timed out
[1736998255.389293] [ohm:81469:0]        ib_iface.c:1059 UCX  ERROR ibv_create_cq(cqe=256) failed: Connection timed out


           ************************************************************
           *        Program running with 32 parallel MPI-processes    *
           *              working on a common directory               *
           ************************************************************

-------------------------------------------------------------------------------------------
                                      ORCA LEAN-SCF
                              memory conserving SCF solver
-------------------------------------------------------------------------------------------

----------------------------------------D-I-I-S--------------------------------------------
Iteration    Energy (Eh)           Delta-E    RMSDP     MaxDP     DIISErr   Damp  Time(sec)
-------------------------------------------------------------------------------------------
               ***  Starting incremental Fock matrix formation  ***
    1    -908.0822104404664969     0.00e+00  1.59e-03  2.75e-01  1.48e-01  0.700  49.1
    2    -908.3481027769616958    -2.66e-01  1.35e-03  1.64e-01  7.06e-02  0.700  54.3
                               ***Turning on AO-DIIS***
    3    -908.4672719542772938    -1.19e-01  1.10e-03  1.06e-01  2.71e-02  0.700  47.9
    4    -908.5399834520294462    -7.27e-02  2.83e-03  2.60e-01  1.89e-02  0.000  42.8
    5    -908.7019205112828786    -1.62e-01  5.15e-04  7.39e-02  4.13e-03  0.000  49.5
                              *** Initializing SOSCF ***
---------------------------------------S-O-S-C-F--------------------------------------
Iteration    Energy (Eh)           Delta-E    RMSDP     MaxDP     MaxGrad    Time(sec)
--------------------------------------------------------------------------------------
    6    -908.7029695545661525    -1.05e-03  4.06e-04  6.03e-02  1.80e-03    57.1
               *** Restarting incremental Fock matrix formation ***
    7    -908.7035031739410442    -5.34e-04  5.83e-04  1.05e-01  5.31e-03    43.5
               *** Scaled step length from 1.953830 to 0.200000 ***
Curvature condition for BFGS not met. Restarting diagonal Hessian.
    8    -908.7044348220338179    -9.32e-04  1.47e-02  3.00e+00  6.30e-03    51.8
               *** Scaled step length from 0.228616 to 0.200000 ***
    9    -908.6967647589622175     7.67e-03  1.07e-02  2.32e+00  2.88e-02    45.1
   10    -908.6994136056400748    -2.65e-03  3.72e-03  6.06e-01  2.96e-02    45.0
   11    -908.7085787966202588    -9.17e-03  3.70e-03  5.20e-01  1.30e-02    45.8
               *** Scaled step length from 2.434693 to 0.200000 ***
   12    -908.7155728227635336    -6.99e-03  3.20e-03  4.52e-01  1.90e-02    43.5
               *** Scaled step length from 0.485873 to 0.200000 ***
   13    -908.7218693464960779    -6.30e-03  1.69e-03  2.88e-01  1.87e-02    40.6
   14    -908.7261475502486974    -4.28e-03  2.20e-03  2.56e-01  1.02e-02    43.1
   15    -908.7293632311930196    -3.22e-03  2.58e-03  3.14e-01  5.36e-03    41.3
   16    -908.7314449647928996    -2.08e-03  5.05e-04  7.36e-02  5.51e-03    41.7
   17    -908.7319628660529816    -5.18e-04  3.35e-04  3.71e-02  3.54e-03    41.5
   18    -908.7322071551393492    -2.44e-04  3.27e-04  3.95e-02  1.80e-03    43.3
   19    -908.7322792982045030    -7.21e-05  1.63e-04  1.73e-02  3.15e-04    43.0
   20    -908.7322911474570901    -1.18e-05  9.92e-05  1.29e-02  2.50e-04    41.5
   21    -908.7322980396083949    -6.89e-06  3.44e-05  4.58e-03  9.21e-05    44.1
   22    -908.7322983564349670    -3.17e-07  8.81e-06  1.52e-03  5.56e-05    40.1
   23    -908.7322986371468687    -2.81e-07  7.80e-06  1.10e-03  1.93e-05    42.5
   24    -908.7322986898393538    -5.27e-08  2.17e-06  3.59e-04  1.21e-05    38.4
   25    -908.7322987026741430    -1.28e-08  3.21e-06  6.79e-04  6.49e-06    39.4
   26    -908.7322986696312910     3.30e-08  2.01e-06  3.68e-04  3.24e-06    38.8
               *** Restarting incremental Fock matrix formation ***
   27    -908.7322986853664588    -1.57e-08  5.49e-06  1.14e-03  2.11e-06    44.8
                  *** Gradient check signals convergence ***

               *****************************************************
               *                     SUCCESS                       *
               *           SCF CONVERGED AFTER  27 CYCLES          *
               *****************************************************

Recomputing exchange energy using gridx3       ... done (   30.773 sec)
Old exchange energy                            :    -35.043587223 Eh
New exchange energy                            :    -35.043595107 Eh
Exchange energy change after final integration :     -0.000007884 Eh
Total energy after final integration           :   -908.732306570 Eh
             **** ENERGY FILE WAS UPDATED (orca.en.tmp) ****

----------------
TOTAL SCF ENERGY
----------------

Total Energy       :       -908.73230656962517 Eh          -24727.86320 eV

Components:
Nuclear Repulsion  :       1464.08575554649860 Eh           39839.79882 eV
Electronic Energy  :      -2372.81805423186506 Eh          -64567.66181 eV
One Electron Energy:      -4145.50493010947685 Eh         -112804.92404 eV
Two Electron Energy:       1772.68687587761201 Eh           48237.26223 eV

Virial components:
Potential Energy   :      -1815.04581056522943 Eh          -49389.90744 eV
Kinetic Energy     :        906.31350399560426 Eh           24662.04424 eV
Virial Ratio       :          2.00266883651557

DFT components:
N(Alpha)           :       66.999970057257 electrons
N(Beta)            :       64.999970083800 electrons
N(Total)           :      131.999940141057 electrons
E(XC)              :      -86.334617398924 Eh       

---------------
SCF CONVERGENCE
---------------

  Last Energy change         ...    1.5735e-08  Tolerance :   1.0000e-08
  Last MAX-Density change    ...    1.1384e-03  Tolerance :   1.0000e-07
  Last RMS-Density change    ...    5.4901e-06  Tolerance :   5.0000e-09
  Last DIIS Error            ...    1.8031e-03  Tolerance :   5.0000e-07
  Last Orbital Gradient      ...    2.1083e-06  Tolerance :   1.0000e-05
  Last Orbital Rotation      ...    8.6015e-06  Tolerance :   1.0000e-05


----------------------
UHF SPIN CONTAMINATION
----------------------

Warning: in a DFT calculation there is little theoretical justification to 
         calculate <S**2> as in Hartree-Fock theory. We will do it anyways
         but you should keep in mind that the values have only limited relevance

Expectation value of <S**2>     :     2.010287
Ideal value S*(S+1) for S=1.0   :     2.000000
Deviation                       :     0.010287

----------------
ORBITAL ENERGIES
----------------
                 SPIN UP ORBITALS
  NO   OCC          E(Eh)            E(eV) 
   0   1.0000     -19.339505      -526.2547 
   1   1.0000     -19.320749      -525.7443 
   2   1.0000     -19.320637      -525.7412 
   3   1.0000     -19.319798      -525.7184 
   4   1.0000     -14.597438      -397.2165 
   5   1.0000     -14.577474      -396.6732 
   6   1.0000     -14.563465      -396.2920 
   7   1.0000     -14.556307      -396.0973 
   8   1.0000     -10.517137      -286.1858 
   9   1.0000     -10.506474      -285.8957 
  10   1.0000     -10.476537      -285.0811 
  11   1.0000     -10.459499      -284.6174 
  12   1.0000     -10.432660      -283.8871 
  13   1.0000     -10.409263      -283.2504 
  14   1.0000     -10.403170      -283.0846 
  15   1.0000     -10.380506      -282.4679 
  16   1.0000     -10.362367      -281.9744 
  17   1.0000     -10.361616      -281.9539 
  18   1.0000      -1.232907       -33.5491 
  19   1.0000      -1.220053       -33.1993 
  20   1.0000      -1.193359       -32.4729 
  21   1.0000      -1.189944       -32.3800 
  22   1.0000      -1.130939       -30.7744 
  23   1.0000      -1.118186       -30.4274 
  24   1.0000      -1.066353       -29.0169 
  25   1.0000      -1.064423       -28.9644 
  26   1.0000      -0.978707       -26.6320 
  27   1.0000      -0.957294       -26.0493 
  28   1.0000      -0.856865       -23.3165 
  29   1.0000      -0.850027       -23.1304 
  30   1.0000      -0.814353       -22.1597 
  31   1.0000      -0.808465       -21.9995 
  32   1.0000      -0.794983       -21.6326 
  33   1.0000      -0.788977       -21.4692 
  34   1.0000      -0.705743       -19.2042 
  35   1.0000      -0.695733       -18.9319 
  36   1.0000      -0.693250       -18.8643 
  37   1.0000      -0.688987       -18.7483 
  38   1.0000      -0.647174       -17.6105 
  39   1.0000      -0.637045       -17.3349 
  40   1.0000      -0.635871       -17.3029 
  41   1.0000      -0.600126       -16.3303 
  42   1.0000      -0.599342       -16.3089 
  43   1.0000      -0.593083       -16.1386 
  44   1.0000      -0.578931       -15.7535 
  45   1.0000      -0.575207       -15.6522 
  46   1.0000      -0.560960       -15.2645 
  47   1.0000      -0.551934       -15.0189 
  48   1.0000      -0.551030       -14.9943 
  49   1.0000      -0.548342       -14.9211 
  50   1.0000      -0.529761       -14.4155 
  51   1.0000      -0.524129       -14.2623 
  52   1.0000      -0.521347       -14.1866 
  53   1.0000      -0.517996       -14.0954 
  54   1.0000      -0.506482       -13.7821 
  55   1.0000      -0.504028       -13.7153 
  56   1.0000      -0.497191       -13.5293 
  57   1.0000      -0.474192       -12.9034 
  58   1.0000      -0.426869       -11.6157 
  59   1.0000      -0.412824       -11.2335 
  60   1.0000      -0.410810       -11.1787 
  61   1.0000      -0.396388       -10.7863 
  62   1.0000      -0.392535       -10.6814 
  63   1.0000      -0.388762       -10.5788 
  64   1.0000      -0.383318       -10.4306 
  65   1.0000      -0.345186        -9.3930 
  66   1.0000      -0.212111        -5.7718 
  67   0.0000       0.011017         0.2998 
  68   0.0000       0.020613         0.5609 
  69   0.0000       0.033030         0.8988 
  70   0.0000       0.039107         1.0641 
  71   0.0000       0.040549         1.1034 
  72   0.0000       0.055546         1.5115 
  73   0.0000       0.060602         1.6491 
  74   0.0000       0.062331         1.6961 
  75   0.0000       0.065074         1.7708 
  76   0.0000       0.067740         1.8433 
  77   0.0000       0.069821         1.8999 

                 SPIN DOWN ORBITALS
  NO   OCC          E(Eh)            E(eV) 
   0   1.0000     -19.337741      -526.2067 
   1   1.0000     -19.320751      -525.7444 
   2   1.0000     -19.319721      -525.7163 
   3   1.0000     -19.314502      -525.5743 
   4   1.0000     -14.593071      -397.0977 
   5   1.0000     -14.577209      -396.6660 
   6   1.0000     -14.563474      -396.2923 
   7   1.0000     -14.555357      -396.0714 
   8   1.0000     -10.517428      -286.1938 
   9   1.0000     -10.506487      -285.8961 
  10   1.0000     -10.476511      -285.0804 
  11   1.0000     -10.459066      -284.6057 
  12   1.0000     -10.432176      -283.8739 
  13   1.0000     -10.399903      -282.9958 
  14   1.0000     -10.392540      -282.7954 
  15   1.0000     -10.380626      -282.4712 
  16   1.0000     -10.362253      -281.9712 
  17   1.0000     -10.362002      -281.9644 
  18   1.0000      -1.228978       -33.4422 
  19   1.0000      -1.219794       -33.1923 
  20   1.0000      -1.190328       -32.3905 
  21   1.0000      -1.183822       -32.2134 
  22   1.0000      -1.120923       -30.5019 
  23   1.0000      -1.117512       -30.4091 
  24   1.0000      -1.064377       -28.9632 
  25   1.0000      -1.060976       -28.8706 
  26   1.0000      -0.960596       -26.1391 
  27   1.0000      -0.950312       -25.8593 
  28   1.0000      -0.849488       -23.1157 
  29   1.0000      -0.845465       -23.0063 
  30   1.0000      -0.809735       -22.0340 
  31   1.0000      -0.802855       -21.8468 
  32   1.0000      -0.788953       -21.4685 
  33   1.0000      -0.787733       -21.4353 
  34   1.0000      -0.694287       -18.8925 
  35   1.0000      -0.693074       -18.8595 
  36   1.0000      -0.689102       -18.7514 
  37   1.0000      -0.686996       -18.6941 
  38   1.0000      -0.638662       -17.3789 
  39   1.0000      -0.633458       -17.2373 
  40   1.0000      -0.629510       -17.1298 
  41   1.0000      -0.594891       -16.1878 
  42   1.0000      -0.591629       -16.0991 
  43   1.0000      -0.589096       -16.0301 
  44   1.0000      -0.569132       -15.4869 
  45   1.0000      -0.565622       -15.3914 
  46   1.0000      -0.559957       -15.2372 
  47   1.0000      -0.550402       -14.9772 
  48   1.0000      -0.544253       -14.8099 
  49   1.0000      -0.534861       -14.5543 
  50   1.0000      -0.521398       -14.1880 
  51   1.0000      -0.520925       -14.1751 
  52   1.0000      -0.515070       -14.0158 
  53   1.0000      -0.506687       -13.7877 
  54   1.0000      -0.504867       -13.7381 
  55   1.0000      -0.499296       -13.5865 
  56   1.0000      -0.471991       -12.8435 
  57   1.0000      -0.455966       -12.4075 
  58   1.0000      -0.422908       -11.5079 
  59   1.0000      -0.412311       -11.2195 
  60   1.0000      -0.397030       -10.8037 
  61   1.0000      -0.386822       -10.5260 
  62   1.0000      -0.383923       -10.4471 
  63   1.0000      -0.380573       -10.3559 
  64   1.0000      -0.344022        -9.3613 
  65   0.0000      -0.109109        -2.9690 
  66   0.0000       0.010654         0.2899 
  67   0.0000       0.023691         0.6447 
  68   0.0000       0.030975         0.8429 
  69   0.0000       0.037322         1.0156 
  70   0.0000       0.039548         1.0761 
  71   0.0000       0.055258         1.5036 
  72   0.0000       0.058696         1.5972 
  73   0.0000       0.063474         1.7272 
  74   0.0000       0.064594         1.7577 
  75   0.0000       0.067095         1.8257 
*Only the first 10 virtual orbitals were printed.

                    ********************************
                    * MULLIKEN POPULATION ANALYSIS *
                    ********************************

--------------------------------------------
MULLIKEN ATOMIC CHARGES AND SPIN POPULATIONS
--------------------------------------------
   0 O :   -0.682135    0.000923
   1 O :   -0.672543    0.227937
   2 O :   -0.649433    0.003210
   3 O :   -0.651998    0.065888
   4 N :   -0.056521    0.010361
   5 N :    0.052267    0.182476
   6 N :    0.048938    0.000407
   7 N :    0.004150    0.046184
   8 C :    0.975519    0.038130
   9 C :    0.718643    0.249093
  10 C :    0.039407    0.032175
  11 C :   -0.239948    0.929815
  12 C :   -1.474116   -0.018689
  13 C :   -1.429219    0.018631
  14 C :    0.182808   -0.004713
  15 C :    0.645706    0.210810
  16 C :    0.398412   -0.004216
  17 C :    0.437705   -0.027994
  18 H :    0.194086    0.002944
  19 H :    0.147502    0.013211
  20 H :    0.236304   -0.006706
  21 H :    0.330312    0.002521
  22 H :    0.378155    0.006546
  23 H :    0.374770    0.014310
  24 H :    0.336056    0.007711
  25 H :    0.231167    0.019204
  26 H :    0.062729   -0.001408
  27 H :    0.022573   -0.018408
  28 H :    0.026068    0.002380
  29 H :    0.012638   -0.002734
Sum of atomic charges         :   -0.0000000
Sum of atomic spin populations:    2.0000000

-----------------------------------------------------
MULLIKEN REDUCED ORBITAL CHARGES AND SPIN POPULATIONS
-----------------------------------------------------
CHARGE
  0 O s       :     4.085756  s :     4.085756
      pz      :     1.726512  p :     4.567168
      px      :     1.396852
      py      :     1.443803
      dz2     :     0.003403  d :     0.027291
      dxz     :     0.000764
      dyz     :     0.005709
      dx2y2   :     0.011564
      dxy     :     0.005850
      f0      :     0.000188  f :     0.001920
      f+1     :     0.000147
      f-1     :     0.000289
      f+2     :     0.000200
      f-2     :     0.000320
      f+3     :     0.000323
      f-3     :     0.000452

  1 O s       :     4.090754  s :     4.090754
      pz      :     1.313905  p :     4.551865
      px      :     1.472745
      py      :     1.765214
      dz2     :     0.009473  d :     0.028001
      dxz     :     0.012130
      dyz     :     0.004271
      dx2y2   :     0.001128
      dxy     :     0.000999
      f0      :     0.000639  f :     0.001924
      f+1     :     0.000530
      f-1     :     0.000447
      f+2     :     0.000147
      f-2     :     0.000133
      f+3     :     0.000014
      f-3     :     0.000013

  2 O s       :     4.067713  s :     4.067713
      pz      :     1.548069  p :     4.550203
      px      :     1.545854
      py      :     1.456280
      dz2     :     0.004008  d :     0.029571
      dxz     :     0.006618
      dyz     :     0.007593
      dx2y2   :     0.005081
      dxy     :     0.006271
      f0      :     0.000233  f :     0.001946
      f+1     :     0.000118
      f-1     :     0.000473
      f+2     :     0.000417
      f-2     :     0.000402
      f+3     :     0.000138
      f-3     :     0.000166

  3 O s       :     4.074323  s :     4.074323
      pz      :     1.737621  p :     4.548703
      px      :     1.448855
      py      :     1.362228
      dz2     :     0.003115  d :     0.027054
      dxz     :    -0.000546
      dyz     :     0.005795
      dx2y2   :     0.010262
      dxy     :     0.008427
      f0      :     0.000196  f :     0.001918
      f+1     :     0.000087
      f-1     :     0.000325
      f+2     :     0.000246
      f-2     :     0.000250
      f+3     :     0.000354
      f-3     :     0.000460

  4 N s       :     3.540149  s :     3.540149
      pz      :     0.978345  p :     3.453500
      px      :     1.373990
      py      :     1.101165
      dz2     :     0.006079  d :     0.059103
      dxz     :     0.016014
      dyz     :     0.017795
      dx2y2   :     0.009936
      dxy     :     0.009279
      f0      :     0.000758  f :     0.003770
      f+1     :     0.000584
      f-1     :     0.000843
      f+2     :     0.000454
      f-2     :     0.000495
      f+3     :     0.000336
      f-3     :     0.000300

  5 N s       :     3.449902  s :     3.449902
      pz      :     1.026158  p :     3.415479
      px      :     1.380800
      py      :     1.008521
      dz2     :     0.013022  d :     0.078480
      dxz     :     0.001526
      dyz     :     0.018861
      dx2y2   :     0.020128
      dxy     :     0.024943
      f0      :     0.000305  f :     0.003873
      f+1     :     0.000214
      f-1     :     0.000640
      f+2     :     0.000557
      f-2     :     0.000580
      f+3     :     0.000695
      f-3     :     0.000882

  6 N s       :     3.482235  s :     3.482235
      pz      :     1.016590  p :     3.405734
      px      :     1.402316
      py      :     0.986828
      dz2     :     0.002107  d :     0.059354
      dxz     :     0.003914
      dyz     :     0.027914
      dx2y2   :     0.013834
      dxy     :     0.011585
      f0      :     0.000290  f :     0.003739
      f+1     :     0.000178
      f-1     :     0.000560
      f+2     :     0.000439
      f-2     :     0.000634
      f+3     :     0.000790
      f-3     :     0.000848

  7 N s       :     3.490852  s :     3.490852
      pz      :     0.945765  p :     3.441679
      px      :     1.458977
      py      :     1.036937
      dz2     :     0.030792  d :     0.059620
      dxz     :     0.006771
      dyz     :    -0.003214
      dx2y2   :     0.011068
      dxy     :     0.014203
      f0      :     0.000642  f :     0.003701
      f+1     :     0.000608
      f-1     :     0.000561
      f+2     :     0.000386
      f-2     :     0.000555
      f+3     :     0.000473
      f-3     :     0.000477

  8 C s       :     3.221834  s :     3.221834
      pz      :     0.460350  p :     1.840843
      px      :     0.746632
      py      :     0.633862
      dz2     :     0.005402  d :    -0.047352
      dxz     :    -0.021464
      dyz     :    -0.037587
      dx2y2   :     0.045705
      dxy     :    -0.039408
      f0      :     0.001300  f :     0.009156
      f+1     :     0.000874
      f-1     :     0.001792
      f+2     :     0.001335
      f-2     :     0.001376
      f+3     :     0.000839
      f-3     :     0.001640

  9 C s       :     3.441059  s :     3.441059
      pz      :     0.551080  p :     1.883071
      px      :     0.766678
      py      :     0.565312
      dz2     :     0.042686  d :    -0.052352
      dxz     :     0.028162
      dyz     :    -0.084559
      dx2y2   :    -0.021513
      dxy     :    -0.017128
      f0      :     0.001833  f :     0.009579
      f+1     :     0.000925
      f-1     :     0.001914
      f+2     :     0.001394
      f-2     :     0.001493
      f+3     :     0.000915
      f-3     :     0.001103

 10 C s       :     3.392183  s :     3.392183
      pz      :     1.043127  p :     2.510657
      px      :     0.854810
      py      :     0.612720
      dz2     :    -0.000054  d :     0.046786
      dxz     :     0.020495
      dyz     :    -0.004461
      dx2y2   :     0.015695
      dxy     :     0.015112
      f0      :     0.001053  f :     0.010968
      f+1     :     0.000609
      f-1     :     0.002228
      f+2     :     0.001772
      f-2     :     0.002093
      f+3     :     0.001161
      f-3     :     0.002052

 11 C s       :     3.658930  s :     3.658930
      pz      :     0.845030  p :     2.559121
      px      :     0.833347
      py      :     0.880744
      dz2     :    -0.027814  d :     0.011066
      dxz     :     0.017482
      dyz     :     0.025895
      dx2y2   :    -0.000815
      dxy     :    -0.003681
      f0      :     0.001676  f :     0.010832
      f+1     :     0.000904
      f-1     :     0.001761
      f+2     :     0.001250
      f-2     :     0.001523
      f+3     :     0.001312
      f-3     :     0.002406

 12 C s       :     3.795136  s :     3.795136
      pz      :     1.099285  p :     3.621462
      px      :     1.454021
      py      :     1.068155
      dz2     :     0.003305  d :     0.054835
      dxz     :     0.019463
      dyz     :     0.004948
      dx2y2   :     0.023267
      dxy     :     0.003852
      f0      :     0.000211  f :     0.002683
      f+1     :     0.000142
      f-1     :     0.000651
      f+2     :     0.000731
      f-2     :     0.000399
      f+3     :     0.000284
      f-3     :     0.000265

 13 C s       :     3.813296  s :     3.813296
      pz      :     1.361493  p :     3.529835
      px      :     1.191554
      py      :     0.976787
      dz2     :     0.009051  d :     0.083415
      dxz     :     0.022537
      dyz     :     0.031761
      dx2y2   :     0.017001
      dxy     :     0.003065
      f0      :     0.000188  f :     0.002673
      f+1     :     0.000151
      f-1     :     0.000497
      f+2     :     0.000342
      f-2     :     0.000427
      f+3     :     0.000485
      f-3     :     0.000583

 14 C s       :     3.515169  s :     3.515169
      pz      :     0.728441  p :     2.048555
      px      :     0.643682
      py      :     0.676432
      dz2     :     0.044560  d :     0.231648
      dxz     :     0.049995
      dyz     :     0.048896
      dx2y2   :     0.071900
      dxy     :     0.016296
      f0      :     0.002099  f :     0.021821
      f+1     :     0.001858
      f-1     :     0.005041
      f+2     :     0.002692
      f-2     :     0.004007
      f+3     :     0.002622
      f-3     :     0.003501

 15 C s       :     3.210241  s :     3.210241
      pz      :     0.529885  p :     1.925168
      px      :     0.722676
      py      :     0.672607
      dz2     :     0.020623  d :     0.197052
      dxz     :     0.041476
      dyz     :     0.086175
      dx2y2   :     0.019787
      dxy     :     0.028992
      f0      :     0.004478  f :     0.021832
      f+1     :     0.003369
      f-1     :     0.006059
      f+2     :     0.001949
      f-2     :     0.002664
      f+3     :     0.001305
      f-3     :     0.002009

 16 C s       :     3.325648  s :     3.325648
      pz      :     0.672430  p :     2.022377
      px      :     0.712772
      py      :     0.637174
      dz2     :     0.080180  d :     0.228054
      dxz     :     0.052234
      dyz     :     0.002861
      dx2y2   :     0.050987
      dxy     :     0.041792
      f0      :     0.004374  f :     0.025510
      f+1     :     0.002813
      f-1     :     0.006146
      f+2     :     0.002934
      f-2     :     0.003767
      f+3     :     0.002268
      f-3     :     0.003207

 17 C s       :     3.287336  s :     3.287336
      pz      :     0.680167  p :     1.996545
      px      :     0.701854
      py      :     0.614523
      dz2     :     0.036540  d :     0.252816
      dxz     :     0.057740
      dyz     :     0.062216
      dx2y2   :     0.055731
      dxy     :     0.040588
      f0      :     0.003427  f :     0.025599
      f+1     :     0.002212
      f-1     :     0.006257
      f+2     :     0.003212
      f-2     :     0.003928
      f+3     :     0.002764
      f-3     :     0.003799

 18 H s       :     0.777347  s :     0.777347
      pz      :     0.019193  p :     0.026053
      px      :     0.005610
      py      :     0.001251
      dz2     :     0.000771  d :     0.002514
      dxz     :     0.000580
      dyz     :     0.000834
      dx2y2   :     0.000164
      dxy     :     0.000165

 19 H s       :     0.805096  s :     0.805096
      pz      :     0.028393  p :     0.044644
      px      :     0.010053
      py      :     0.006199
      dz2     :     0.000743  d :     0.002759
      dxz     :     0.000510
      dyz     :     0.000543
      dx2y2   :     0.000426
      dxy     :     0.000537

 20 H s       :     0.708546  s :     0.708546
      pz      :     0.002144  p :     0.052780
      px      :     0.028471
      py      :     0.022166
      dz2     :     0.000372  d :     0.002369
      dxz     :     0.000186
      dyz     :     0.000669
      dx2y2   :     0.000562
[...]

Maximum memory used throughout the entire CIS-calculation: 395.9 MB
=> NOW LEAVING ORCA_CIS


-------------------------------------------------------------------------------
                          DFT DISPERSION CORRECTION                            
                                                                               
                              DFTD3 V3.1  Rev 1                                
                          USING Becke-Johnson damping                          
-------------------------------------------------------------------------------
The WB97M functional is recognized
Active option DFTDOPT                   ...         4   

molecular C6(AA) [au] = 9907.313695 


            DFT-D V3
 parameters
 s6 scaling factor         :     1.0000 
 a1 scaling factor         :     0.5660 
 s8 scaling factor         :     0.3908 
 a2 scaling factor         :     3.1280 
 ad hoc parameters k1-k3   :    16.0000     1.3333    -4.0000 

 Edisp/kcal,au: -38.577160027085  -0.061476611121 
 E6   /kcal   : -30.960134130 
 E8   /kcal   :  -7.617025897 
 % E8         :  19.744910958 

-------------------------   ----------------
Dispersion correction           -0.061476611
-------------------------   ----------------


-------------------------   --------------------
FINAL SINGLE POINT ENERGY      -908.922841112779
-------------------------   --------------------

[1737000089.462745] [ohm:82727:0]        ib_iface.c:1059 UCX  ERROR ibv_create_cq(cqe=256) failed: Connection timed out
[1737000089.463194] [ohm:82728:0]        ib_iface.c:1059 UCX  ERROR ibv_create_cq(cqe=256) failed: Connection timed out
[1737000089.470948] [ohm:82725:0]        ib_iface.c:1059 UCX  ERROR ibv_create_cq(cqe=256) failed: Connection timed out
[1737000089.471463] [ohm:82745:0]        ib_iface.c:1059 UCX  ERROR ibv_create_cq(cqe=256) failed: Connection timed out
[1737000089.472204] [ohm:82731:0]        ib_iface.c:1059 UCX  ERROR ibv_create_cq(cqe=256) failed: Connection timed out
[1737000089.472205] [ohm:82735:0]        ib_iface.c:1059 UCX  ERROR ibv_create_cq(cqe=256) failed: Connection timed out
[1737000089.473839] [ohm:82739:0]        ib_iface.c:1059 UCX  ERROR ibv_create_cq(cqe=256) failed: Connection timed out
[1737000089.485567] [ohm:82754:0]        ib_iface.c:1059 UCX  ERROR ibv_create_cq(cqe=256) failed: Connection timed out
[1737000089.487207] [ohm:82742:0]        ib_iface.c:1059 UCX  ERROR ibv_create_cq(cqe=256) failed: Connection timed out
[1737000089.493905] [ohm:82732:0]        ib_iface.c:1059 UCX  ERROR ibv_create_cq(cqe=256) failed: Connection timed out
[1737000089.496021] [ohm:82726:0]        ib_iface.c:1059 UCX  ERROR ibv_create_cq(cqe=256) failed: Connection timed out
[1737000089.496371] [ohm:82736:0]        ib_iface.c:1059 UCX  ERROR ibv_create_cq(cqe=256) failed: Connection timed out
[1737000089.496648] [ohm:82774:0]        ib_iface.c:1059 UCX  ERROR ibv_create_cq(cqe=256) failed: Connection timed out
[1737000089.506514] [ohm:82759:0]        ib_iface.c:1059 UCX  ERROR ibv_create_cq(cqe=256) failed: Connection timed out
[1737000089.506495] [ohm:82749:0]        ib_iface.c:1059 UCX  ERROR ibv_create_cq(cqe=256) failed: Connection timed out
[1737000089.508898] [ohm:82753:0]        ib_iface.c:1059 UCX  ERROR ibv_create_cq(cqe=256) failed: Connection timed out
[1737000089.511897] [ohm:82734:0]        ib_iface.c:1059 UCX  ERROR ibv_create_cq(cqe=256) failed: Connection timed out
[1737000089.514531] [ohm:82751:0]        ib_iface.c:1059 UCX  ERROR ibv_create_cq(cqe=256) failed: Connection timed out
[1737000089.518162] [ohm:82729:0]        ib_iface.c:1059 UCX  ERROR ibv_create_cq(cqe=256) failed: Connection timed out
[1737000089.526159] [ohm:82730:0]        ib_iface.c:1059 UCX  ERROR ibv_create_cq(cqe=256) failed: Connection timed out
[1737000089.526405] [ohm:82733:0]        ib_iface.c:1059 UCX  ERROR ibv_create_cq(cqe=256) failed: Connection timed out
[1737000089.538616] [ohm:82752:0]        ib_iface.c:1059 UCX  ERROR ibv_create_cq(cqe=256) failed: Connection timed out
[1737000089.538670] [ohm:82772:0]        ib_iface.c:1059 UCX  ERROR ibv_create_cq(cqe=256) failed: Connection timed out
[1737000089.539010] [ohm:82766:0]        ib_iface.c:1059 UCX  ERROR ibv_create_cq(cqe=256) failed: Connection timed out
[1737000089.541730] [ohm:82757:0]        ib_iface.c:1059 UCX  ERROR ibv_create_cq(cqe=256) failed: Connection timed out
[1737000089.546499] [ohm:82762:0]        ib_iface.c:1059 UCX  ERROR ibv_create_cq(cqe=256) failed: Connection timed out
[1737000089.548592] [ohm:82755:0]        ib_iface.c:1059 UCX  ERROR ibv_create_cq(cqe=256) failed: Connection timed out
[1737000089.552988] [ohm:82758:0]        ib_iface.c:1059 UCX  ERROR ibv_create_cq(cqe=256) failed: Connection timed out
[1737000089.555797] [ohm:82750:0]        ib_iface.c:1059 UCX  ERROR ibv_create_cq(cqe=256) failed: Connection timed out
[1737000089.560515] [ohm:82747:0]        ib_iface.c:1059 UCX  ERROR ibv_create_cq(cqe=256) failed: Connection timed out
[1737000089.563563] [ohm:82763:0]        ib_iface.c:1059 UCX  ERROR ibv_create_cq(cqe=256) failed: Connection timed out
[1737000089.572631] [ohm:82756:0]        ib_iface.c:1059 UCX  ERROR ibv_create_cq(cqe=256) failed: Connection timed out


           ************************************************************
           *        Program running with 32 parallel MPI-processes    *
           *              working on a common directory               *
           ************************************************************

------------------------------------------------------------------------------
                              ORCA PROPERTY CALCULATIONS
------------------------------------------------------------------------------

GBWName                                 ... orca.gbw
Number of atoms                         ...     30
Number of basis functions               ...    882
Max core memory                         ...   1024 MB

Electric properties:
Dipole moment                           ... YES
Quadrupole moment                       ...  NO
Static polarizability (Dipole/Dipole)   ...  NO
Static polarizability (Dipole/Quad.)    ...  NO
Static polarizability (Quad./Quad.)     ...  NO
Static polarizability (Velocity)        ...  NO

Atomic electric properties:
Dipole moment                           ...  NO
Quadrupole moment                       ...  NO
Static polarizability                   ...  NO

Choice of electric origin               ... Center of mass
Position of electric origin             ...     0.014946    -0.017007     0.082231

General magnetic properties:
Magnetizability                         ...  NO

EPR properties:
g-Tensor (aka g-matrix)                 ...  NO
Zero-Field splitting spin-orbit         ...  NO
Zero-field splitting spin-spin          ...  NO
Hyperfine couplings                     ...  NO (   0 nuclei)
Quadrupole couplings                    ...  NO (   0 nuclei)
Contact density                         ...  NO (   0 nuclei)

NMR properties:
Chemical shifts                         ...  NO (   0 nuclei)
Spin-rotation constants                 ...  NO (   0 nuclei)
Spin-spin couplings                     ...  NO (   0 nuclei,    0 pairs)

Choice of magnetic origin               ... GIAO
Position of magnetic origin             ...     0.000000     0.000000     0.000000

Properties with geometric perturbations:
SCF Hessian                             ...  NO
IR spectrum                             ...  NO
VCD spectrum                            ...  NO
X-ray spectroscopy properties:
SCF XES/XAS/RIXS spectra                ...  NO


-------------
DIPOLE MOMENT
-------------

Method             : SCF
Type of density    : Electron Density
Multiplicity       :   3
Irrep              :   0
Energy             :  -908.7323065696251660 Eh
Relativity type    : 
Basis              : AO
                                X                 Y                 Z
Electronic contribution:     -2.545016997     -10.165438118      -5.955724731
Nuclear contribution   :      2.066804721      11.116445096       8.444298100
                        -----------------------------------------
Total Dipole Moment    :     -0.478212276       0.951006979       2.488573369
                        -----------------------------------------
Magnitude (a.u.)       :      2.706676683
Magnitude (Debye)      :      6.879825379



--------------------
Rotational spectrum 
--------------------
 
Rotational constants in cm-1:             0.017393             0.016983             0.013603 
Rotational constants in MHz :           521.441112           509.136783           407.817065 

Dipole components along the rotational axes: 
x,y,z [a.u.] :    -1.523867    -0.292755     2.217706 
x,y,z [Debye]:    -3.873363    -0.744125     5.636962 

 

-------------
DIPOLE MOMENT
-------------

Method             : TDA/CIS
Type of density    : Electron Density
Level              : Relaxed density
State              :   1
Multiplicity       :   3
Irrep              :   0
Energy             :     0.0000000000000000 Eh
Relativity type    : 
Basis              : AO
                                X                 Y                 Z
Electronic contribution:     -2.721961483     -10.183911649      -5.808672589
Nuclear contribution   :      2.066804721      11.116445096       8.444298100
                        -----------------------------------------
Total Dipole Moment    :     -0.655156762       0.932533448       2.635625511
                        -----------------------------------------
Magnitude (a.u.)       :      2.871475378
Magnitude (Debye)      :      7.298710374



--------------------
Rotational spectrum 
--------------------
 
Rotational constants in cm-1:             0.017393             0.016983             0.013603 
Rotational constants in MHz :           521.441112           509.136783           407.817065 

Dipole components along the rotational axes: 
x,y,z [a.u.] :    -1.616251    -0.474780     2.325443 
x,y,z [Debye]:    -4.108184    -1.206794     5.910808 

 

Dipole moment calculation done in   1.5 sec 

Maximum memory used throughout the entire PROP-calculation: 83.4 MB
[1737000093.591888] [ohm:82904:0]        ib_iface.c:1059 UCX  ERROR ibv_create_cq(cqe=256) failed: Connection timed out
[1737000093.597710] [ohm:82897:0]        ib_iface.c:1059 UCX  ERROR ibv_create_cq(cqe=256) failed: Connection timed out
[1737000093.601866] [ohm:82903:0]        ib_iface.c:1059 UCX  ERROR ibv_create_cq(cqe=256) failed: Connection timed out
[1737000093.603817] [ohm:82898:0]        ib_iface.c:1059 UCX  ERROR ibv_create_cq(cqe=256) failed: Connection timed out
[1737000093.622845] [ohm:82928:0]        ib_iface.c:1059 UCX  ERROR ibv_create_cq(cqe=256) failed: Connection timed out
[1737000093.630432] [ohm:82902:0]        ib_iface.c:1059 UCX  ERROR ibv_create_cq(cqe=256) failed: Connection timed out
[1737000093.646675] [ohm:82910:0]        ib_iface.c:1059 UCX  ERROR ibv_create_cq(cqe=256) failed: Connection timed out
[1737000093.658226] [ohm:82911:0]        ib_iface.c:1059 UCX  ERROR ibv_create_cq(cqe=256) failed: Connection timed out
[1737000093.659743] [ohm:82908:0]        ib_iface.c:1059 UCX  ERROR ibv_create_cq(cqe=256) failed: Connection timed out
[1737000093.660372] [ohm:82907:0]        ib_iface.c:1059 UCX  ERROR ibv_create_cq(cqe=256) failed: Connection timed out
[1737000093.660417] [ohm:82901:0]        ib_iface.c:1059 UCX  ERROR ibv_create_cq(cqe=256) failed: Connection timed out
[1737000093.663327] [ohm:82899:0]        ib_iface.c:1059 UCX  ERROR ibv_create_cq(cqe=256) failed: Connection timed out
[1737000093.671311] [ohm:82918:0]        ib_iface.c:1059 UCX  ERROR ibv_create_cq(cqe=256) failed: Connection timed out
[1737000093.671890] [ohm:82900:0]        ib_iface.c:1059 UCX  ERROR ibv_create_cq(cqe=256) failed: Connection timed out
[1737000093.673810] [ohm:82927:0]        ib_iface.c:1059 UCX  ERROR ibv_create_cq(cqe=256) failed: Connection timed out
[1737000093.674002] [ohm:82922:0]        ib_iface.c:1059 UCX  ERROR ibv_create_cq(cqe=256) failed: Connection timed out
[1737000093.682836] [ohm:82930:0]        ib_iface.c:1059 UCX  ERROR ibv_create_cq(cqe=256) failed: Connection timed out
[1737000093.688783] [ohm:82926:0]        ib_iface.c:1059 UCX  ERROR ibv_create_cq(cqe=256) failed: Connection timed out
[1737000093.692293] [ohm:82935:0]        ib_iface.c:1059 UCX  ERROR ibv_create_cq(cqe=256) failed: Connection timed out
[1737000093.695070] [ohm:82906:0]        ib_iface.c:1059 UCX  ERROR ibv_create_cq(cqe=256) failed: Connection timed out
[1737000093.695410] [ohm:82916:0]        ib_iface.c:1059 UCX  ERROR ibv_create_cq(cqe=256) failed: Connection timed out
[1737000093.699192] [ohm:82925:0]        ib_iface.c:1059 UCX  ERROR ibv_create_cq(cqe=256) failed: Connection timed out
[1737000093.699907] [ohm:82921:0]        ib_iface.c:1059 UCX  ERROR ibv_create_cq(cqe=256) failed: Connection timed out
[1737000093.702960] [ohm:82949:0]        ib_iface.c:1059 UCX  ERROR ibv_create_cq(cqe=256) failed: Connection timed out
[1737000093.705673] [ohm:82929:0]        ib_iface.c:1059 UCX  ERROR ibv_create_cq(cqe=256) failed: Connection timed out
[1737000093.705673] [ohm:82941:0]        ib_iface.c:1059 UCX  ERROR ibv_create_cq(cqe=256) failed: Connection timed out
[1737000093.708661] [ohm:82923:0]        ib_iface.c:1059 UCX  ERROR ibv_create_cq(cqe=256) failed: Connection timed out
[1737000093.711321] [ohm:82931:0]        ib_iface.c:1059 UCX  ERROR ibv_create_cq(cqe=256) failed: Connection timed out
[1737000093.713353] [ohm:82924:0]        ib_iface.c:1059 UCX  ERROR ibv_create_cq(cqe=256) failed: Connection timed out
[1737000093.714840] [ohm:82905:0]        ib_iface.c:1059 UCX  ERROR ibv_create_cq(cqe=256) failed: Connection timed out
[1737000093.714919] [ohm:82938:0]        ib_iface.c:1059 UCX  ERROR ibv_create_cq(cqe=256) failed: Connection timed out
[1737000093.715465] [ohm:82945:0]        ib_iface.c:1059 UCX  ERROR ibv_create_cq(cqe=256) failed: Connection timed out

--------------------------------
SUGGESTED CITATIONS FOR THIS RUN
--------------------------------

Below you find a list of papers that are relevant to this ORCA run
We neither can nor want to force you to cite these papers, but we appreciate if you do
You receive ORCA, which is the product of decades of hard work by many enthusiastic individuals, for free
The only thing we kindly ask in return is that you cite our papers,
We deeply appreciate it, if you show your appreciation for ORCA by not just citing the generic ORCA reference.

Please note that relegating all ORCA citations to the supporting information does *not* help us.
SI sections are not indexed - citations you put there will not count into any citation statistics
But we need these citations in order to attract the funding resources that allow us to do what we are doing

Therefore, if you are a happy ORCA user, please consider citing a few of the papers listed below in the main body of your paper

In addition to the list printed below, the program has created the file orca.bibtex that contains the list in bibtex format
You can import this file easily into all common literature databanks and citation aid programs


List of essential papers. We consider these as the minimum necessary citations

  1. Neese,F.
     Software update: the ORCA program system, version 5.0
     WIRES Comput. Molec. Sci., 2022 12(1)e1606
     doi.org/10.1002/wcms.1606

List of papers to cite with high priority. The work reported in these papers was absolutely
necessary for this run to complete.
Our perspective: the developers of density functionals and basis sets usually get cited in chemistry papers
Good! But without the algorithms to do something with them, the functionals or basis sets would not do anything.
Hence, in our opinion, the algorithm design and method developments papers are equally worthy of getting cited

  1. Neese,F.; Olbrich,G.
     Efficient use of the resolution of the identity approximation in time-dependent density functional calculations with hybrid density functionals
     Chem. Phys. Lett., 2002 362 170-178
     doi.org/10.1016/s0009-2614(02)01053-9
  2. Neese,F.
     An improvement of the resolution of the identity approximation for the formation of the Coulomb matrix
     J. Comp. Chem., 2003 24(14)1740-1747
     doi.org/10.1002/jcc.10318
  3. Neese,F.; Wennmohs,F.; Hansen,A.; Becker,U.
     Efficient, approximate and parallel Hartree-Fock and hybrid DFT calculations. A 'chain-of-spheres' algorithm for the Hartree-Fock exchange
     Chem. Phys., 2009 356(1-3)98-109
     doi.org/10.1016/j.chemphys.2008.10.036
  4. Petrenko,T.; Kossmann,S.; Neese,F.
     Efficient time-dependent density functional theory approximations for hybrid density functionals: Analytical gradients and parallelization
     J. Chem. Phys., 2011 134 054116
     doi.org/10.1063/1.3533441
  5. Helmich-Paris,B.; de Souza,B.; Neese,F.; Izsák,R.
     An improved chain of spheres for exchange algorithm
     J. Chem. Phys., 2021 155 104109
     doi.org/doi: 10.1063/5.0058766.
  6. Neese,F.
     The SHARK Integral Generation and Digestion System
     J. Comp. Chem., 2022  1-16
     doi.org/10.1002/jcc.26942
  7. Lehtola,S.; Steigemann,C.; Oliveira,M.; Marques,M.
     Recent developments in Libxc - A comprehensive library of functionals for density functional theory
     Software X, 2018 7 
     doi.org/10.1016/j.softx.2017.11.002
  8. Grimme,S.; Antony,J.; Ehrlich,S.; Krieg,H.
     A consistent and accurate ab initio parametrization of density functional dispersion correction (DFT-D) for the 94 elements H-Pu
     J. Chem. Phys., 2010 132 154104-XXXX
     doi.org/10.1063/1.3382344
  9. Grimme,S.; Ehrlich,S.; Goerigk,L.
     Effect of the damping function in dispersion corrected density functional theory
     J. Comput. Chem., 2011 32(7)1456-1465
     doi.org/10.1002/jcc.21759

List of suggested additional citations. These are papers that are important in the 'surrounding' of 
of this run, or papers that preceded the highly important papers. If you like your results we are grateful for a citation.

  1. Izsak,R.; Neese,F.
     An overlap fitted chain of spheres exchange method
     J. Chem. Phys., 2011 135 144105
     doi.org/10.1063/1.3646921
  2. Izsak,R.; Hansen,A.; Neese,F.
     The resolution of identity and chain of spheres approximations for the LPNO-CCSD singles Fock term
     Molec. Phys., 2012 110 2413-2417
     doi.org/10.1080/00268976.2012.687466
  3. Neese,F.
     The ORCA program system
     WIRES Comput. Molec. Sci., 2012 2(1)73-78
     doi.org/10.1002/wcms.81
  4. Izsak,R.; Neese,F.; Klopper,W.
     Robust fitting techniques in the chain of spheres approximation to the Fock exchange: The role of the complementary space
     J. Chem. Phys., 2013 139 
     doi.org/10.1063/1.4819264
  5. Neese,F.
     Software update: the ORCA program system, version 4.0
     WIRES Comput. Molec. Sci., 2018 8(1)1-6
     doi.org/10.1002/wcms.1327
  6. Neese,F.; Wennmohs,F.; Becker,U.; Riplinger,C.
     The ORCA quantum chemistry program package
     J. Chem. Phys., 2020 152 Art. No. L224108
     doi.org/10.1063/5.0004608

List of optional additional citations

  1. Neese,F.
     Approximate second-order SCF convergence for spin unrestricted wavefunctions
     Chem. Phys. Lett., 2000 325(1-3)93-98
     doi.org/10.1016/s0009-2614(00)00662-x

Timings for individual modules:

Sum of individual times          ...     1928.551 sec (=  32.143 min)
Startup calculation              ...       48.627 sec (=   0.810 min)   2.5 %
SCF iterations                   ...     1333.160 sec (=  22.219 min)  69.1 %
Property integrals               ...       19.347 sec (=   0.322 min)   1.0 %
Property calculations            ...        4.249 sec (=   0.071 min)   0.2 %
CIS module                       ...      523.168 sec (=   8.719 min)  27.1 %
                             ****ORCA TERMINATED NORMALLY****
TOTAL RUN TIME: 0 days 0 hours 32 minutes 10 seconds 710 msec
