30
Properties=species:S:1:pos:R:3:momenta:R:3:forces:R:3 Coordinates=T from=T ORCA-job=T orca=T E=T -908.805346932436=T energy=-24728.704579274297 free_energy=-24728.704579274297 stress="-2.3514303738262595e-06 -1.4596925456108259e-06 8.357962571066553e-07 -1.4596925456108259e-06 -2.489612081791271e-06 3.5177729737425503e-07 8.357962571066553e-07 3.5177729737425503e-07 3.9366461141164826e-07" pbc="F F F"
O        2.93340927       0.44392730      -1.01108504      -0.10704468       0.39357490       0.70995266       0.41782279       0.56628946      -0.00453615
O       -0.31416208       1.41349787      -2.34523429       0.02358749       0.16971323       0.22384932       0.26862741       0.33292099      -0.68039573
O        0.17590087      -3.08175297      -0.33453110      -0.69744898      -0.71041323      -0.06890267       0.30184545      -0.28424866      -0.55630408
O       -3.08148447      -1.56259146      -0.34546029      -1.30713559       0.30637853       0.55706789       0.79206049       0.72664303      -0.05775654
N        0.22541925      -1.50676686       1.18867061      -0.30530338      -0.12576827      -0.67780748      -0.38526922       0.35638386       1.45566746
N       -2.02311823      -0.07431212       1.04814740      -0.27809895      -0.06713267       0.52693795      -1.05594890      -0.60586271      -0.71825569
N        1.58473688      -1.31307487      -0.64855429       0.49578664       0.13279606       0.41737517       0.41843601      -0.10829148      -1.03156470
N       -1.41041203      -0.23083424      -1.23346234       0.71626736       0.44175024      -0.19258332      -0.26581639      -2.01659127      -0.90758209
C        1.65425219       0.43507892       0.99304947       0.91699554       0.10804345       0.14680721      -1.10287696      -0.60573143      -0.11156928
C       -0.72046241       1.61156715      -0.01163169      -0.52401360       0.02869655      -0.85752697       0.01819754       0.21305059      -1.02390618
C        0.39584936      -0.17140310       1.58085145      -0.29801388      -1.11606605       0.09488769       1.45878056       2.09710176       0.61108844
C       -0.89350108       0.78853917       1.19401119       0.12044851       0.02269394      -0.36403424       0.24107075       0.12727275       1.00211469
C        2.22645272       1.64084316       1.60129874       0.23898338      -0.03628913      -0.75150446      -1.30234483      -0.92219291       0.78108508
C       -0.56390233       3.05913060       0.08950043       0.46658735      -0.46758097      -0.25872439      -0.90309047      -0.03098970       0.66163824
C        2.11930271      -0.06925308      -0.27855279       0.41044037       0.56587461      -0.80580101       0.12578601      -0.84994370      -0.03751179
C       -0.77353881       0.98062818      -1.32400175      -0.42005695       0.18425533       0.83457311      -0.22889866       0.17013380       1.46429377
C        0.65110269      -2.02788230       0.03669380       0.38223014       0.21656559       0.28822334      -0.44782434      -1.02377469      -0.38492196
C       -2.22926868      -0.69403568      -0.19646857       0.02464406      -0.03304711      -0.02625790      -0.79507579      -0.22669744       0.58577843
H        0.55093308      -0.04624064       2.70197399      -0.37280633       0.17258441      -0.10742639      -0.57766340      -0.40947403      -0.93124834
H       -1.03176846       1.49941757       2.04070354       0.20930223       0.07143948      -0.20766377      -0.00110233      -0.67019238      -0.35727040
H        3.19257080       1.77588737       1.29178766       0.11263071      -0.06075590       0.14423926       2.03168921       0.32369157      -0.59922606
H        1.66161189       2.48700373       1.30529296      -0.15764988      -0.28360295      -0.00340311      -0.42657205       0.83001473      -0.20079020
H        2.16472172       1.55890934       2.68429579      -0.07163852      -0.08430661       0.19444340       0.05397359       0.10674536       0.09515349
H       -1.46342459       3.63536953      -0.22166129       0.04259041      -0.04400409      -0.11900481       0.21508908      -0.35391465       0.32651071
H       -0.28367659       3.25630690       1.09970119      -0.05780526       0.22003165      -0.09098175      -0.22714392       0.63084994       0.64844963
H        0.20514653       3.43033194      -0.49544195       0.11269537      -0.23357573       0.11951091       1.30966268       0.40690646      -1.27628438
H       -0.54901749      -1.98669028       1.61399690       0.17087651       0.16287756      -0.03142899       0.01641882      -0.16615908      -0.18344778
H       -2.87998721      -0.00482921       1.60866244       0.00003754      -0.02353447       0.00373032       0.65253841       0.03841408      -0.27028185
H        1.88632255      -1.73578774      -1.55299065      -0.10461623       0.01142820       0.01126546      -0.22708345       0.57086276       0.91681877
H       -1.28084513      -0.89821466      -2.03176806       0.25752861       0.07737347       0.29018756      -0.37528809       0.77678300       0.78425450
