
                                 *****************
                                 * O   R   C   A *
                                 *****************

                                            #,                                       
                                            ###                                      
                                            ####                                     
                                            #####                                    
                                            ######                                   
                                           ########,                                 
                                     ,,################,,,,,                         
                               ,,#################################,,                 
                          ,,##########################################,,             
                       ,#########################################, ''#####,          
                    ,#############################################,,   '####,        
                  ,##################################################,,,,####,       
                ,###########''''           ''''###############################       
              ,#####''   ,,,,##########,,,,          '''####'''          '####       
            ,##' ,,,,###########################,,,                        '##       
           ' ,,###''''                  '''############,,,                           
         ,,##''                                '''############,,,,        ,,,,,,###''
      ,#''                                            '''#######################'''  
     '                                                          ''''####''''         
             ,#######,   #######,   ,#######,      ##                                
            ,#'     '#,  ##    ##  ,#'     '#,    #''#        ,####,   ,####,        
            ##       ##  ##   ,#'  ##            #'  '#       #'       #'  '#        
            ##       ##  #######   ##           ,######,      #####,   #    #        
            '#,     ,#'  ##    ##  '#,     ,#' ,#      #,     #,   #   #,  ,#        
             '#######'   ##     ##  '#######'  #'      '#     '####' # '####'        



                #########################################################
                #                        -***-                          #
                #          Department of theory and spectroscopy        #
                #                                                       #
                #                      Frank Neese                      #
                #                                                       #
                #     Directorship, Architecture, Infrastructure        #
                #                    SHARK, DRIVERS                     #
                #        Core code/Algorithms in most modules           #
                #                                                       #
                #        Max Planck Institute fuer Kohlenforschung      #
                #                Kaiser Wilhelm Platz 1                 #
                #                 D-45470 Muelheim/Ruhr                 #
                #                      Germany                          #
                #                                                       #
                #                  All rights reserved                  #
                #                        -***-                          #
                #########################################################


                         Program Version 6.0.0  -   RELEASE  -


 With contributions from (in alphabetic order):
   Daniel Aravena         : Magnetic Suceptibility
   Michael Atanasov       : Ab Initio Ligand Field Theory (pilot matlab implementation)
   Alexander A. Auer      : GIAO ZORA, VPT2 properties, NMR spectrum
   Ute Becker             : All parallelization in ORCA, NUMFREQ, NUMCALC
   Giovanni Bistoni       : ED, misc. LED, open-shell LED, HFLD
   Martin Brehm           : Molecular dynamics
   Dmytro Bykov           : pre 5.0 version of the SCF Hessian
   Marcos Casanova-Páez   : Triplet and SCS-CIS(D). UHF-(DLPNO)-IP/EA/STEOM-CCSD. UHF-CVS-IP/STEOM-CCSD
   Vijay G. Chilkuri      : MRCI spin determinant printing, contributions to CSF-ICE
   Pauline Colinet        : FMM embedding
   Dipayan Datta          : RHF DLPNO-CCSD density
   Achintya Kumar Dutta   : EOM-CC, STEOM-CC
   Nicolas Foglia         : Exact transition moments, OPA infrastructure, MCD improvements
   Dmitry Ganyushin       : Spin-Orbit,Spin-Spin,Magnetic field MRCI
   Miquel Garcia          : C-PCM and meta-GGA Hessian, CCSD/C-PCM, Gaussian charge scheme
   Tiago L. C. Gouveia    : GS-ROHF, GS-ROCIS
   Yang Guo               : DLPNO-NEVPT2, F12-NEVPT2, CIM, IAO-localization
   Andreas Hansen         : Spin unrestricted coupled pair/coupled cluster methods
   Ingolf Harden          : AUTO-CI MPn and infrastructure 
   Benjamin Helmich-Paris : MC-RPA, TRAH-(SCF,CASSCF), AVAS, COSX integrals, SCF dyn. polar.
   Lee Huntington         : MR-EOM, pCC
   Robert Izsak           : Overlap fitted RIJCOSX, COSX-SCS-MP3, EOM
   Riya Kayal             : Wick's Theorem for AUTO-CI, AUTO-CI UHF-CCSDT
   Emily Kempfer          : AUTO-CI, RHF CISDT and CCSDT
   Christian Kollmar      : KDIIS, OOCD, Brueckner-CCSD(T), CCSD density, CASPT2, CASPT2-K, improved NEVPT2
   Axel Koslowski         : Symmetry handling
   Simone Kossmann        : Meta GGA functionals, TD-DFT gradient, OOMP2, (MP2 Hessian; deprecated post 5.0)
   Lucas Lang             : DCDCAS
   Marvin Lechner         : AUTO-CI (C++ implementation), FIC-MRCC
   Spencer Leger          : CASSCF response
   Dagmar Lenk            : GEPOL surface, SMD, ORCA-2-JSON
   Dimitrios Liakos       : Extrapolation schemes; Compound Job, initial MDCI parallelization
   Dimitrios Manganas     : Further ROCIS development; embedding schemes. LFT, Crystal Embedding
   Dimitrios Pantazis     : SARC Basis sets
   Anastasios Papadopoulos: AUTO-CI, single reference methods and gradients
   Taras Petrenko         : pre 6.0 DFT Hessian and TD-DFT gradient, (ASA, deprecated), ECA, 1-Electron XAS/XES, NRVS
   Peter Pinski           : DLPNO-MP2, DLPNO-MP2 Gradient
   Christoph Reimann      : Effective Core Potentials
   Marius Retegan         : Local ZFS, SOC
   Christoph Riplinger    : Optimizer, TS searches, QM/MM, DLPNO-CCSD(T), (RO)-DLPNO pert. Triples
   Michael Roemelt        : Original ROCIS implementation
   Masaaki Saitow         : Open-shell DLPNO-CCSD energy and density
   Barbara Sandhoefer     : DKH picture change effects
   Kantharuban Sivalingam : CASSCF convergence/infrastructure, NEVPT2 and variants, FIC-MRCI
   Bernardo de Souza      : ESD, SOC TD-DFT
   Georgi Stoychev        : AutoAux, RI-MP2 NMR, DLPNO-MP2 response, X2C
   Van Anh Tran           : RI-MP2 g-tensors
   Willem Van den Heuvel  : Paramagnetic NMR
   Zikuan Wang            : NOTCH, Electric field optimization 
   Frank Wennmohs         : Technical directorship and infrastructure
   Hang Xu                : AUTO-CI-Response properties 


 We gratefully acknowledge several colleagues who have allowed us to
 interface, adapt or use parts of their codes:
   Stefan Grimme, W. Hujo, H. Kruse, P. Pracht,  : VdW corrections, initial TS optimization,
                  C. Bannwarth, S. Ehlert,         DFT functionals, gCP, sTDA/sTD-DF
                  L. Wittmann, M. Mueller
   Ed Valeev, F. Pavosevic, A. Kumar             : LibInt (2-el integral package), F12 methods
   Garnet Chan, S. Sharma, J. Yang, R. Olivares  : DMRG
   Ulf Ekstrom                                   : XCFun DFT Library
   Mihaly Kallay                                 : mrcc  (arbitrary order and MRCC methods)
   Frank Weinhold                                : gennbo (NPA and NBO analysis)
   Simon Mueller                                 : openCOSMO-RS
   Christopher J. Cramer and Donald G. Truhlar   : smd solvation model
   Lars Goerigk                                  : TD-DFT with DH, B97 family of functionals
   V. Asgeirsson, H. Jonsson                     : NEB implementation
   FAccTs GmbH                                   : IRC, NEB, NEB-TS, DLPNO-Multilevel, CI-OPT
                                                   MM, QMMM, 2- and 3-layer-ONIOM, Crystal-QMMM,
                                                   LR-CPCM, SF, NACMEs, symmetry and pop. for TD-DFT,
                                                   nearIR, NL-DFT gradient (VV10), updates on ESD,
                                                   ML-optimized integration grids, MBIS, APM,
                                                   GOAT, DOCKER, SOLVATOR, interface openCOSMO-RS
   S Lehtola, MJT Oliveira, MAL Marques          : LibXC Library
   Liviu Ungur et al                             : ANISO software


 Your calculation uses the libint2 library for the computation of 2-el integrals
 For citations please refer to: http://libint.valeyev.net

 Your ORCA version has been built with support for libXC version: 6.2.2
 For citations please refer to: https://libxc.gitlab.io

 This ORCA versions uses:
   CBLAS   interface :  Fast vector & matrix operations
   LAPACKE interface :  Fast linear algebra routines
   SCALAPACK package :  Parallel linear algebra routines
   Shared memory     :  Shared parallel matrices
   BLAS/LAPACK       :  OpenBLAS 0.3.27  USE64BITINT DYNAMIC_ARCH NO_AFFINITY Zen SINGLE_THREADED
        Core in use  :  Zen
   Copyright (c) 2011-2014, The OpenBLAS Project


Your calculation utilizes the atom-pairwise dispersion correction
with the Becke-Johnson damping scheme (D3BJ)


Warning: RI is on but no J-basis has been assigned. Assigning Def2/J (nothing to worry about!)
================================================================================

----- Orbital basis set information -----
Your calculation utilizes the basis: def2-TZVPPD
   F. Weigend and R. Ahlrichs, Phys. Chem. Chem. Phys. 7, 3297 (2005).
   D. Rappoport and F. Furche, J. Chem. Phys. 133, 134105 (2010)
   D. Rappoport, J. Chem. Phys. 155, 124102 (2021).

----- AuxJ basis set information -----
Your calculation utilizes the auxiliary basis: def2/J
   F. Weigend, Phys. Chem. Chem. Phys. 8, 1057 (2006).

================================================================================
                                        WARNINGS
                       Please study these warnings very carefully!
================================================================================

Using LibXC functional ID 531 : wB97M-V exchange-correlation functional
[ 1]  N. Mardirossian and M. Head-Gordon.,  J. Chem. Phys. 144, 214110 (2016)
Using LibXC functional ID 531 : wB97M-V exchange-correlation functional
[ 1]  N. Mardirossian and M. Head-Gordon.,  J. Chem. Phys. 144, 214110 (2016)

WARNING: B97M-V or wB97M-V functional requested.
  ===> : libXC variant has now been activated.
         Any manually given DFX/HFX/RangeSep scaling parameters are IGNORED!

Your calculation utilizes LibXC
 by S Lehtola, C Steigemann, MJT Oliveira & MAL Marques
Please cite in your paper:
 S Lehtola, C Steigemann, MJT Oliveira & MAL Marques, SoftwareX, 7, (2018), 1.
   


WARNING: your system is open-shell and RHF/RKS was chosen
  ===> : WILL SWITCH to UHF/UKS

INFO   : Checking CIS options ...

WARNING: CIS/ROCIS methods need fully converged wavefunctions
  ===> : Setting SCFConvForced true
         You can overwrite this default with %scf ConvForced false 


================================================================================
                                       INPUT FILE
================================================================================
NAME = orca.inp
|  1> ! Engrad def2-TZVPPD wB97M-D3BJ 
|  2> %pal nprocs 8 end%pal nprocs 64 end 
|  3> %tddft Nroots 2 Iroot 1 
|  4> sf true 
|  5> end 
|  6> *xyz 0 3 
|  7> O   2.98912022 0.45865848 -1.07757637
|  8> O   -0.40811998 1.54575698 -2.2032541
|  9> O   0.41285664 -3.13386723 -0.26043343
| 10> O   -3.04734922 -1.68664867 -0.53033078
| 11> N   0.35383584 -1.46474576 1.27020154
| 12> N   -2.17209596 -0.19034489 0.9423564
| 13> N   1.47216495 -1.19346943 -0.76484638
| 14> N   -1.44569757 -0.23882854 -1.25714474
| 15> C   1.62050539 0.59044204 0.83942777
| 16> C   -0.69870201 1.56208256 0.15404916
| 17> C   0.37443519 -0.0621589 1.58978035
| 18> C   -1.09061985 0.67858158 1.29120828
| 19> C   2.42024751 1.62253527 1.52240815
| 20> C   -0.59773389 3.02666352 0.30655034
| 21> C   2.09576874 -0.01160961 -0.39880628
| 22> C   -0.8119811 1.00006393 -1.19636413
| 23> C   0.71212359 -2.00944207 0.06039761
| 24> C   -2.28197398 -0.7896694 -0.2893588
| 25> H   0.5589864 0.02794564 2.65203704
| 26> H   -1.36671049 1.25949338 2.16021673
| 27> H   3.22378678 1.96244834 0.88912491
| 28> H   1.80791632 2.48016057 1.8159839
| 29> H   2.82277729 1.20807133 2.44591601
| 30> H   -1.59834693 3.44430602 0.4813608
| 31> H   0.00338422 3.29656579 1.16587142
| 32> H   -0.18585335 3.47280095 -0.58963851
| 33> H   -0.23999382 -2.07448978 1.80026738
| 34> H   -2.75730309 -0.61016745 1.65668224
| 35> H   1.79525723 -1.63060375 -1.61905081
| 36> H   -1.55575268 -0.64276277 -2.17603136
| 37> *
| 38> 
| 39>                          ****END OF INPUT****
================================================================================

                     *******************************
                     * Energy+Gradient Calculation *
                     *******************************

---------------------------------
CARTESIAN COORDINATES (ANGSTROEM)
---------------------------------
  O      2.989120    0.458658   -1.077576
  O     -0.408120    1.545757   -2.203254
  O      0.412857   -3.133867   -0.260433
  O     -3.047349   -1.686649   -0.530331
  N      0.353836   -1.464746    1.270202
  N     -2.172096   -0.190345    0.942356
  N      1.472165   -1.193469   -0.764846
  N     -1.445698   -0.238829   -1.257145
  C      1.620505    0.590442    0.839428
  C     -0.698702    1.562083    0.154049
  C      0.374435   -0.062159    1.589780
  C     -1.090620    0.678582    1.291208
  C      2.420248    1.622535    1.522408
  C     -0.597734    3.026664    0.306550
  C      2.095769   -0.011610   -0.398806
  C     -0.811981    1.000064   -1.196364
  C      0.712124   -2.009442    0.060398
  C     -2.281974   -0.789669   -0.289359
  H      0.558986    0.027946    2.652037
  H     -1.366710    1.259493    2.160217
  H      3.223787    1.962448    0.889125
  H      1.807916    2.480161    1.815984
  H      2.822777    1.208071    2.445916
  H     -1.598347    3.444306    0.481361
  H      0.003384    3.296566    1.165871
  H     -0.185853    3.472801   -0.589639
  H     -0.239994   -2.074490    1.800267
  H     -2.757303   -0.610167    1.656682
  H      1.795257   -1.630604   -1.619051
  H     -1.555753   -0.642763   -2.176031

----------------------------
CARTESIAN COORDINATES (A.U.)
----------------------------
  NO LB      ZA    FRAG     MASS         X           Y           Z
   0 O     8.0000    0    15.999    5.648619    0.866739   -2.036324
   1 O     8.0000    0    15.999   -0.771235    2.921057   -4.163547
   2 O     8.0000    0    15.999    0.780186   -5.922151   -0.492148
   3 O     8.0000    0    15.999   -5.758655   -3.187304   -1.002180
   4 N     7.0000    0    14.007    0.668653   -2.767968    2.400333
   5 N     7.0000    0    14.007   -4.104667   -0.359700    1.780796
   6 N     7.0000    0    14.007    2.781989   -2.255330   -1.445350
   7 N     7.0000    0    14.007   -2.731972   -0.451321   -2.375659
   8 C     6.0000    0    12.011    3.062311    1.115774    1.586289
   9 C     6.0000    0    12.011   -1.320355    2.951908    0.291111
  10 C     6.0000    0    12.011    0.707580   -0.117463    3.004249
  11 C     6.0000    0    12.011   -2.060973    1.282333    2.440030
  12 C     6.0000    0    12.011    4.573605    3.066147    2.876934
  13 C     6.0000    0    12.011   -1.129553    5.719565    0.579296
  14 C     6.0000    0    12.011    3.960429   -0.021939   -0.753635
  15 C     6.0000    0    12.011   -1.534422    1.889847   -2.260801
  16 C     6.0000    0    12.011    1.345719   -3.797295    0.114135
  17 C     6.0000    0    12.011   -4.312306   -1.492259   -0.546809
  18 H     1.0000    0     1.008    1.056331    0.052810    5.011624
  19 H     1.0000    0     1.008   -2.582709    2.380098    4.082218
  20 H     1.0000    0     1.008    6.092074    3.708490    1.680203
  21 H     1.0000    0     1.008    3.416467    4.686824    3.431712
  22 H     1.0000    0     1.008    5.334276    2.282924    4.622111
  23 H     1.0000    0     1.008   -3.020438    6.508795    0.909640
  24 H     1.0000    0     1.008    0.006395    6.229607    2.203178
  25 H     1.0000    0     1.008   -0.351212    6.562643   -1.114255
  26 H     1.0000    0     1.008   -0.453523   -3.920218    3.402012
  27 H     1.0000    0     1.008   -5.210548   -1.153049    3.130676
  28 H     1.0000    0     1.008    3.392545   -3.081395   -3.059563
  29 H     1.0000    0     1.008   -2.939946   -1.214646   -4.112103

--------------------------------
INTERNAL COORDINATES (ANGSTROEM)
--------------------------------
 O      0   0   0     0.000000000000     0.00000000     0.00000000
 O      1   0   0     3.740344165584     0.00000000     0.00000000
 O      1   2   0     4.495675432573    76.49493179     0.00000000
 O      3   1   2     3.760360452606   101.93024529   345.47804141
 N      3   1   2     2.265456542915    63.19065431   279.26946098
 N      4   3   1     2.274599041880    81.52511252   308.16947480
 N      1   2   3     2.264614750642    69.21815528   359.83103553
 N      2   1   3     2.270778644990    93.50912691    11.42624363
 C      1   2   3     2.359105409336    72.62619444   293.21379936
 C      2   1   3     2.375201696768    79.30548844    72.43511588
 C      5   3   1     1.438681635688   150.22647003    36.68758914
 C      6   4   3     1.430496913994   148.03684994    47.40655106
 C      9   1   2     1.473521663695    95.79103766   241.09128093
 C     10   2   1     1.475956828485    95.79654311   102.63939244
 C      1   2   3     1.216535152952    67.25013697   325.70728279
 C      2   1   3     1.214377256355    85.52193456    42.15744281
 C      3   1   2     1.206990142475    33.04790111   287.71071315
 C      4   3   1     1.203510932215    71.77661315   337.56202487
 H     11   5   3     1.081927563514   107.56147042   194.48872034
 H     12   6   4     1.081138403280   109.22847286   173.08560956
 H     13   9   1     1.078083445589   110.67699615     4.64732282
 H     13   9   1     1.093918352728   111.69806117   126.45774573
 H     13   9   1     1.089347212246   109.08677173   243.44855463
 H     14  10   2     1.098276108522   109.35744120   104.72388446
 H     14  10   2     1.082877156493   111.54868668   222.31271128
 H     14  10   2     1.082514960886   110.45326578   345.05770074
 H      5   3   1     1.002691991469    85.67387275   184.36309902
 H      6   4   3     1.014386402008    87.80410093   251.39134903
 H      7   1   2     1.012492095450    89.12412435    99.60535351
 H      8   2   1     1.009766116394    89.14235518   255.04699547

---------------------------
INTERNAL COORDINATES (A.U.)
---------------------------
 O      0   0   0     0.000000000000     0.00000000     0.00000000
 O      1   0   0     7.068226119563     0.00000000     0.00000000
 O      1   2   0     8.495595354560    76.49493179     0.00000000
 O      3   1   2     7.106051420254   101.93024529   345.47804141
 N      3   1   2     4.281092434409    63.19065431   279.26946098
 N      4   3   1     4.298369253632    81.52511252   308.16947480
 N      1   2   3     4.279501677553    69.21815528   359.83103553
 N      2   1   3     4.291149749788    93.50912691    11.42624363
 C      1   2   3     4.458063144698    72.62619444   293.21379936
 C      2   1   3     4.488480719716    79.30548844    72.43511588
 C      5   3   1     2.718714285352   150.22647003    36.68758914
 C      6   4   3     2.703247402869   148.03684994    47.40655106
 C      9   1   2     2.784552396784    95.79103766   241.09128093
 C     10   2   1     2.789154191328    95.79654311   102.63939244
 C      1   2   3     2.298918271368    67.25013697   325.70728279
 C      2   1   3     2.294840437774    85.52193456    42.15744281
 C      3   1   2     2.280880815620    33.04790111   287.71071315
 C      4   3   1     2.274306061066    71.77661315   337.56202487
 H     11   5   3     2.044546791782   107.56147042   194.48872034
 H     12   6   4     2.043055495064   109.22847286   173.08560956
 H     13   9   1     2.037282461678   110.67699615     4.64732282
 H     13   9   1     2.067206099526   111.69806117   126.45774573
 H     13   9   1     2.058567895896   109.08677173   243.44855463
 H     14  10   2     2.075441064535   109.35744120   104.72388446
 H     14  10   2     2.046341262450   111.54868668   222.31271128
 H     14  10   2     2.045656811947   110.45326578   345.05770074
 H      5   3   1     1.894813260553    85.67387275   184.36309902
 H      6   4   3     1.916912493770    87.80410093   251.39134903
 H      7   1   2     1.913332773161    89.12412435    99.60535351
 H      8   2   1     1.908181419298    89.14235518   255.04699547

---------------------
BASIS SET INFORMATION
---------------------
There are 4 groups of distinct atoms

 Group   1 Type O   : 12s7p3d1f contracted to 6s4p3d1f pattern {621111/4111/111/1}
 Group   2 Type N   : 12s6p3d1f contracted to 6s3p3d1f pattern {621111/411/111/1}
 Group   3 Type C   : 12s6p3d1f contracted to 6s3p3d1f pattern {621111/411/111/1}
 Group   4 Type H   : 5s3p1d contracted to 3s3p1d pattern {311/111/1}

Atom   0O    basis set group =>   1
Atom   1O    basis set group =>   1
Atom   2O    basis set group =>   1
Atom   3O    basis set group =>   1
Atom   4N    basis set group =>   2
Atom   5N    basis set group =>   2
Atom   6N    basis set group =>   2
Atom   7N    basis set group =>   2
Atom   8C    basis set group =>   3
Atom   9C    basis set group =>   3
Atom  10C    basis set group =>   3
Atom  11C    basis set group =>   3
Atom  12C    basis set group =>   3
Atom  13C    basis set group =>   3
Atom  14C    basis set group =>   3
Atom  15C    basis set group =>   3
Atom  16C    basis set group =>   3
Atom  17C    basis set group =>   3
Atom  18H    basis set group =>   4
Atom  19H    basis set group =>   4
Atom  20H    basis set group =>   4
Atom  21H    basis set group =>   4
Atom  22H    basis set group =>   4
Atom  23H    basis set group =>   4
Atom  24H    basis set group =>   4
Atom  25H    basis set group =>   4
Atom  26H    basis set group =>   4
Atom  27H    basis set group =>   4
Atom  28H    basis set group =>   4
Atom  29H    basis set group =>   4
---------------------------------
AUXILIARY/J BASIS SET INFORMATION
---------------------------------
There are 4 groups of distinct atoms

 Group   1 Type O   : 12s5p4d2f1g contracted to 6s4p3d1f1g pattern {711111/2111/211/2/1}
 Group   2 Type N   : 12s5p4d2f1g contracted to 6s4p3d1f1g pattern {711111/2111/211/2/1}
 Group   3 Type C   : 12s5p4d2f1g contracted to 6s4p3d1f1g pattern {711111/2111/211/2/1}
 Group   4 Type H   : 5s2p1d contracted to 3s1p1d pattern {311/2/1}

Atom   0O    basis set group =>   1
Atom   1O    basis set group =>   1
Atom   2O    basis set group =>   1
Atom   3O    basis set group =>   1
Atom   4N    basis set group =>   2
Atom   5N    basis set group =>   2
Atom   6N    basis set group =>   2
Atom   7N    basis set group =>   2
Atom   8C    basis set group =>   3
Atom   9C    basis set group =>   3
Atom  10C    basis set group =>   3
Atom  11C    basis set group =>   3
Atom  12C    basis set group =>   3
Atom  13C    basis set group =>   3
Atom  14C    basis set group =>   3
Atom  15C    basis set group =>   3
Atom  16C    basis set group =>   3
Atom  17C    basis set group =>   3
Atom  18H    basis set group =>   4
Atom  19H    basis set group =>   4
Atom  20H    basis set group =>   4
Atom  21H    basis set group =>   4
Atom  22H    basis set group =>   4
Atom  23H    basis set group =>   4
Atom  24H    basis set group =>   4
Atom  25H    basis set group =>   4
Atom  26H    basis set group =>   4
Atom  27H    basis set group =>   4
Atom  28H    basis set group =>   4
Atom  29H    basis set group =>   4
[1739892926.833577] [ohm:210855:0]        ib_iface.c:1059 UCX  ERROR ibv_create_cq(cqe=256) failed: Connection timed out
[1739892926.852689] [ohm:210849:0]        ib_iface.c:1059 UCX  ERROR ibv_create_cq(cqe=256) failed: Connection timed out
[1739892926.862749] [ohm:210851:0]        ib_iface.c:1059 UCX  ERROR ibv_create_cq(cqe=256) failed: Connection timed out
[1739892926.866095] [ohm:210850:0]        ib_iface.c:1059 UCX  ERROR ibv_create_cq(cqe=256) failed: Connection timed out
[1739892926.876893] [ohm:210859:0]        ib_iface.c:1059 UCX  ERROR ibv_create_cq(cqe=256) failed: Connection timed out
[1739892926.911650] [ohm:210852:0]        ib_iface.c:1059 UCX  ERROR ibv_create_cq(cqe=256) failed: Connection timed out
[1739892926.923027] [ohm:210861:0]        ib_iface.c:1059 UCX  ERROR ibv_create_cq(cqe=256) failed: Connection timed out
[1739892926.930832] [ohm:210863:0]        ib_iface.c:1059 UCX  ERROR ibv_create_cq(cqe=256) failed: Connection timed out
[1739892926.941344] [ohm:210864:0]        ib_iface.c:1059 UCX  ERROR ibv_create_cq(cqe=256) failed: Connection timed out
[1739892926.944560] [ohm:210856:0]        ib_iface.c:1059 UCX  ERROR ibv_create_cq(cqe=256) failed: Connection timed out
[1739892926.948593] [ohm:210858:0]        ib_iface.c:1059 UCX  ERROR ibv_create_cq(cqe=256) failed: Connection timed out
[1739892926.955870] [ohm:210853:0]        ib_iface.c:1059 UCX  ERROR ibv_create_cq(cqe=256) failed: Connection timed out
[1739892926.956135] [ohm:210934:0]        ib_iface.c:1059 UCX  ERROR ibv_create_cq(cqe=256) failed: Connection timed out
[1739892926.956191] [ohm:210866:0]        ib_iface.c:1059 UCX  ERROR ibv_create_cq(cqe=256) failed: Connection timed out
[1739892926.966169] [ohm:210966:0]        ib_iface.c:1059 UCX  ERROR ibv_create_cq(cqe=256) failed: Connection timed out
[1739892926.967480] [ohm:210854:0]        ib_iface.c:1059 UCX  ERROR ibv_create_cq(cqe=256) failed: Connection timed out
[1739892926.977296] [ohm:210883:0]        ib_iface.c:1059 UCX  ERROR ibv_create_cq(cqe=256) failed: Connection timed out
[1739892926.984398] [ohm:210969:0]        ib_iface.c:1059 UCX  ERROR ibv_create_cq(cqe=256) failed: Connection timed out
[1739892926.991885] [ohm:210962:0]        ib_iface.c:1059 UCX  ERROR ibv_create_cq(cqe=256) failed: Connection timed out
[1739892927.037272] [ohm:210865:0]        ib_iface.c:1059 UCX  ERROR ibv_create_cq(cqe=256) failed: Connection timed out
[1739892927.048500] [ohm:210939:0]        ib_iface.c:1059 UCX  ERROR ibv_create_cq(cqe=256) failed: Connection timed out
[1739892927.068595] [ohm:210973:0]        ib_iface.c:1059 UCX  ERROR ibv_create_cq(cqe=256) failed: Connection timed out
[1739892927.078121] [ohm:210995:0]        ib_iface.c:1059 UCX  ERROR ibv_create_cq(cqe=256) failed: Connection timed out
[1739892927.078645] [ohm:210888:0]        ib_iface.c:1059 UCX  ERROR ibv_create_cq(cqe=256) failed: Connection timed out
[1739892927.086346] [ohm:210928:0]        ib_iface.c:1059 UCX  ERROR ibv_create_cq(cqe=256) failed: Connection timed out
[1739892927.092775] [ohm:210875:0]        ib_iface.c:1059 UCX  ERROR ibv_create_cq(cqe=256) failed: Connection timed out
[1739892927.093792] [ohm:210988:0]        ib_iface.c:1059 UCX  ERROR ibv_create_cq(cqe=256) failed: Connection timed out
[1739892927.093880] [ohm:210860:0]        ib_iface.c:1059 UCX  ERROR ibv_create_cq(cqe=256) failed: Connection timed out
[1739892927.097551] [ohm:210892:0]        ib_iface.c:1059 UCX  ERROR ibv_create_cq(cqe=256) failed: Connection timed out
[1739892927.100636] [ohm:210901:0]        ib_iface.c:1059 UCX  ERROR ibv_create_cq(cqe=256) failed: Connection timed out
[1739892927.100771] [ohm:210956:0]        ib_iface.c:1059 UCX  ERROR ibv_create_cq(cqe=256) failed: Connection timed out
[1739892927.107040] [ohm:210872:0]        ib_iface.c:1059 UCX  ERROR ibv_create_cq(cqe=256) failed: Connection timed out
[1739892927.108089] [ohm:210907:0]        ib_iface.c:1059 UCX  ERROR ibv_create_cq(cqe=256) failed: Connection timed out
[1739892927.110136] [ohm:210945:0]        ib_iface.c:1059 UCX  ERROR ibv_create_cq(cqe=256) failed: Connection timed out
[1739892927.110992] [ohm:210876:0]        ib_iface.c:1059 UCX  ERROR ibv_create_cq(cqe=256) failed: Connection timed out
[1739892927.117278] [ohm:210908:0]        ib_iface.c:1059 UCX  ERROR ibv_create_cq(cqe=256) failed: Connection timed out
[1739892927.121277] [ohm:210920:0]        ib_iface.c:1059 UCX  ERROR ibv_create_cq(cqe=256) failed: Connection timed out
[1739892927.122066] [ohm:210868:0]        ib_iface.c:1059 UCX  ERROR ibv_create_cq(cqe=256) failed: Connection timed out
[1739892927.125036] [ohm:210926:0]        ib_iface.c:1059 UCX  ERROR ibv_create_cq(cqe=256) failed: Connection timed out
[1739892927.139170] [ohm:210999:0]        ib_iface.c:1059 UCX  ERROR ibv_create_cq(cqe=256) failed: Connection timed out
[1739892927.150143] [ohm:210940:0]        ib_iface.c:1059 UCX  ERROR ibv_create_cq(cqe=256) failed: Connection timed out
[1739892927.151061] [ohm:210873:0]        ib_iface.c:1059 UCX  ERROR ibv_create_cq(cqe=256) failed: Connection timed out
[1739892927.151276] [ohm:210948:0]        ib_iface.c:1059 UCX  ERROR ibv_create_cq(cqe=256) failed: Connection timed out
[1739892927.155015] [ohm:210951:0]        ib_iface.c:1059 UCX  ERROR ibv_create_cq(cqe=256) failed: Connection timed out
[1739892927.157105] [ohm:210955:0]        ib_iface.c:1059 UCX  ERROR ibv_create_cq(cqe=256) failed: Connection timed out
[1739892927.157680] [ohm:210917:0]        ib_iface.c:1059 UCX  ERROR ibv_create_cq(cqe=256) failed: Connection timed out
[1739892927.159784] [ohm:210871:0]        ib_iface.c:1059 UCX  ERROR ibv_create_cq(cqe=256) failed: Connection timed out
[1739892927.163216] [ohm:210867:0]        ib_iface.c:1059 UCX  ERROR ibv_create_cq(cqe=256) failed: Connection timed out
[1739892927.164026] [ohm:210869:0]        ib_iface.c:1059 UCX  ERROR ibv_create_cq(cqe=256) failed: Connection timed out
[1739892927.164078] [ohm:210990:0]        ib_iface.c:1059 UCX  ERROR ibv_create_cq(cqe=256) failed: Connection timed out
[1739892927.165316] [ohm:210857:0]        ib_iface.c:1059 UCX  ERROR ibv_create_cq(cqe=256) failed: Connection timed out
[1739892927.166672] [ohm:210912:0]        ib_iface.c:1059 UCX  ERROR ibv_create_cq(cqe=256) failed: Connection timed out
[1739892927.175510] [ohm:210874:0]        ib_iface.c:1059 UCX  ERROR ibv_create_cq(cqe=256) failed: Connection timed out
[1739892927.176446] [ohm:210975:0]        ib_iface.c:1059 UCX  ERROR ibv_create_cq(cqe=256) failed: Connection timed out
[1739892927.179277] [ohm:210896:0]        ib_iface.c:1059 UCX  ERROR ibv_create_cq(cqe=256) failed: Connection timed out
[1739892927.181654] [ohm:210960:0]        ib_iface.c:1059 UCX  ERROR ibv_create_cq(cqe=256) failed: Connection timed out
[1739892927.181726] [ohm:210870:0]        ib_iface.c:1059 UCX  ERROR ibv_create_cq(cqe=256) failed: Connection timed out
[1739892927.182019] [ohm:210980:0]        ib_iface.c:1059 UCX  ERROR ibv_create_cq(cqe=256) failed: Connection timed out
[1739892927.182286] [ohm:210862:0]        ib_iface.c:1059 UCX  ERROR ibv_create_cq(cqe=256) failed: Connection timed out
[1739892927.182673] [ohm:210923:0]        ib_iface.c:1059 UCX  ERROR ibv_create_cq(cqe=256) failed: Connection timed out
[1739892927.184869] [ohm:210880:0]        ib_iface.c:1059 UCX  ERROR ibv_create_cq(cqe=256) failed: Connection timed out
[1739892927.191584] [ohm:210903:0]        ib_iface.c:1059 UCX  ERROR ibv_create_cq(cqe=256) failed: Connection timed out
[1739892927.194403] [ohm:210931:0]        ib_iface.c:1059 UCX  ERROR ibv_create_cq(cqe=256) failed: Connection timed out
[1739892927.199686] [ohm:210982:0]        ib_iface.c:1059 UCX  ERROR ibv_create_cq(cqe=256) failed: Connection timed out


           ************************************************************
           *        Program running with 64 parallel MPI-processes    *
           *              working on a common directory               *
           ************************************************************
------------------------------------------------------------------------------
                             ORCA STARTUP CALCULATIONS
                           -- RI-GTO INTEGRALS CHOSEN --
------------------------------------------------------------------------------
------------------------------------------------------------------------------
                   ___                                                        
                  /   \      - P O W E R E D   B Y -                         
                 /     \                                                     
                 |  |  |   _    _      __       _____    __    __             
                 |  |  |  | |  | |    /  \     |  _  \  |  |  /  |          
                  \  \/   | |  | |   /    \    | | | |  |  | /  /          
                 / \  \   | |__| |  /  /\  \   | |_| |  |  |/  /          
                |  |  |   |  __  | /  /__\  \  |    /   |      \           
                |  |  |   | |  | | |   __   |  |    \   |  |\   \          
                \     /   | |  | | |  |  |  |  | |\  \  |  | \   \       
                 \___/    |_|  |_| |__|  |__|  |_| \__\ |__|  \__/        
                                                                              
                      - O R C A' S   B I G   F R I E N D -                    
                                      &                                       
                       - I N T E G R A L  F E E D E R -                       
                                                                              
 v1 FN, 2020, v2 2021, v3 2022-2024                                           
------------------------------------------------------------------------------


----------------------
SHARK INTEGRAL PACKAGE
----------------------

Number of atoms                             ...     30
Number of basis functions                   ...    882
Number of shells                            ...    322
Maximum angular momentum                    ...      3
Integral batch strategy                     ... SHARK/LIBINT Hybrid
RI-J (if used) integral strategy            ... SPLIT-RIJ (Revised 2003 algorithm where possible)
Printlevel                                  ...      1
Contraction scheme used                     ... SEGMENTED contraction
Prescreening option                         ... SCHWARTZ
   Thresh                                   ... 2.500e-11
   Tcut                                     ... 2.500e-12
   Tpresel                                  ... 2.500e-12 
Coulomb Range Separation                    ... NOT USED
Exchange Range Separation                   ... Long Range
   Mu parameter                             ... 3.000e-01
   Scaling (regular/separated)              ... 1.500e-01 8.500e-01
Multipole approximations                    ... NOT USED
Finite Nucleus Model                        ... NOT USED
CABS basis                                  ... NOT available
Auxiliary Coulomb fitting basis             ... AVAILABLE
   # of basis functions in Aux-J            ...   1014
   # of shells in Aux-J                     ...    330
   Maximum angular momentum in Aux-J        ...      4
Auxiliary J/K fitting basis                 ... NOT available
Auxiliary Correlation fitting basis         ... NOT available
Auxiliary 'external' fitting basis          ... NOT available

Checking pre-screening integrals            ... done (  0.0 sec) Dimension = 322
Check shell pair data                       ... done (  0.0 sec)
Shell pair information
Shell pair cut-off parameter TPreSel        ...   2.5e-12
Total number of shell pairs                 ...     52003
Shell pairs after pre-screening             ...     45311
Total number of primitive shell pairs       ...    129718
Primitive shell pairs kept                  ...     84766
          la=0 lb=0:   8768 shell pairs
          la=1 lb=0:  11961 shell pairs
          la=1 lb=1:   4123 shell pairs
          la=2 lb=0:   8139 shell pairs
          la=2 lb=1:   5628 shell pairs
          la=2 lb=2:   1947 shell pairs
          la=3 lb=0:   2093 shell pairs
          la=3 lb=1:   1487 shell pairs
          la=3 lb=2:   1020 shell pairs
          la=3 lb=3:    145 shell pairs

Calculating one electron integrals          ... done (  0.2 sec)
Calculating RI/J V-Matrix + Cholesky decomp.... done (  0.1 sec)
Calculating Nuclear repulsion               ... done (  0.0 sec) ENN=   1461.337168619689 Eh

Diagonalization of the overlap matrix:
Smallest eigenvalue                        ... 3.587e-07
Time for diagonalization                   ...    0.127 sec
Threshold for overlap eigenvalues          ... 1.000e-07
Number of eigenvalues below threshold      ... 0

IMPORTANT:
Smallest eigenvalue of S below the DiffSThresh (1.000e-06) while
Thresh>1e-12 and/or TCut>1e-13! In order to avoid SCF convergence issues,
Thresh will be set to at least 1e-12 and TCut to at least 1e-13.
This can be turned off by adding %SCF DiffSThresh -1 END to the input.

Time for construction of square roots      ...    0.140 sec
Total time needed                          ...    0.279 sec

-------------------
DFT GRID GENERATION
-------------------

General Integration Accuracy     IntAcc      ... 4.388
Radial Grid Type                 RadialGrid  ... OptM3 with GC (2021)
Angular Grid (max. ang.)         AngularGrid ... 4 (Lebedev-302)
Angular grid pruning method      GridPruning ... 4 (adaptive)
Weight generation scheme         WeightScheme... mBecke (2022)
Basis function cutoff            BFCut       ... 1.0000e-11
Integration weight cutoff        WCut        ... 1.0000e-14
Partially contracted basis set               ... off
Rotationally invariant grid construction     ... off
Angular grids for H and He will be reduced by one unit
Diffuse basis detected: some atoms will have their outermost
                        angular grid increased by 1.

Total number of grid points                  ...   151941
Total number of batches                      ...     2390
Average number of points per batch           ...       63
Average number of grid points per atom       ...     5065

--------------------
COSX GRID GENERATION
--------------------

GRIDX 1
-------
General Integration Accuracy     IntAcc      ... 3.816
Radial Grid Type                 RadialGrid  ... OptM3 with GC (2021)
Angular Grid (max. ang.)         AngularGrid ... 1 (Lebedev-50)
Angular grid pruning method      GridPruning ... 4 (adaptive)
Weight generation scheme         WeightScheme... mBecke (2022)
Basis function cutoff            BFCut       ... 1.0000e-11
Integration weight cutoff        WCut        ... 1.0000e-14
Partially contracted basis set               ... on
Rotationally invariant grid construction     ... off
Angular grids for H and He will be reduced by one unit
Diffuse basis detected: some atoms will have their outermost
                        angular grid increased by 1.

Total number of grid points                  ...    19013
Total number of batches                      ...      166
Average number of points per batch           ...      114
Average number of grid points per atom       ...      634
UseSFitting                                  ... on

GRIDX 2
-------
General Integration Accuracy     IntAcc      ... 4.020
Radial Grid Type                 RadialGrid  ... OptM3 with GC (2021)
Angular Grid (max. ang.)         AngularGrid ... 2 (Lebedev-110)
Angular grid pruning method      GridPruning ... 4 (adaptive)
Weight generation scheme         WeightScheme... mBecke (2022)
Basis function cutoff            BFCut       ... 1.0000e-11
Integration weight cutoff        WCut        ... 1.0000e-14
Partially contracted basis set               ... on
Rotationally invariant grid construction     ... off
Angular grids for H and He will be reduced by one unit
Diffuse basis detected: some atoms will have their outermost
                        angular grid increased by 1.

Total number of grid points                  ...    45811
Total number of batches                      ...      374
Average number of points per batch           ...      122
Average number of grid points per atom       ...     1527
UseSFitting                                  ... on

GRIDX 3
-------
General Integration Accuracy     IntAcc      ... 4.338
Radial Grid Type                 RadialGrid  ... OptM3 with GC (2021)
Angular Grid (max. ang.)         AngularGrid ... 3 (Lebedev-194)
Angular grid pruning method      GridPruning ... 4 (adaptive)
Weight generation scheme         WeightScheme... mBecke (2022)
Basis function cutoff            BFCut       ... 1.0000e-11
Integration weight cutoff        WCut        ... 1.0000e-14
Partially contracted basis set               ... on
Rotationally invariant grid construction     ... off
Angular grids for H and He will be reduced by one unit
Diffuse basis detected: some atoms will have their outermost
                        angular grid increased by 1.

Total number of grid points                  ...   100951
Total number of batches                      ...      804
Average number of points per batch           ...      125
Average number of grid points per atom       ...     3365
UseSFitting                                  ... on
Initializing property integral containers    ... done (  0.0 sec)

SHARK setup successfully completed in   4.2 seconds

Maximum memory used throughout the entire STARTUP-calculation: 80.4 MB
[1739892933.325658] [ohm:211213:0]        ib_iface.c:1059 UCX  ERROR ibv_create_cq(cqe=256) failed: Connection timed out
[1739892933.325688] [ohm:211215:0]        ib_iface.c:1059 UCX  ERROR ibv_create_cq(cqe=256) failed: Connection timed out
[1739892933.348257] [ohm:211217:0]        ib_iface.c:1059 UCX  ERROR ibv_create_cq(cqe=256) failed: Connection timed out
[1739892933.349392] [ohm:211212:0]        ib_iface.c:1059 UCX  ERROR ibv_create_cq(cqe=256) failed: Connection timed out
[1739892933.356310] [ohm:211280:0]        ib_iface.c:1059 UCX  ERROR ibv_create_cq(cqe=256) failed: Connection timed out
[1739892933.357860] [ohm:211214:0]        ib_iface.c:1059 UCX  ERROR ibv_create_cq(cqe=256) failed: Connection timed out
[1739892933.360251] [ohm:211216:0]        ib_iface.c:1059 UCX  ERROR ibv_create_cq(cqe=256) failed: Connection timed out
[1739892933.363224] [ohm:211234:0]        ib_iface.c:1059 UCX  ERROR ibv_create_cq(cqe=256) failed: Connection timed out
[1739892933.366236] [ohm:211211:0]        ib_iface.c:1059 UCX  ERROR ibv_create_cq(cqe=256) failed: Connection timed out
[1739892933.376042] [ohm:211219:0]        ib_iface.c:1059 UCX  ERROR ibv_create_cq(cqe=256) failed: Connection timed out
[1739892933.417221] [ohm:211232:0]        ib_iface.c:1059 UCX  ERROR ibv_create_cq(cqe=256) failed: Connection timed out
[1739892933.429190] [ohm:211233:0]        ib_iface.c:1059 UCX  ERROR ibv_create_cq(cqe=256) failed: Connection timed out
[1739892933.430554] [ohm:211218:0]        ib_iface.c:1059 UCX  ERROR ibv_create_cq(cqe=256) failed: Connection timed out
[1739892933.434750] [ohm:211221:0]        ib_iface.c:1059 UCX  ERROR ibv_create_cq(cqe=256) failed: Connection timed out
[1739892933.440287] [ohm:211235:0]        ib_iface.c:1059 UCX  ERROR ibv_create_cq(cqe=256) failed: Connection timed out
[1739892933.445062] [ohm:211245:0]        ib_iface.c:1059 UCX  ERROR ibv_create_cq(cqe=256) failed: Connection timed out
[1739892933.445119] [ohm:211273:0]        ib_iface.c:1059 UCX  ERROR ibv_create_cq(cqe=256) failed: Connection timed out
[1739892933.448014] [ohm:211238:0]        ib_iface.c:1059 UCX  ERROR ibv_create_cq(cqe=256) failed: Connection timed out
[1739892933.451355] [ohm:211220:0]        ib_iface.c:1059 UCX  ERROR ibv_create_cq(cqe=256) failed: Connection timed out
[1739892933.453462] [ohm:211307:0]        ib_iface.c:1059 UCX  ERROR ibv_create_cq(cqe=256) failed: Connection timed out
[1739892933.458646] [ohm:211337:0]        ib_iface.c:1059 UCX  ERROR ibv_create_cq(cqe=256) failed: Connection timed out
[1739892933.460634] [ohm:211242:0]        ib_iface.c:1059 UCX  ERROR ibv_create_cq(cqe=256) failed: Connection timed out
[1739892933.460894] [ohm:211339:0]        ib_iface.c:1059 UCX  ERROR ibv_create_cq(cqe=256) failed: Connection timed out
[1739892933.516068] [ohm:211284:0]        ib_iface.c:1059 UCX  ERROR ibv_create_cq(cqe=256) failed: Connection timed out
[1739892933.519693] [ohm:211305:0]        ib_iface.c:1059 UCX  ERROR ibv_create_cq(cqe=256) failed: Connection timed out
[1739892933.520495] [ohm:211264:0]        ib_iface.c:1059 UCX  ERROR ibv_create_cq(cqe=256) failed: Connection timed out
[1739892933.524300] [ohm:211250:0]        ib_iface.c:1059 UCX  ERROR ibv_create_cq(cqe=256) failed: Connection timed out
[1739892933.524717] [ohm:211267:0]        ib_iface.c:1059 UCX  ERROR ibv_create_cq(cqe=256) failed: Connection timed out
[1739892933.525199] [ohm:211278:0]        ib_iface.c:1059 UCX  ERROR ibv_create_cq(cqe=256) failed: Connection timed out
[1739892933.526153] [ohm:211341:0]        ib_iface.c:1059 UCX  ERROR ibv_create_cq(cqe=256) failed: Connection timed out
[1739892933.527621] [ohm:211301:0]        ib_iface.c:1059 UCX  ERROR ibv_create_cq(cqe=256) failed: Connection timed out
[1739892933.535966] [ohm:211266:0]        ib_iface.c:1059 UCX  ERROR ibv_create_cq(cqe=256) failed: Connection timed out
[1739892933.543426] [ohm:211263:0]        ib_iface.c:1059 UCX  ERROR ibv_create_cq(cqe=256) failed: Connection timed out
[1739892933.545462] [ohm:211262:0]        ib_iface.c:1059 UCX  ERROR ibv_create_cq(cqe=256) failed: Connection timed out
[1739892933.555090] [ohm:211236:0]        ib_iface.c:1059 UCX  ERROR ibv_create_cq(cqe=256) failed: Connection timed out
[1739892933.560351] [ohm:211237:0]        ib_iface.c:1059 UCX  ERROR ibv_create_cq(cqe=256) failed: Connection timed out
[1739892933.571438] [ohm:211241:0]        ib_iface.c:1059 UCX  ERROR ibv_create_cq(cqe=256) failed: Connection timed out
[1739892933.572645] [ohm:211243:0]        ib_iface.c:1059 UCX  ERROR ibv_create_cq(cqe=256) failed: Connection timed out
[1739892933.573440] [ohm:211248:0]        ib_iface.c:1059 UCX  ERROR ibv_create_cq(cqe=256) failed: Connection timed out
[1739892933.573694] [ohm:211240:0]        ib_iface.c:1059 UCX  ERROR ibv_create_cq(cqe=256) failed: Connection timed out
[1739892933.576948] [ohm:211268:0]        ib_iface.c:1059 UCX  ERROR ibv_create_cq(cqe=256) failed: Connection timed out
[1739892933.585022] [ohm:211271:0]        ib_iface.c:1059 UCX  ERROR ibv_create_cq(cqe=256) failed: Connection timed out
[1739892933.586818] [ohm:211302:0]        ib_iface.c:1059 UCX  ERROR ibv_create_cq(cqe=256) failed: Connection timed out
[1739892933.601779] [ohm:211265:0]        ib_iface.c:1059 UCX  ERROR ibv_create_cq(cqe=256) failed: Connection timed out
[1739892933.603077] [ohm:211359:0]        ib_iface.c:1059 UCX  ERROR ibv_create_cq(cqe=256) failed: Connection timed out
[1739892933.604522] [ohm:211313:0]        ib_iface.c:1059 UCX  ERROR ibv_create_cq(cqe=256) failed: Connection timed out
[1739892933.608123] [ohm:211344:0]        ib_iface.c:1059 UCX  ERROR ibv_create_cq(cqe=256) failed: Connection timed out
[1739892933.609989] [ohm:211239:0]        ib_iface.c:1059 UCX  ERROR ibv_create_cq(cqe=256) failed: Connection timed out
[1739892933.610283] [ohm:211315:0]        ib_iface.c:1059 UCX  ERROR ibv_create_cq(cqe=256) failed: Connection timed out
[1739892933.613341] [ohm:211258:0]        ib_iface.c:1059 UCX  ERROR ibv_create_cq(cqe=256) failed: Connection timed out
[1739892933.617862] [ohm:211289:0]        ib_iface.c:1059 UCX  ERROR ibv_create_cq(cqe=256) failed: Connection timed out
[1739892933.621012] [ohm:211254:0]        ib_iface.c:1059 UCX  ERROR ibv_create_cq(cqe=256) failed: Connection timed out
[1739892933.624522] [ohm:211252:0]        ib_iface.c:1059 UCX  ERROR ibv_create_cq(cqe=256) failed: Connection timed out
[1739892933.625480] [ohm:211287:0]        ib_iface.c:1059 UCX  ERROR ibv_create_cq(cqe=256) failed: Connection timed out
[1739892933.625573] [ohm:211321:0]        ib_iface.c:1059 UCX  ERROR ibv_create_cq(cqe=256) failed: Connection timed out
[1739892933.626254] [ohm:211351:0]        ib_iface.c:1059 UCX  ERROR ibv_create_cq(cqe=256) failed: Connection timed out
[1739892933.627386] [ohm:211294:0]        ib_iface.c:1059 UCX  ERROR ibv_create_cq(cqe=256) failed: Connection timed out
[1739892933.627813] [ohm:211347:0]        ib_iface.c:1059 UCX  ERROR ibv_create_cq(cqe=256) failed: Connection timed out
[1739892933.630447] [ohm:211333:0]        ib_iface.c:1059 UCX  ERROR ibv_create_cq(cqe=256) failed: Connection timed out
[1739892933.630781] [ohm:211326:0]        ib_iface.c:1059 UCX  ERROR ibv_create_cq(cqe=256) failed: Connection timed out
[1739892933.631095] [ohm:211322:0]        ib_iface.c:1059 UCX  ERROR ibv_create_cq(cqe=256) failed: Connection timed out
[1739892933.631301] [ohm:211329:0]        ib_iface.c:1059 UCX  ERROR ibv_create_cq(cqe=256) failed: Connection timed out
[1739892933.633263] [ohm:211356:0]        ib_iface.c:1059 UCX  ERROR ibv_create_cq(cqe=256) failed: Connection timed out
[1739892933.633845] [ohm:211296:0]        ib_iface.c:1059 UCX  ERROR ibv_create_cq(cqe=256) failed: Connection timed out


           ************************************************************
           *        Program running with 64 parallel MPI-processes    *
           *              working on a common directory               *
           ************************************************************
-------------------------------------------------------------------------------
                                 ORCA GUESS
                   Start orbitals & Density for SCF / CASSCF
-------------------------------------------------------------------------------

------------
SCF SETTINGS
------------
Hamiltonian:
 Density Functional     Method          .... DFT(GTOs)
  Functional kind                       .... Exchange-Correlation
  Functional name                       .... wB97M-V exchange-correlation functional
  Functional family                     .... Hybrid MGGA
  Functional refs                              
    [ 0] N. Mardirossian and M. Head-Gordon.,  J. Chem. Phys. 144, 214110 (2016), doi: 10.1063/1.4952647
  Fraction of HF Exchange (short range) .... 0.1500
  Fraction of HF Exchange (long range)  .... 1.0000
  Range separation parameter mu         .... 0.3000
  Functional external parameters        .... 17
    Parameter  0 _cx00      =  8.500000e-01 : u^00 coefficient for exchange
    Parameter  1 _cx01      =  1.007000e+00 : u^01 coefficient for exchange
    Parameter  2 _cx10      =  2.590000e-01 : u^10 coefficient for exchange
    Parameter  3 _css00     =  4.430000e-01 : u^00 coefficient for same-spin correlation
    Parameter  4 _css04     = -1.437000e+00 : u^04 coefficient for same-spin correlation
    Parameter  5 _css10     = -4.535000e+00 : u^10 coefficient for same-spin correlation
    Parameter  6 _css20     = -3.390000e+00 : u^20 coefficient for same-spin correlation
    Parameter  7 _css43     =  4.278000e+00 : u^43 coefficient for same-spin correlation
    Parameter  8 _cos00     =  1.000000e+00 : u^00 coefficient for opposite-spin correlation
    Parameter  9 _cos10     =  1.358000e+00 : u^10 coefficient for opposite-spin correlation
    Parameter 10 _cos20     =  2.924000e+00 : u^20 coefficient for opposite-spin correlation
    Parameter 11 _cos21     = -8.812000e+00 : u^21 coefficient for opposite-spin correlation
    Parameter 12 _cos60     = -1.390000e+00 : u^60 coefficient for opposite-spin correlation
    Parameter 13 _cos61     =  9.142000e+00 : u^61 coefficient for opposite-spin correlation
    Parameter 14 _alpha     =  1.000000e+00 : fraction of HF exchange
    Parameter 15 _beta      = -8.500000e-01 : fraction of short-range exchange
    Parameter 16 _omega     =  3.000000e-01 : range-separation constant
 Long-range corrected/Screened/Range-Separated Hybrid DFT is turned on
   Amount of maximum screened exact exchange              ....  0.850000
   Range separation parameter mu (erf(mu*r12)/r12)        ....  0.300000
 RI-approximation to the Coulomb term is turned on
   Number of AuxJ basis functions       .... 1014
   RIJ-COSX (HFX calculated with COS-X)).... on


General Settings:
 Integral files         IntName         .... orca
 Hartree-Fock type      HFTyp           .... UHF
 Total Charge           Charge          ....    0
 Multiplicity           Mult            ....    3
 Number of Electrons    NEL             ....  132
 Basis Dimension        Dim             ....  882
 Nuclear Repulsion      ENuc            ....   1461.3371686197 Eh

Convergence Acceleration:
 AO-DIIS                CNVDIIS         .... on
   Start iteration      DIISMaxIt       ....    12
   Startup error        DIISStart       ....  0.200000
   # of expansion vecs  DIISMaxEq       ....     5
   Bias factor          DIISBfac        ....   1.050
   Max. coefficient     DIISMaxC        ....  10.000
 MO-DIIS                CNVKDIIS        .... off
 Trust-Rad. Augm. Hess. CNVTRAH         .... auto
   Auto Start mean grad. ratio tolernc. ....  1.125000
   Auto Start start iteration           ....    50
   Auto Start num. interpolation iter.  ....    10
   Max. Number of Micro iterations      ....    24
   Max. Number of Macro iterations      .... Maxiter - #DIIS iter
   Number of Davidson start vectors     ....     2
   Converg. threshold    (grad. norm)   ....   1.000e-05
   Grad. Scal. Fac. for Micro threshold ....   0.100
   Minimum threshold for Micro iter.    ....   1.000e-02
   NR start threshold (gradient norm)   ....   1.000e-04
   Initial trust radius                 ....   0.400
   Minimum AH scaling param. (alpha)    ....   1.000
   Maximum AH scaling param. (alpha)    .... 1000.000
   Quad. conv. algorithm                .... NR
   White noise on init. David. guess    .... on
   Maximum white noise                  ....   0.010
   Pseudo random numbers                .... off
   Inactive MOs                         .... canonical
   Orbital update algorithm             .... Taylor
   Preconditioner                       .... Diag
   Full preconditioner red. dimension   ....   250
 SOSCF                  CNVSOSCF        .... on
   Start iteration      SOSCFMaxIt      ....   150
   Startup grad/error   SOSCFStart      ....  0.003300
   Hessian update       SOSCFHessUp     .... L-BFGS
 Level Shifting         CNVShift        .... on
   Level shift para.    LevelShift      ....    0.2500
   Turn off err/grad.   ShiftErr        ....    0.0010
 Zerner damping         CNVZerner       .... off
 Static damping         CNVDamp         .... on
   Fraction old density DampFac         ....    0.7000
   Max. Damping (<1)    DampMax         ....    0.9800
   Min. Damping (>=0)   DampMin         ....    0.0000
   Turn off err/grad.   DampErr         ....    0.1000

SCF Procedure:
 Maximum # iterations   MaxIter         ....   125
 SCF integral mode      SCFMode         .... Direct
   Integral package                     .... SHARK and LIBINT hybrid scheme
 Reset frequency        DirectResetFreq ....    20
 Integral Threshold     Thresh          ....  1.000e-12 Eh
 Primitive CutOff       TCut            ....  1.000e-13 Eh

Convergence Tolerance:
 Convergence Check Mode ConvCheckMode   .... Total+1el-Energy
 Convergence forced     ConvForced      .... 1
 Energy Change          TolE            ....  1.000e-08 Eh
 1-El. energy change                    ....  1.000e-05 Eh
 Orbital Gradient       TolG            ....  1.000e-05
 Orbital Rotation angle TolX            ....  1.000e-05
 DIIS Error             TolErr          ....  5.000e-07

------------------------------
INITIAL GUESS: MODEL POTENTIAL
------------------------------
Loading Hartree-Fock densities                     ... done
Calculating cut-offs                               ... done
Initializing the effective Hamiltonian             ... done
Setting up the integral package (SHARK)            ... done
Starting the Coulomb interaction                   ... done (   0.1 sec)
Making the grid                                    ... done (   0.3 sec)
Mapping shells                                     ... done
Starting the XC term evaluation                    ... done (   0.1 sec)
  promolecular density results
     # of electrons  =    131.999629117
     EX              =   -113.545684768
     EC              =     -4.493214981
     EX+EC           =   -118.038899749
Transforming the Hamiltonian                       ... done (   0.1 sec)
Diagonalizing the Hamiltonian                      ... done (   0.1 sec)
Back transforming the eigenvectors                 ... done (   0.1 sec)
Now organizing SCF variables                       ... done
                      ------------------
                      INITIAL GUESS DONE (   1.1 sec)
                      ------------------
             **** ENERGY FILE WAS UPDATED (orca.en.tmp) ****
Finished Guess after   3.6 sec
Maximum memory used throughout the entire GUESS-calculation: 72.8 MB
[1739892937.417993] [ohm:211566:0]        ib_iface.c:1059 UCX  ERROR ibv_create_cq(cqe=256) failed: Connection timed out
[1739892937.426562] [ohm:211562:0]        ib_iface.c:1059 UCX  ERROR ibv_create_cq(cqe=256) failed: Connection timed out
[1739892937.435247] [ohm:211563:0]        ib_iface.c:1059 UCX  ERROR ibv_create_cq(cqe=256) failed: Connection timed out
[1739892937.478938] [ohm:211569:0]        ib_iface.c:1059 UCX  ERROR ibv_create_cq(cqe=256) failed: Connection timed out
[1739892937.506115] [ohm:211564:0]        ib_iface.c:1059 UCX  ERROR ibv_create_cq(cqe=256) failed: Connection timed out
[1739892937.510763] [ohm:211582:0]        ib_iface.c:1059 UCX  ERROR ibv_create_cq(cqe=256) failed: Connection timed out
[1739892937.512946] [ohm:211572:0]        ib_iface.c:1059 UCX  ERROR ibv_create_cq(cqe=256) failed: Connection timed out
[1739892937.515621] [ohm:211583:0]        ib_iface.c:1059 UCX  ERROR ibv_create_cq(cqe=256) failed: Connection timed out
[1739892937.530058] [ohm:211571:0]        ib_iface.c:1059 UCX  ERROR ibv_create_cq(cqe=256) failed: Connection timed out
[1739892937.534275] [ohm:211565:0]        ib_iface.c:1059 UCX  ERROR ibv_create_cq(cqe=256) failed: Connection timed out
[1739892937.538091] [ohm:211579:0]        ib_iface.c:1059 UCX  ERROR ibv_create_cq(cqe=256) failed: Connection timed out
[1739892937.542978] [ohm:211591:0]        ib_iface.c:1059 UCX  ERROR ibv_create_cq(cqe=256) failed: Connection timed out
[1739892937.561747] [ohm:211587:0]        ib_iface.c:1059 UCX  ERROR ibv_create_cq(cqe=256) failed: Connection timed out
[1739892937.562679] [ohm:211573:0]        ib_iface.c:1059 UCX  ERROR ibv_create_cq(cqe=256) failed: Connection timed out
[1739892937.597509] [ohm:211598:0]        ib_iface.c:1059 UCX  ERROR ibv_create_cq(cqe=256) failed: Connection timed out
[1739892937.605757] [ohm:211586:0]        ib_iface.c:1059 UCX  ERROR ibv_create_cq(cqe=256) failed: Connection timed out
[1739892937.606415] [ohm:211595:0]        ib_iface.c:1059 UCX  ERROR ibv_create_cq(cqe=256) failed: Connection timed out
[1739892937.628676] [ohm:211588:0]        ib_iface.c:1059 UCX  ERROR ibv_create_cq(cqe=256) failed: Connection timed out
[1739892937.643808] [ohm:211589:0]        ib_iface.c:1059 UCX  ERROR ibv_create_cq(cqe=256) failed: Connection timed out
[1739892937.659622] [ohm:211567:0]        ib_iface.c:1059 UCX  ERROR ibv_create_cq(cqe=256) failed: Connection timed out
[1739892937.662757] [ohm:211610:0]        ib_iface.c:1059 UCX  ERROR ibv_create_cq(cqe=256) failed: Connection timed out
[1739892937.666929] [ohm:211590:0]        ib_iface.c:1059 UCX  ERROR ibv_create_cq(cqe=256) failed: Connection timed out
[1739892937.667680] [ohm:211568:0]        ib_iface.c:1059 UCX  ERROR ibv_create_cq(cqe=256) failed: Connection timed out
[1739892937.668732] [ohm:211703:0]        ib_iface.c:1059 UCX  ERROR ibv_create_cq(cqe=256) failed: Connection timed out
[1739892937.669771] [ohm:211616:0]        ib_iface.c:1059 UCX  ERROR ibv_create_cq(cqe=256) failed: Connection timed out
[1739892937.677070] [ohm:211651:0]        ib_iface.c:1059 UCX  ERROR ibv_create_cq(cqe=256) failed: Connection timed out
[1739892937.678242] [ohm:211689:0]        ib_iface.c:1059 UCX  ERROR ibv_create_cq(cqe=256) failed: Connection timed out
[1739892937.678574] [ohm:211570:0]        ib_iface.c:1059 UCX  ERROR ibv_create_cq(cqe=256) failed: Connection timed out
[1739892937.679076] [ohm:211698:0]        ib_iface.c:1059 UCX  ERROR ibv_create_cq(cqe=256) failed: Connection timed out
[1739892937.686112] [ohm:211655:0]        ib_iface.c:1059 UCX  ERROR ibv_create_cq(cqe=256) failed: Connection timed out
[1739892937.691970] [ohm:211628:0]        ib_iface.c:1059 UCX  ERROR ibv_create_cq(cqe=256) failed: Connection timed out
[1739892937.692400] [ohm:211682:0]        ib_iface.c:1059 UCX  ERROR ibv_create_cq(cqe=256) failed: Connection timed out
[1739892937.696785] [ohm:211584:0]        ib_iface.c:1059 UCX  ERROR ibv_create_cq(cqe=256) failed: Connection timed out
[1739892937.699293] [ohm:211602:0]        ib_iface.c:1059 UCX  ERROR ibv_create_cq(cqe=256) failed: Connection timed out
[1739892937.699427] [ohm:211593:0]        ib_iface.c:1059 UCX  ERROR ibv_create_cq(cqe=256) failed: Connection timed out
[1739892937.703463] [ohm:211619:0]        ib_iface.c:1059 UCX  ERROR ibv_create_cq(cqe=256) failed: Connection timed out
[1739892937.704492] [ohm:211631:0]        ib_iface.c:1059 UCX  ERROR ibv_create_cq(cqe=256) failed: Connection timed out
[1739892937.707856] [ohm:211621:0]        ib_iface.c:1059 UCX  ERROR ibv_create_cq(cqe=256) failed: Connection timed out
[1739892937.732022] [ohm:211620:0]        ib_iface.c:1059 UCX  ERROR ibv_create_cq(cqe=256) failed: Connection timed out
[1739892937.734092] [ohm:211664:0]        ib_iface.c:1059 UCX  ERROR ibv_create_cq(cqe=256) failed: Connection timed out
[1739892937.742061] [ohm:211608:0]        ib_iface.c:1059 UCX  ERROR ibv_create_cq(cqe=256) failed: Connection timed out
[1739892937.746691] [ohm:211683:0]        ib_iface.c:1059 UCX  ERROR ibv_create_cq(cqe=256) failed: Connection timed out
[1739892937.749346] [ohm:211641:0]        ib_iface.c:1059 UCX  ERROR ibv_create_cq(cqe=256) failed: Connection timed out
[1739892937.750218] [ohm:211596:0]        ib_iface.c:1059 UCX  ERROR ibv_create_cq(cqe=256) failed: Connection timed out
[1739892937.752543] [ohm:211613:0]        ib_iface.c:1059 UCX  ERROR ibv_create_cq(cqe=256) failed: Connection timed out
[1739892937.753860] [ohm:211592:0]        ib_iface.c:1059 UCX  ERROR ibv_create_cq(cqe=256) failed: Connection timed out
[1739892937.754468] [ohm:211622:0]        ib_iface.c:1059 UCX  ERROR ibv_create_cq(cqe=256) failed: Connection timed out
[1739892937.760035] [ohm:211709:0]        ib_iface.c:1059 UCX  ERROR ibv_create_cq(cqe=256) failed: Connection timed out
[1739892937.765332] [ohm:211677:0]        ib_iface.c:1059 UCX  ERROR ibv_create_cq(cqe=256) failed: Connection timed out
[1739892937.766378] [ohm:211670:0]        ib_iface.c:1059 UCX  ERROR ibv_create_cq(cqe=256) failed: Connection timed out
[1739892937.767463] [ohm:211617:0]        ib_iface.c:1059 UCX  ERROR ibv_create_cq(cqe=256) failed: Connection timed out
[1739892937.768588] [ohm:211639:0]        ib_iface.c:1059 UCX  ERROR ibv_create_cq(cqe=256) failed: Connection timed out
[1739892937.779205] [ohm:211644:0]        ib_iface.c:1059 UCX  ERROR ibv_create_cq(cqe=256) failed: Connection timed out
[1739892937.782813] [ohm:211667:0]        ib_iface.c:1059 UCX  ERROR ibv_create_cq(cqe=256) failed: Connection timed out
[1739892937.784748] [ohm:211659:0]        ib_iface.c:1059 UCX  ERROR ibv_create_cq(cqe=256) failed: Connection timed out
[1739892937.785163] [ohm:211699:0]        ib_iface.c:1059 UCX  ERROR ibv_create_cq(cqe=256) failed: Connection timed out
[1739892937.785413] [ohm:211674:0]        ib_iface.c:1059 UCX  ERROR ibv_create_cq(cqe=256) failed: Connection timed out
[1739892937.786185] [ohm:211648:0]        ib_iface.c:1059 UCX  ERROR ibv_create_cq(cqe=256) failed: Connection timed out
[1739892937.789068] [ohm:211687:0]        ib_iface.c:1059 UCX  ERROR ibv_create_cq(cqe=256) failed: Connection timed out
[1739892937.789669] [ohm:211707:0]        ib_iface.c:1059 UCX  ERROR ibv_create_cq(cqe=256) failed: Connection timed out
[1739892937.791780] [ohm:211662:0]        ib_iface.c:1059 UCX  ERROR ibv_create_cq(cqe=256) failed: Connection timed out
[1739892937.792615] [ohm:211624:0]        ib_iface.c:1059 UCX  ERROR ibv_create_cq(cqe=256) failed: Connection timed out
[1739892937.792980] [ohm:211694:0]        ib_iface.c:1059 UCX  ERROR ibv_create_cq(cqe=256) failed: Connection timed out
[1739892937.793232] [ohm:211635:0]        ib_iface.c:1059 UCX  ERROR ibv_create_cq(cqe=256) failed: Connection timed out


           ************************************************************
           *        Program running with 64 parallel MPI-processes    *
           *              working on a common directory               *
           ************************************************************

-------------------------------------------------------------------------------------------
                                      ORCA LEAN-SCF
                              memory conserving SCF solver
-------------------------------------------------------------------------------------------

----------------------------------------D-I-I-S--------------------------------------------
Iteration    Energy (Eh)           Delta-E    RMSDP     MaxDP     DIISErr   Damp  Time(sec)
-------------------------------------------------------------------------------------------
               ***  Starting incremental Fock matrix formation  ***
    1    -908.1209892837646294     0.00e+00  1.91e-03  3.54e-01  1.46e-01  0.700   7.7
    2    -908.3911425214969313    -2.70e-01  1.50e-03  2.59e-01  6.94e-02  0.700   6.6
                               ***Turning on AO-DIIS***
    3    -908.5101322105701911    -1.19e-01  1.08e-03  1.74e-01  2.93e-02  0.700   5.9
    4    -908.5835466215821725    -7.34e-02  2.47e-03  3.15e-01  1.82e-02  0.000   5.8
    5    -908.7490678648532594    -1.66e-01  3.72e-04  8.48e-02  4.49e-03  0.000   5.9
                              *** Initializing SOSCF ***
---------------------------------------S-O-S-C-F--------------------------------------
Iteration    Energy (Eh)           Delta-E    RMSDP     MaxDP     MaxGrad    Time(sec)
--------------------------------------------------------------------------------------
    6    -908.7506663443164143    -1.60e-03  1.47e-04  3.57e-02  2.94e-03     6.6
               *** Restarting incremental Fock matrix formation ***
    7    -908.7514808813857599    -8.15e-04  2.19e-04  2.94e-02  7.07e-03     7.4
    8    -908.7520631982288251    -5.82e-04  2.70e-04  6.39e-02  4.09e-03     6.6
    9    -908.7522900632807250    -2.27e-04  1.08e-04  8.35e-03  1.03e-03     6.7
   10    -908.7524007661691030    -1.11e-04  4.55e-05  1.25e-02  4.90e-04     6.5
   11    -908.7524170583096748    -1.63e-05  1.04e-05  2.14e-03  1.27e-04     6.3
   12    -908.7524194077413995    -2.35e-06  6.09e-06  8.69e-04  1.61e-04     6.0
   13    -908.7524205738163801    -1.17e-06  6.76e-06  1.36e-03  5.60e-05     6.0
   14    -908.7524208143286160    -2.41e-07  1.97e-06  4.75e-04  3.08e-05     6.0
   15    -908.7524208237555285    -9.43e-09  1.64e-06  2.65e-04  1.45e-05     5.8
                 **** Energy Check signals convergence ****

               *****************************************************
               *                     SUCCESS                       *
               *           SCF CONVERGED AFTER  15 CYCLES          *
               *****************************************************

Recomputing exchange energy using gridx3       ... done (    8.029 sec)
Old exchange energy                            :    -35.042333143 Eh
New exchange energy                            :    -35.042320961 Eh
Exchange energy change after final integration :      0.000012182 Eh
Total energy after final integration           :   -908.752408642 Eh
             **** ENERGY FILE WAS UPDATED (orca.en.tmp) ****

----------------
TOTAL SCF ENERGY
----------------

Total Energy       :       -908.75240864158945 Eh          -24728.41021 eV

Components:
Nuclear Repulsion  :       1461.33716861968878 Eh           39765.00597 eV
Electronic Energy  :      -2370.08958944344431 Eh          -64493.41651 eV
One Electron Energy:      -4140.16301428889437 Eh         -112659.56312 eV
Two Electron Energy:       1770.07342484545006 Eh           48166.14661 eV

Virial components:
Potential Energy   :      -1814.54180570791618 Eh          -49376.19277 eV
Kinetic Energy     :        905.78939706632673 Eh           24647.78256 eV
Virial Ratio       :          2.00327119260267

DFT components:
N(Alpha)           :       66.999870160575 electrons
N(Beta)            :       64.999883258496 electrons
N(Total)           :      131.999753419071 electrons
E(XC)              :      -86.271599788250 Eh       

---------------
SCF CONVERGENCE
---------------

  Last Energy change         ...    9.4269e-09  Tolerance :   1.0000e-08
  Last MAX-Density change    ...    2.6527e-04  Tolerance :   1.0000e-07
  Last RMS-Density change    ...    1.6386e-06  Tolerance :   5.0000e-09
  Last DIIS Error            ...    2.9439e-03  Tolerance :   5.0000e-07
  Last Orbital Gradient      ...    1.4529e-05  Tolerance :   1.0000e-05
  Last Orbital Rotation      ...    4.2452e-05  Tolerance :   1.0000e-05


----------------------
UHF SPIN CONTAMINATION
----------------------

Warning: in a DFT calculation there is little theoretical justification to 
         calculate <S**2> as in Hartree-Fock theory. We will do it anyways
         but you should keep in mind that the values have only limited relevance

Expectation value of <S**2>     :     2.013951
Ideal value S*(S+1) for S=1.0   :     2.000000
Deviation                       :     0.013951

----------------
ORBITAL ENERGIES
----------------
                 SPIN UP ORBITALS
  NO   OCC          E(Eh)            E(eV) 
   0   1.0000     -19.331144      -526.0272 
   1   1.0000     -19.329360      -525.9786 
   2   1.0000     -19.318706      -525.6887 
   3   1.0000     -19.314509      -525.5745 
   4   1.0000     -14.564747      -396.3269 
   5   1.0000     -14.558670      -396.1616 
   6   1.0000     -14.558187      -396.1484 
   7   1.0000     -14.557550      -396.1311 
   8   1.0000     -10.503052      -285.8026 
   9   1.0000     -10.500223      -285.7256 
  10   1.0000     -10.477751      -285.1141 
  11   1.0000     -10.476471      -285.0793 
  12   1.0000     -10.449083      -284.3340 
  13   1.0000     -10.444487      -284.2089 
  14   1.0000     -10.421566      -283.5852 
  15   1.0000     -10.409470      -283.2561 
  16   1.0000     -10.371384      -282.2197 
  17   1.0000     -10.371191      -282.2145 
  18   1.0000      -1.220508       -33.2117 
  19   1.0000      -1.214854       -33.0579 
  20   1.0000      -1.196107       -32.5477 
  21   1.0000      -1.193117       -32.4664 
  22   1.0000      -1.116041       -30.3690 
  23   1.0000      -1.095261       -29.8036 
  24   1.0000      -1.064297       -28.9610 
  25   1.0000      -1.053937       -28.6791 
  26   1.0000      -0.978764       -26.6335 
  27   1.0000      -0.946794       -25.7636 
  28   1.0000      -0.884086       -24.0572 
  29   1.0000      -0.835444       -22.7336 
  30   1.0000      -0.827499       -22.5174 
  31   1.0000      -0.802135       -21.8272 
  32   1.0000      -0.785191       -21.3661 
  33   1.0000      -0.775746       -21.1091 
  34   1.0000      -0.697902       -18.9909 
  35   1.0000      -0.692974       -18.8568 
  36   1.0000      -0.687196       -18.6995 
  37   1.0000      -0.660205       -17.9651 
  38   1.0000      -0.652981       -17.7685 
  39   1.0000      -0.643690       -17.5157 
  40   1.0000      -0.614668       -16.7260 
  41   1.0000      -0.602710       -16.4006 
  42   1.0000      -0.588001       -16.0003 
  43   1.0000      -0.583002       -15.8643 
  44   1.0000      -0.580622       -15.7995 
  45   1.0000      -0.572391       -15.5755 
  46   1.0000      -0.565505       -15.3882 
  47   1.0000      -0.559198       -15.2165 
  48   1.0000      -0.556135       -15.1332 
  49   1.0000      -0.549871       -14.9627 
  50   1.0000      -0.546169       -14.8620 
  51   1.0000      -0.540261       -14.7013 
  52   1.0000      -0.532542       -14.4912 
  53   1.0000      -0.524598       -14.2750 
  54   1.0000      -0.511110       -13.9080 
  55   1.0000      -0.505797       -13.7634 
  56   1.0000      -0.486729       -13.2446 
  57   1.0000      -0.420095       -11.4314 
  58   1.0000      -0.415085       -11.2950 
  59   1.0000      -0.408518       -11.1163 
  60   1.0000      -0.406110       -11.0508 
  61   1.0000      -0.393037       -10.6951 
  62   1.0000      -0.391356       -10.6494 
  63   1.0000      -0.386524       -10.5178 
  64   1.0000      -0.384149       -10.4532 
  65   1.0000      -0.348927        -9.4948 
  66   1.0000      -0.308077        -8.3832 
  67   0.0000       0.006481         0.1764 
  68   0.0000       0.028901         0.7864 
  69   0.0000       0.029909         0.8139 
  70   0.0000       0.039669         1.0795 
  71   0.0000       0.054810         1.4915 
  72   0.0000       0.057227         1.5572 
  73   0.0000       0.059281         1.6131 
  74   0.0000       0.062455         1.6995 
  75   0.0000       0.068622         1.8673 
  76   0.0000       0.071811         1.9541 
  77   0.0000       0.087539         2.3821 

                 SPIN DOWN ORBITALS
  NO   OCC          E(Eh)            E(eV) 
   0   1.0000     -19.327081      -525.9166 
   1   1.0000     -19.324815      -525.8549 
   2   1.0000     -19.318529      -525.6839 
   3   1.0000     -19.314326      -525.5695 
   4   1.0000     -14.564306      -396.3149 
   5   1.0000     -14.558289      -396.1512 
   6   1.0000     -14.557816      -396.1383 
   7   1.0000     -14.557225      -396.1222 
   8   1.0000     -10.503072      -285.8031 
   9   1.0000     -10.500232      -285.7258 
  10   1.0000     -10.478604      -285.1373 
  11   1.0000     -10.477527      -285.1080 
  12   1.0000     -10.448444      -284.3166 
  13   1.0000     -10.444335      -284.2048 
  14   1.0000     -10.409713      -283.2627 
  15   1.0000     -10.397578      -282.9325 
  16   1.0000     -10.371973      -282.2357 
  17   1.0000     -10.371694      -282.2281 
  18   1.0000      -1.218988       -33.1704 
  19   1.0000      -1.213242       -33.0140 
  20   1.0000      -1.191139       -32.4125 
  21   1.0000      -1.187833       -32.3226 
  22   1.0000      -1.113615       -30.3030 
  23   1.0000      -1.093215       -29.7479 
  24   1.0000      -1.062593       -28.9146 
  25   1.0000      -1.052504       -28.6401 
  26   1.0000      -0.963656       -26.2224 
  27   1.0000      -0.930319       -25.3153 
  28   1.0000      -0.879536       -23.9334 
  29   1.0000      -0.830818       -22.6077 
  30   1.0000      -0.818686       -22.2776 
  31   1.0000      -0.796315       -21.6688 
  32   1.0000      -0.783671       -21.3248 
  33   1.0000      -0.774141       -21.0654 
  34   1.0000      -0.692165       -18.8348 
  35   1.0000      -0.685217       -18.6457 
  36   1.0000      -0.680631       -18.5209 
  37   1.0000      -0.652562       -17.7571 
  38   1.0000      -0.645406       -17.5624 
  39   1.0000      -0.637464       -17.3463 
  40   1.0000      -0.612631       -16.6705 
  41   1.0000      -0.597882       -16.2692 
  42   1.0000      -0.582220       -15.8430 
  43   1.0000      -0.574294       -15.6273 
  44   1.0000      -0.571136       -15.5414 
  45   1.0000      -0.564730       -15.3671 
  46   1.0000      -0.561199       -15.2710 
  47   1.0000      -0.553507       -15.0617 
  48   1.0000      -0.552417       -15.0320 
  49   1.0000      -0.541644       -14.7389 
  50   1.0000      -0.539165       -14.6714 
  51   1.0000      -0.531140       -14.4531 
  52   1.0000      -0.524866       -14.2823 
  53   1.0000      -0.514717       -14.0062 
  54   1.0000      -0.502081       -13.6623 
  55   1.0000      -0.498456       -13.5637 
  56   1.0000      -0.480887       -13.0856 
  57   1.0000      -0.415842       -11.3156 
  58   1.0000      -0.411986       -11.2107 
  59   1.0000      -0.401681       -10.9303 
  60   1.0000      -0.396018       -10.7762 
  61   1.0000      -0.386117       -10.5068 
  62   1.0000      -0.382657       -10.4126 
  63   1.0000      -0.379271       -10.3205 
  64   1.0000      -0.370436       -10.0801 
  65   0.0000      -0.072780        -1.9804 
  66   0.0000      -0.022296        -0.6067 
  67   0.0000       0.006248         0.1700 
  68   0.0000       0.029058         0.7907 
  69   0.0000       0.029685         0.8078 
  70   0.0000       0.039716         1.0807 
  71   0.0000       0.057294         1.5590 
  72   0.0000       0.058687         1.5970 
  73   0.0000       0.060023         1.6333 
  74   0.0000       0.064188         1.7466 
  75   0.0000       0.068940         1.8759 
*Only the first 10 virtual orbitals were printed.

                    ********************************
                    * MULLIKEN POPULATION ANALYSIS *
                    ********************************

--------------------------------------------
MULLIKEN ATOMIC CHARGES AND SPIN POPULATIONS
--------------------------------------------
   0 O :   -0.673725    0.163588
   1 O :   -0.670999    0.149307
   2 O :   -0.655151    0.006710
   3 O :   -0.643042    0.006525
   4 N :   -0.262130    0.019315
   5 N :   -0.265984    0.024108
   6 N :    0.071326    0.019816
   7 N :    0.040689    0.016504
   8 C :    0.023266    0.480257
   9 C :    0.340512    0.550203
  10 C :    0.314733    0.124871
  11 C :    0.365496    0.015256
  12 C :   -1.368507    0.019928
  13 C :   -1.329824    0.027897
  14 C :    0.522205    0.169260
  15 C :    0.336487    0.122855
  16 C :    0.414914   -0.010511
  17 C :    0.368248   -0.000109
  18 H :    0.553065    0.004905
  19 H :    0.477182   -0.001765
  20 H :    0.342064    0.006829
  21 H :    0.224382    0.016860
  22 H :    0.314744    0.022076
  23 H :    0.334050    0.027501
  24 H :    0.320135    0.021757
  25 H :    0.313320    0.001033
  26 H :    0.048512   -0.001912
  27 H :    0.077719   -0.001726
  28 H :    0.031265   -0.001281
  29 H :    0.035050   -0.000055
Sum of atomic charges         :   -0.0000000
Sum of atomic spin populations:    2.0000000

-----------------------------------------------------
MULLIKEN REDUCED ORBITAL CHARGES AND SPIN POPULATIONS
-----------------------------------------------------
CHARGE
  0 O s       :     4.096998  s :     4.096998
      pz      :     1.554952  p :     4.544146
      px      :     1.342032
      py      :     1.647162
      dz2     :     0.005798  d :     0.030668
      dxz     :     0.005665
      dyz     :     0.005793
      dx2y2   :     0.009044
      dxy     :     0.004367
      f0      :     0.000169  f :     0.001912
      f+1     :     0.000369
      f-1     :     0.000168
      f+2     :     0.000342
      f-2     :     0.000361
      f+3     :     0.000284
      f-3     :     0.000218

  1 O s       :     4.101225  s :     4.101225
      pz      :     1.453961  p :     4.538432
      px      :     1.457541
      py      :     1.626930
      dz2     :     0.004436  d :     0.029430
      dxz     :     0.010920
      dyz     :     0.007981
[...]
[1739893192.278384] [ohm:214327:0]        ib_iface.c:1059 UCX  ERROR ibv_create_cq(cqe=256) failed: Connection timed out
[1739893192.282830] [ohm:214206:0]        ib_iface.c:1059 UCX  ERROR ibv_create_cq(cqe=256) failed: Connection timed out
[1739893192.283938] [ohm:214281:0]        ib_iface.c:1059 UCX  ERROR ibv_create_cq(cqe=256) failed: Connection timed out
[1739893192.286817] [ohm:214215:0]        ib_iface.c:1059 UCX  ERROR ibv_create_cq(cqe=256) failed: Connection timed out
[1739893192.289379] [ohm:214302:0]        ib_iface.c:1059 UCX  ERROR ibv_create_cq(cqe=256) failed: Connection timed out
[1739893192.291029] [ohm:214267:0]        ib_iface.c:1059 UCX  ERROR ibv_create_cq(cqe=256) failed: Connection timed out
[1739893192.291548] [ohm:214298:0]        ib_iface.c:1059 UCX  ERROR ibv_create_cq(cqe=256) failed: Connection timed out
[1739893192.292435] [ohm:214278:0]        ib_iface.c:1059 UCX  ERROR ibv_create_cq(cqe=256) failed: Connection timed out
[1739893192.293259] [ohm:214279:0]        ib_iface.c:1059 UCX  ERROR ibv_create_cq(cqe=256) failed: Connection timed out
[1739893192.293276] [ohm:214304:0]        ib_iface.c:1059 UCX  ERROR ibv_create_cq(cqe=256) failed: Connection timed out
[1739893192.293413] [ohm:214310:0]        ib_iface.c:1059 UCX  ERROR ibv_create_cq(cqe=256) failed: Connection timed out


           ************************************************************
           *        Program running with 64 parallel MPI-processes    *
           *              working on a common directory               *
           ************************************************************

------------------------------------------------------------------------------
                              ORCA PROPERTY CALCULATIONS
------------------------------------------------------------------------------

GBWName                                 ... orca.gbw
Number of atoms                         ...     30
Number of basis functions               ...    882
Max core memory                         ...   1024 MB

Electric properties:
Dipole moment                           ... YES
Quadrupole moment                       ...  NO
Static polarizability (Dipole/Dipole)   ...  NO
Static polarizability (Dipole/Quad.)    ...  NO
Static polarizability (Quad./Quad.)     ...  NO
Static polarizability (Velocity)        ...  NO

Atomic electric properties:
Dipole moment                           ...  NO
Quadrupole moment                       ...  NO
Static polarizability                   ...  NO

Choice of electric origin               ... Center of mass
Position of electric origin             ...    -0.018740    -0.064859    -0.038283

General magnetic properties:
Magnetizability                         ...  NO

EPR properties:
g-Tensor (aka g-matrix)                 ...  NO
Zero-Field splitting spin-orbit         ...  NO
Zero-field splitting spin-spin          ...  NO
Hyperfine couplings                     ...  NO (   0 nuclei)
Quadrupole couplings                    ...  NO (   0 nuclei)
Contact density                         ...  NO (   0 nuclei)

NMR properties:
Chemical shifts                         ...  NO (   0 nuclei)
Spin-rotation constants                 ...  NO (   0 nuclei)
Spin-spin couplings                     ...  NO (   0 nuclei,    0 pairs)

Choice of magnetic origin               ... GIAO
Position of magnetic origin             ...     0.000000     0.000000     0.000000

Properties with geometric perturbations:
SCF Hessian                             ...  NO
IR spectrum                             ...  NO
VCD spectrum                            ...  NO
X-ray spectroscopy properties:
SCF XES/XAS/RIXS spectra                ...  NO


-------------
DIPOLE MOMENT
-------------

Method             : SCF
Type of density    : Electron Density
Multiplicity       :   3
Irrep              :   0
Energy             :  -908.7524086415894544 Eh
Relativity type    : 
Basis              : AO
                                X                 Y                 Z
Electronic contribution:     -2.707991962     -10.249473838      -7.375862710
Nuclear contribution   :      2.454874151      11.770441160      10.192844589
                        -----------------------------------------
Total Dipole Moment    :     -0.253117811       1.520967322       2.816981879
                        -----------------------------------------
Magnitude (a.u.)       :      3.211354407
Magnitude (Debye)      :      8.162614209



--------------------
Rotational spectrum 
--------------------
 
Rotational constants in cm-1:             0.019184             0.015835             0.012718 
Rotational constants in MHz :           575.118123           474.706419           381.287895 

Dipole components along the rotational axes: 
x,y,z [a.u.] :     0.641635    -1.464317     2.785117 
x,y,z [Debye]:     1.630906    -3.721999     7.079205 

 

-------------
DIPOLE MOMENT
-------------

Method             : TDA/CIS
Type of density    : Electron Density
Level              : Relaxed density
State              :   1
Multiplicity       :   3
Irrep              :   0
Energy             :     0.0000000000000000 Eh
Relativity type    : 
Basis              : AO
                                X                 Y                 Z
Electronic contribution:     -2.810565740     -10.222549644      -7.351069513
Nuclear contribution   :      2.454874151      11.770441160      10.192844589
                        -----------------------------------------
Total Dipole Moment    :     -0.355691589       1.547891515       2.841775076
                        -----------------------------------------
Magnitude (a.u.)       :      3.255483103
Magnitude (Debye)      :      8.274780440



--------------------
Rotational spectrum 
--------------------
 
Rotational constants in cm-1:             0.019184             0.015835             0.012718 
Rotational constants in MHz :           575.118123           474.706419           381.287895 

Dipole components along the rotational axes: 
x,y,z [a.u.] :     0.561445    -1.530254     2.818026 
x,y,z [Debye]:     1.427080    -3.889596     7.162854 

 

Dipole moment calculation done in   0.2 sec 

Maximum memory used throughout the entire PROP-calculation: 82.0 MB
[1739893194.705560] [ohm:214526:0]        ib_iface.c:1059 UCX  ERROR ibv_create_cq(cqe=256) failed: Connection timed out
[1739893194.732429] [ohm:214531:0]        ib_iface.c:1059 UCX  ERROR ibv_create_cq(cqe=256) failed: Connection timed out
[1739893194.737017] [ohm:214525:0]        ib_iface.c:1059 UCX  ERROR ibv_create_cq(cqe=256) failed: Connection timed out
[1739893194.750229] [ohm:214545:0]        ib_iface.c:1059 UCX  ERROR ibv_create_cq(cqe=256) failed: Connection timed out
[1739893194.755964] [ohm:214527:0]        ib_iface.c:1059 UCX  ERROR ibv_create_cq(cqe=256) failed: Connection timed out
[1739893194.771027] [ohm:214528:0]        ib_iface.c:1059 UCX  ERROR ibv_create_cq(cqe=256) failed: Connection timed out
[1739893194.775162] [ohm:214530:0]        ib_iface.c:1059 UCX  ERROR ibv_create_cq(cqe=256) failed: Connection timed out
[1739893194.778276] [ohm:214535:0]        ib_iface.c:1059 UCX  ERROR ibv_create_cq(cqe=256) failed: Connection timed out
[1739893194.786819] [ohm:214529:0]        ib_iface.c:1059 UCX  ERROR ibv_create_cq(cqe=256) failed: Connection timed out
[1739893194.791161] [ohm:214551:0]        ib_iface.c:1059 UCX  ERROR ibv_create_cq(cqe=256) failed: Connection timed out
[1739893194.791992] [ohm:214558:0]        ib_iface.c:1059 UCX  ERROR ibv_create_cq(cqe=256) failed: Connection timed out
[1739893194.794077] [ohm:214610:0]        ib_iface.c:1059 UCX  ERROR ibv_create_cq(cqe=256) failed: Connection timed out
[1739893194.797972] [ohm:214579:0]        ib_iface.c:1059 UCX  ERROR ibv_create_cq(cqe=256) failed: Connection timed out
[1739893194.800753] [ohm:214561:0]        ib_iface.c:1059 UCX  ERROR ibv_create_cq(cqe=256) failed: Connection timed out
[1739893194.806905] [ohm:214591:0]        ib_iface.c:1059 UCX  ERROR ibv_create_cq(cqe=256) failed: Connection timed out
[1739893194.810046] [ohm:214533:0]        ib_iface.c:1059 UCX  ERROR ibv_create_cq(cqe=256) failed: Connection timed out
[1739893194.813842] [ohm:214615:0]        ib_iface.c:1059 UCX  ERROR ibv_create_cq(cqe=256) failed: Connection timed out
[1739893194.822424] [ohm:214564:0]        ib_iface.c:1059 UCX  ERROR ibv_create_cq(cqe=256) failed: Connection timed out
[1739893194.846913] [ohm:214553:0]        ib_iface.c:1059 UCX  ERROR ibv_create_cq(cqe=256) failed: Connection timed out
[1739893194.851594] [ohm:214595:0]        ib_iface.c:1059 UCX  ERROR ibv_create_cq(cqe=256) failed: Connection timed out
[1739893194.875547] [ohm:214605:0]        ib_iface.c:1059 UCX  ERROR ibv_create_cq(cqe=256) failed: Connection timed out
[1739893194.892102] [ohm:214619:0]        ib_iface.c:1059 UCX  ERROR ibv_create_cq(cqe=256) failed: Connection timed out
[1739893194.892735] [ohm:214608:0]        ib_iface.c:1059 UCX  ERROR ibv_create_cq(cqe=256) failed: Connection timed out
[1739893194.893417] [ohm:214534:0]        ib_iface.c:1059 UCX  ERROR ibv_create_cq(cqe=256) failed: Connection timed out
[1739893194.902820] [ohm:214662:0]        ib_iface.c:1059 UCX  ERROR ibv_create_cq(cqe=256) failed: Connection timed out
[1739893194.903076] [ohm:214669:0]        ib_iface.c:1059 UCX  ERROR ibv_create_cq(cqe=256) failed: Connection timed out
[1739893194.917525] [ohm:214632:0]        ib_iface.c:1059 UCX  ERROR ibv_create_cq(cqe=256) failed: Connection timed out
[1739893194.920490] [ohm:214547:0]        ib_iface.c:1059 UCX  ERROR ibv_create_cq(cqe=256) failed: Connection timed out
[1739893194.921620] [ohm:214600:0]        ib_iface.c:1059 UCX  ERROR ibv_create_cq(cqe=256) failed: Connection timed out
[1739893194.938964] [ohm:214658:0]        ib_iface.c:1059 UCX  ERROR ibv_create_cq(cqe=256) failed: Connection timed out
[1739893194.939191] [ohm:214603:0]        ib_iface.c:1059 UCX  ERROR ibv_create_cq(cqe=256) failed: Connection timed out
[1739893194.949093] [ohm:214582:0]        ib_iface.c:1059 UCX  ERROR ibv_create_cq(cqe=256) failed: Connection timed out
[1739893194.955706] [ohm:214584:0]        ib_iface.c:1059 UCX  ERROR ibv_create_cq(cqe=256) failed: Connection timed out
[1739893194.956677] [ohm:214633:0]        ib_iface.c:1059 UCX  ERROR ibv_create_cq(cqe=256) failed: Connection timed out
[1739893194.962144] [ohm:214580:0]        ib_iface.c:1059 UCX  ERROR ibv_create_cq(cqe=256) failed: Connection timed out
[1739893194.962226] [ohm:214532:0]        ib_iface.c:1059 UCX  ERROR ibv_create_cq(cqe=256) failed: Connection timed out
[1739893194.971990] [ohm:214577:0]        ib_iface.c:1059 UCX  ERROR ibv_create_cq(cqe=256) failed: Connection timed out
[1739893194.976780] [ohm:214586:0]        ib_iface.c:1059 UCX  ERROR ibv_create_cq(cqe=256) failed: Connection timed out
[1739893194.977207] [ohm:214569:0]        ib_iface.c:1059 UCX  ERROR ibv_create_cq(cqe=256) failed: Connection timed out
[1739893194.981658] [ohm:214629:0]        ib_iface.c:1059 UCX  ERROR ibv_create_cq(cqe=256) failed: Connection timed out
[1739893194.987227] [ohm:214572:0]        ib_iface.c:1059 UCX  ERROR ibv_create_cq(cqe=256) failed: Connection timed out
[1739893194.990937] [ohm:214636:0]        ib_iface.c:1059 UCX  ERROR ibv_create_cq(cqe=256) failed: Connection timed out
[1739893194.992850] [ohm:214578:0]        ib_iface.c:1059 UCX  ERROR ibv_create_cq(cqe=256) failed: Connection timed out
[1739893195.001389] [ohm:214581:0]        ib_iface.c:1059 UCX  ERROR ibv_create_cq(cqe=256) failed: Connection timed out
[1739893195.001434] [ohm:214623:0]        ib_iface.c:1059 UCX  ERROR ibv_create_cq(cqe=256) failed: Connection timed out
[1739893195.001483] [ohm:214672:0]        ib_iface.c:1059 UCX  ERROR ibv_create_cq(cqe=256) failed: Connection timed out
[1739893195.009389] [ohm:214583:0]        ib_iface.c:1059 UCX  ERROR ibv_create_cq(cqe=256) failed: Connection timed out
[1739893195.016579] [ohm:214650:0]        ib_iface.c:1059 UCX  ERROR ibv_create_cq(cqe=256) failed: Connection timed out
[1739893195.016868] [ohm:214559:0]        ib_iface.c:1059 UCX  ERROR ibv_create_cq(cqe=256) failed: Connection timed out
[1739893195.023292] [ohm:214568:0]        ib_iface.c:1059 UCX  ERROR ibv_create_cq(cqe=256) failed: Connection timed out
[1739893195.030126] [ohm:214573:0]        ib_iface.c:1059 UCX  ERROR ibv_create_cq(cqe=256) failed: Connection timed out
[1739893195.035753] [ohm:214665:0]        ib_iface.c:1059 UCX  ERROR ibv_create_cq(cqe=256) failed: Connection timed out
[1739893195.042519] [ohm:214675:0]        ib_iface.c:1059 UCX  ERROR ibv_create_cq(cqe=256) failed: Connection timed out
[1739893195.042998] [ohm:214588:0]        ib_iface.c:1059 UCX  ERROR ibv_create_cq(cqe=256) failed: Connection timed out
[1739893195.043887] [ohm:214652:0]        ib_iface.c:1059 UCX  ERROR ibv_create_cq(cqe=256) failed: Connection timed out
[1739893195.044019] [ohm:214548:0]        ib_iface.c:1059 UCX  ERROR ibv_create_cq(cqe=256) failed: Connection timed out
[1739893195.045019] [ohm:214656:0]        ib_iface.c:1059 UCX  ERROR ibv_create_cq(cqe=256) failed: Connection timed out
[1739893195.050217] [ohm:214643:0]        ib_iface.c:1059 UCX  ERROR ibv_create_cq(cqe=256) failed: Connection timed out
[1739893195.050394] [ohm:214536:0]        ib_iface.c:1059 UCX  ERROR ibv_create_cq(cqe=256) failed: Connection timed out
[1739893195.050930] [ohm:214574:0]        ib_iface.c:1059 UCX  ERROR ibv_create_cq(cqe=256) failed: Connection timed out
[1739893195.052883] [ohm:214639:0]        ib_iface.c:1059 UCX  ERROR ibv_create_cq(cqe=256) failed: Connection timed out
[1739893195.052972] [ohm:214575:0]        ib_iface.c:1059 UCX  ERROR ibv_create_cq(cqe=256) failed: Connection timed out
[1739893195.054294] [ohm:214576:0]        ib_iface.c:1059 UCX  ERROR ibv_create_cq(cqe=256) failed: Connection timed out
[1739893195.054799] [ohm:214648:0]        ib_iface.c:1059 UCX  ERROR ibv_create_cq(cqe=256) failed: Connection timed out

--------------------------------
SUGGESTED CITATIONS FOR THIS RUN
--------------------------------

Below you find a list of papers that are relevant to this ORCA run
We neither can nor want to force you to cite these papers, but we appreciate if you do
You receive ORCA, which is the product of decades of hard work by many enthusiastic individuals, for free
The only thing we kindly ask in return is that you cite our papers,
We deeply appreciate it, if you show your appreciation for ORCA by not just citing the generic ORCA reference.

Please note that relegating all ORCA citations to the supporting information does *not* help us.
SI sections are not indexed - citations you put there will not count into any citation statistics
But we need these citations in order to attract the funding resources that allow us to do what we are doing

Therefore, if you are a happy ORCA user, please consider citing a few of the papers listed below in the main body of your paper

In addition to the list printed below, the program has created the file orca.bibtex that contains the list in bibtex format
You can import this file easily into all common literature databanks and citation aid programs


List of essential papers. We consider these as the minimum necessary citations

  1. Neese,F.
     Software update: the ORCA program system, version 5.0
     WIRES Comput. Molec. Sci., 2022 12(1)e1606
     doi.org/10.1002/wcms.1606

List of papers to cite with high priority. The work reported in these papers was absolutely
necessary for this run to complete.
Our perspective: the developers of density functionals and basis sets usually get cited in chemistry papers
Good! But without the algorithms to do something with them, the functionals or basis sets would not do anything.
Hence, in our opinion, the algorithm design and method developments papers are equally worthy of getting cited

  1. Neese,F.; Olbrich,G.
     Efficient use of the resolution of the identity approximation in time-dependent density functional calculations with hybrid density functionals
     Chem. Phys. Lett., 2002 362 170-178
     doi.org/10.1016/s0009-2614(02)01053-9
  2. Neese,F.
     An improvement of the resolution of the identity approximation for the formation of the Coulomb matrix
     J. Comp. Chem., 2003 24(14)1740-1747
     doi.org/10.1002/jcc.10318
  3. Neese,F.; Wennmohs,F.; Hansen,A.; Becker,U.
     Efficient, approximate and parallel Hartree-Fock and hybrid DFT calculations. A 'chain-of-spheres' algorithm for the Hartree-Fock exchange
     Chem. Phys., 2009 356(1-3)98-109
     doi.org/10.1016/j.chemphys.2008.10.036
  4. Petrenko,T.; Kossmann,S.; Neese,F.
     Efficient time-dependent density functional theory approximations for hybrid density functionals: Analytical gradients and parallelization
     J. Chem. Phys., 2011 134 054116
     doi.org/10.1063/1.3533441
  5. Helmich-Paris,B.; de Souza,B.; Neese,F.; Izsák,R.
     An improved chain of spheres for exchange algorithm
     J. Chem. Phys., 2021 155 104109
     doi.org/doi: 10.1063/5.0058766.
  6. Neese,F.
     The SHARK Integral Generation and Digestion System
     J. Comp. Chem., 2022  1-16
     doi.org/10.1002/jcc.26942
  7. Lehtola,S.; Steigemann,C.; Oliveira,M.; Marques,M.
     Recent developments in Libxc - A comprehensive library of functionals for density functional theory
     Software X, 2018 7 
     doi.org/10.1016/j.softx.2017.11.002
  8. Grimme,S.; Antony,J.; Ehrlich,S.; Krieg,H.
     A consistent and accurate ab initio parametrization of density functional dispersion correction (DFT-D) for the 94 elements H-Pu
     J. Chem. Phys., 2010 132 154104-XXXX
     doi.org/10.1063/1.3382344
  9. Grimme,S.; Ehrlich,S.; Goerigk,L.
     Effect of the damping function in dispersion corrected density functional theory
     J. Comput. Chem., 2011 32(7)1456-1465
     doi.org/10.1002/jcc.21759

List of suggested additional citations. These are papers that are important in the 'surrounding' of 
of this run, or papers that preceded the highly important papers. If you like your results we are grateful for a citation.

  1. Izsak,R.; Neese,F.
     An overlap fitted chain of spheres exchange method
     J. Chem. Phys., 2011 135 144105
     doi.org/10.1063/1.3646921
  2. Izsak,R.; Hansen,A.; Neese,F.
     The resolution of identity and chain of spheres approximations for the LPNO-CCSD singles Fock term
     Molec. Phys., 2012 110 2413-2417
     doi.org/10.1080/00268976.2012.687466
  3. Neese,F.
     The ORCA program system
     WIRES Comput. Molec. Sci., 2012 2(1)73-78
     doi.org/10.1002/wcms.81
  4. Izsak,R.; Neese,F.; Klopper,W.
     Robust fitting techniques in the chain of spheres approximation to the Fock exchange: The role of the complementary space
     J. Chem. Phys., 2013 139 
     doi.org/10.1063/1.4819264
  5. Neese,F.
     Software update: the ORCA program system, version 4.0
     WIRES Comput. Molec. Sci., 2018 8(1)1-6
     doi.org/10.1002/wcms.1327
  6. Neese,F.; Wennmohs,F.; Becker,U.; Riplinger,C.
     The ORCA quantum chemistry program package
     J. Chem. Phys., 2020 152 Art. No. L224108
     doi.org/10.1063/5.0004608

List of optional additional citations

  1. Neese,F.
     Approximate second-order SCF convergence for spin unrestricted wavefunctions
     Chem. Phys. Lett., 2000 325(1-3)93-98
     doi.org/10.1016/s0009-2614(00)00662-x

Timings for individual modules:

Sum of individual times          ...      267.833 sec (=   4.464 min)
Startup calculation              ...        6.384 sec (=   0.106 min)   2.4 %
SCF iterations                   ...      113.444 sec (=   1.891 min)  42.4 %
Property integrals               ...        4.228 sec (=   0.070 min)   1.6 %
Property calculations            ...        2.807 sec (=   0.047 min)   1.0 %
CIS module                       ...      140.969 sec (=   2.349 min)  52.6 %
                             ****ORCA TERMINATED NORMALLY****
TOTAL RUN TIME: 0 days 0 hours 4 minutes 29 seconds 893 msec
