
                                 *****************
                                 * O   R   C   A *
                                 *****************

                                            #,                                       
                                            ###                                      
                                            ####                                     
                                            #####                                    
                                            ######                                   
                                           ########,                                 
                                     ,,################,,,,,                         
                               ,,#################################,,                 
                          ,,##########################################,,             
                       ,#########################################, ''#####,          
                    ,#############################################,,   '####,        
                  ,##################################################,,,,####,       
                ,###########''''           ''''###############################       
              ,#####''   ,,,,##########,,,,          '''####'''          '####       
            ,##' ,,,,###########################,,,                        '##       
           ' ,,###''''                  '''############,,,                           
         ,,##''                                '''############,,,,        ,,,,,,###''
      ,#''                                            '''#######################'''  
     '                                                          ''''####''''         
             ,#######,   #######,   ,#######,      ##                                
            ,#'     '#,  ##    ##  ,#'     '#,    #''#        ,####,   ,####,        
            ##       ##  ##   ,#'  ##            #'  '#       #'       #'  '#        
            ##       ##  #######   ##           ,######,      #####,   #    #        
            '#,     ,#'  ##    ##  '#,     ,#' ,#      #,     #,   #   #,  ,#        
             '#######'   ##     ##  '#######'  #'      '#     '####' # '####'        



                #########################################################
                #                        -***-                          #
                #          Department of theory and spectroscopy        #
                #                                                       #
                #                      Frank Neese                      #
                #                                                       #
                #     Directorship, Architecture, Infrastructure        #
                #                    SHARK, DRIVERS                     #
                #        Core code/Algorithms in most modules           #
                #                                                       #
                #        Max Planck Institute fuer Kohlenforschung      #
                #                Kaiser Wilhelm Platz 1                 #
                #                 D-45470 Muelheim/Ruhr                 #
                #                      Germany                          #
                #                                                       #
                #                  All rights reserved                  #
                #                        -***-                          #
                #########################################################


                         Program Version 6.0.0  -   RELEASE  -


 With contributions from (in alphabetic order):
   Daniel Aravena         : Magnetic Suceptibility
   Michael Atanasov       : Ab Initio Ligand Field Theory (pilot matlab implementation)
   Alexander A. Auer      : GIAO ZORA, VPT2 properties, NMR spectrum
   Ute Becker             : All parallelization in ORCA, NUMFREQ, NUMCALC
   Giovanni Bistoni       : ED, misc. LED, open-shell LED, HFLD
   Martin Brehm           : Molecular dynamics
   Dmytro Bykov           : pre 5.0 version of the SCF Hessian
   Marcos Casanova-Páez   : Triplet and SCS-CIS(D). UHF-(DLPNO)-IP/EA/STEOM-CCSD. UHF-CVS-IP/STEOM-CCSD
   Vijay G. Chilkuri      : MRCI spin determinant printing, contributions to CSF-ICE
   Pauline Colinet        : FMM embedding
   Dipayan Datta          : RHF DLPNO-CCSD density
   Achintya Kumar Dutta   : EOM-CC, STEOM-CC
   Nicolas Foglia         : Exact transition moments, OPA infrastructure, MCD improvements
   Dmitry Ganyushin       : Spin-Orbit,Spin-Spin,Magnetic field MRCI
   Miquel Garcia          : C-PCM and meta-GGA Hessian, CCSD/C-PCM, Gaussian charge scheme
   Tiago L. C. Gouveia    : GS-ROHF, GS-ROCIS
   Yang Guo               : DLPNO-NEVPT2, F12-NEVPT2, CIM, IAO-localization
   Andreas Hansen         : Spin unrestricted coupled pair/coupled cluster methods
   Ingolf Harden          : AUTO-CI MPn and infrastructure 
   Benjamin Helmich-Paris : MC-RPA, TRAH-(SCF,CASSCF), AVAS, COSX integrals, SCF dyn. polar.
   Lee Huntington         : MR-EOM, pCC
   Robert Izsak           : Overlap fitted RIJCOSX, COSX-SCS-MP3, EOM
   Riya Kayal             : Wick's Theorem for AUTO-CI, AUTO-CI UHF-CCSDT
   Emily Kempfer          : AUTO-CI, RHF CISDT and CCSDT
   Christian Kollmar      : KDIIS, OOCD, Brueckner-CCSD(T), CCSD density, CASPT2, CASPT2-K, improved NEVPT2
   Axel Koslowski         : Symmetry handling
   Simone Kossmann        : Meta GGA functionals, TD-DFT gradient, OOMP2, (MP2 Hessian; deprecated post 5.0)
   Lucas Lang             : DCDCAS
   Marvin Lechner         : AUTO-CI (C++ implementation), FIC-MRCC
   Spencer Leger          : CASSCF response
   Dagmar Lenk            : GEPOL surface, SMD, ORCA-2-JSON
   Dimitrios Liakos       : Extrapolation schemes; Compound Job, initial MDCI parallelization
   Dimitrios Manganas     : Further ROCIS development; embedding schemes. LFT, Crystal Embedding
   Dimitrios Pantazis     : SARC Basis sets
   Anastasios Papadopoulos: AUTO-CI, single reference methods and gradients
   Taras Petrenko         : pre 6.0 DFT Hessian and TD-DFT gradient, (ASA, deprecated), ECA, 1-Electron XAS/XES, NRVS
   Peter Pinski           : DLPNO-MP2, DLPNO-MP2 Gradient
   Christoph Reimann      : Effective Core Potentials
   Marius Retegan         : Local ZFS, SOC
   Christoph Riplinger    : Optimizer, TS searches, QM/MM, DLPNO-CCSD(T), (RO)-DLPNO pert. Triples
   Michael Roemelt        : Original ROCIS implementation
   Masaaki Saitow         : Open-shell DLPNO-CCSD energy and density
   Barbara Sandhoefer     : DKH picture change effects
   Kantharuban Sivalingam : CASSCF convergence/infrastructure, NEVPT2 and variants, FIC-MRCI
   Bernardo de Souza      : ESD, SOC TD-DFT
   Georgi Stoychev        : AutoAux, RI-MP2 NMR, DLPNO-MP2 response, X2C
   Van Anh Tran           : RI-MP2 g-tensors
   Willem Van den Heuvel  : Paramagnetic NMR
   Zikuan Wang            : NOTCH, Electric field optimization 
   Frank Wennmohs         : Technical directorship and infrastructure
   Hang Xu                : AUTO-CI-Response properties 


 We gratefully acknowledge several colleagues who have allowed us to
 interface, adapt or use parts of their codes:
   Stefan Grimme, W. Hujo, H. Kruse, P. Pracht,  : VdW corrections, initial TS optimization,
                  C. Bannwarth, S. Ehlert,         DFT functionals, gCP, sTDA/sTD-DF
                  L. Wittmann, M. Mueller
   Ed Valeev, F. Pavosevic, A. Kumar             : LibInt (2-el integral package), F12 methods
   Garnet Chan, S. Sharma, J. Yang, R. Olivares  : DMRG
   Ulf Ekstrom                                   : XCFun DFT Library
   Mihaly Kallay                                 : mrcc  (arbitrary order and MRCC methods)
   Frank Weinhold                                : gennbo (NPA and NBO analysis)
   Simon Mueller                                 : openCOSMO-RS
   Christopher J. Cramer and Donald G. Truhlar   : smd solvation model
   Lars Goerigk                                  : TD-DFT with DH, B97 family of functionals
   V. Asgeirsson, H. Jonsson                     : NEB implementation
   FAccTs GmbH                                   : IRC, NEB, NEB-TS, DLPNO-Multilevel, CI-OPT
                                                   MM, QMMM, 2- and 3-layer-ONIOM, Crystal-QMMM,
                                                   LR-CPCM, SF, NACMEs, symmetry and pop. for TD-DFT,
                                                   nearIR, NL-DFT gradient (VV10), updates on ESD,
                                                   ML-optimized integration grids, MBIS, APM,
                                                   GOAT, DOCKER, SOLVATOR, interface openCOSMO-RS
   S Lehtola, MJT Oliveira, MAL Marques          : LibXC Library
   Liviu Ungur et al                             : ANISO software


 Your calculation uses the libint2 library for the computation of 2-el integrals
 For citations please refer to: http://libint.valeyev.net

 Your ORCA version has been built with support for libXC version: 6.2.2
 For citations please refer to: https://libxc.gitlab.io

 This ORCA versions uses:
   CBLAS   interface :  Fast vector & matrix operations
   LAPACKE interface :  Fast linear algebra routines
   SCALAPACK package :  Parallel linear algebra routines
   Shared memory     :  Shared parallel matrices
   BLAS/LAPACK       :  OpenBLAS 0.3.27  USE64BITINT DYNAMIC_ARCH NO_AFFINITY Zen SINGLE_THREADED
        Core in use  :  Zen
   Copyright (c) 2011-2014, The OpenBLAS Project


Your calculation utilizes the atom-pairwise dispersion correction
with the Becke-Johnson damping scheme (D3BJ)


Warning: RI is on but no J-basis has been assigned. Assigning Def2/J (nothing to worry about!)
================================================================================

----- Orbital basis set information -----
Your calculation utilizes the basis: def2-TZVPPD
   F. Weigend and R. Ahlrichs, Phys. Chem. Chem. Phys. 7, 3297 (2005).
   D. Rappoport and F. Furche, J. Chem. Phys. 133, 134105 (2010)
   D. Rappoport, J. Chem. Phys. 155, 124102 (2021).

----- AuxJ basis set information -----
Your calculation utilizes the auxiliary basis: def2/J
   F. Weigend, Phys. Chem. Chem. Phys. 8, 1057 (2006).

================================================================================
                                        WARNINGS
                       Please study these warnings very carefully!
================================================================================

Using LibXC functional ID 531 : wB97M-V exchange-correlation functional
[ 1]  N. Mardirossian and M. Head-Gordon.,  J. Chem. Phys. 144, 214110 (2016)
Using LibXC functional ID 531 : wB97M-V exchange-correlation functional
[ 1]  N. Mardirossian and M. Head-Gordon.,  J. Chem. Phys. 144, 214110 (2016)

WARNING: B97M-V or wB97M-V functional requested.
  ===> : libXC variant has now been activated.
         Any manually given DFX/HFX/RangeSep scaling parameters are IGNORED!

Your calculation utilizes LibXC
 by S Lehtola, C Steigemann, MJT Oliveira & MAL Marques
Please cite in your paper:
 S Lehtola, C Steigemann, MJT Oliveira & MAL Marques, SoftwareX, 7, (2018), 1.
   


WARNING: your system is open-shell and RHF/RKS was chosen
  ===> : WILL SWITCH to UHF/UKS

INFO   : Checking CIS options ...

WARNING: CIS/ROCIS methods need fully converged wavefunctions
  ===> : Setting SCFConvForced true
         You can overwrite this default with %scf ConvForced false 


================================================================================
                                       INPUT FILE
================================================================================
NAME = orca.inp
|  1> ! Engrad def2-TZVPPD wB97M-D3BJ 
|  2> %pal nprocs 8 end%pal nprocs 64 end 
|  3> %tddft 
|  4>  Iroot 2 Nroots 3 
|  5> sf true 
|  6> end 
|  7> *xyz 0 3 
|  8> O   3.16719713 -1.11663848 -2.17584777
|  9> O   -2.23699813 1.91309627 -1.3139669
| 10> O   -1.14878089 -2.41104464 -1.64529748
| 11> O   -2.7820789 0.97339103 3.013559
| 12> N   -0.11895352 -1.5813311 0.12188641
| 13> N   -0.71685116 0.49469886 2.22398916
| 14> N   0.88240778 -1.56990148 -1.99161422
| 15> N   -2.40897466 1.19949192 0.83946796
| 16> C   2.14723709 -0.87089503 -0.09067297
| 17> C   -0.19564462 1.34780493 -0.03773138
| 18> C   0.89883524 -0.78792005 0.68434809
| 19> C   0.29324551 0.6184425 1.15345427
| 20> C   3.42632816 -0.62182351 0.63967879
| 21> C   0.63471426 2.17671424 -0.86642966
| 22> C   2.14892919 -1.16012357 -1.5453414
| 23> C   -1.62229974 1.5166785 -0.30739448
| 24> C   -0.13632602 -1.91020472 -1.18852762
| 25> C   -2.01256397 0.90206059 2.09390598
| 26> H   1.11085648 -1.257353 1.704657
| 27> H   1.16209503 1.090302 1.54667846
| 28> H   3.39695683 0.41440019 1.0109939
| 29> H   3.40389332 -1.23463661 1.482048
| 30> H   4.31961435 -0.88221941 0.04579123
| 31> H   -0.01069582 2.77910487 -1.43069341
| 32> H   1.35848682 2.6899704 -0.17729309
| 33> H   1.34583744 1.63886231 -1.60667019
| 34> H   -0.99829358 -1.52564195 0.6630244
| 35> H   -0.42062619 0.375875 3.19167439
| 36> H   0.79368083 -1.75957413 -3.00494318
| 37> H   -3.38317193 1.56285716 0.70882081
| 38> *
| 39> 
| 40>                          ****END OF INPUT****
================================================================================

                     *******************************
                     * Energy+Gradient Calculation *
                     *******************************

---------------------------------
CARTESIAN COORDINATES (ANGSTROEM)
---------------------------------
  O      3.167197   -1.116638   -2.175848
  O     -2.236998    1.913096   -1.313967
  O     -1.148781   -2.411045   -1.645297
  O     -2.782079    0.973391    3.013559
  N     -0.118954   -1.581331    0.121886
  N     -0.716851    0.494699    2.223989
  N      0.882408   -1.569901   -1.991614
  N     -2.408975    1.199492    0.839468
  C      2.147237   -0.870895   -0.090673
  C     -0.195645    1.347805   -0.037731
  C      0.898835   -0.787920    0.684348
  C      0.293246    0.618443    1.153454
  C      3.426328   -0.621824    0.639679
  C      0.634714    2.176714   -0.866430
  C      2.148929   -1.160124   -1.545341
  C     -1.622300    1.516678   -0.307394
  C     -0.136326   -1.910205   -1.188528
  C     -2.012564    0.902061    2.093906
  H      1.110856   -1.257353    1.704657
  H      1.162095    1.090302    1.546678
  H      3.396957    0.414400    1.010994
  H      3.403893   -1.234637    1.482048
  H      4.319614   -0.882219    0.045791
  H     -0.010696    2.779105   -1.430693
  H      1.358487    2.689970   -0.177293
  H      1.345837    1.638862   -1.606670
  H     -0.998294   -1.525642    0.663024
  H     -0.420626    0.375875    3.191674
  H      0.793681   -1.759574   -3.004943
  H     -3.383172    1.562857    0.708821

----------------------------
CARTESIAN COORDINATES (A.U.)
----------------------------
  NO LB      ZA    FRAG     MASS         X           Y           Z
   0 O     8.0000    0    15.999    5.985135   -2.110141   -4.111756
   1 O     8.0000    0    15.999   -4.227314    3.615228   -2.483038
   2 O     8.0000    0    15.999   -2.170881   -4.556214   -3.109162
   3 O     8.0000    0    15.999   -5.257367    1.839442    5.694801
   4 N     7.0000    0    14.007   -0.224790   -2.988283    0.230332
   5 N     7.0000    0    14.007   -1.354652    0.934845    4.202730
   6 N     7.0000    0    14.007    1.667509   -2.966684   -3.763605
   7 N     7.0000    0    14.007   -4.552302    2.266711    1.586365
   8 C     6.0000    0    12.011    4.057690   -1.645753   -0.171347
   9 C     6.0000    0    12.011   -0.369715    2.546982   -0.071302
  10 C     6.0000    0    12.011    1.698552   -1.488953    1.293230
  11 C     6.0000    0    12.011    0.554154    1.168687    2.179713
  12 C     6.0000    0    12.011    6.474822   -1.175076    1.208818
  13 C     6.0000    0    12.011    1.199436    4.113394   -1.637315
  14 C     6.0000    0    12.011    4.060888   -2.192316   -2.920272
  15 C     6.0000    0    12.011   -3.065702    2.866107   -0.580891
  16 C     6.0000    0    12.011   -0.257619   -3.609764   -2.245992
  17 C     6.0000    0    12.011   -3.803195    1.704647    3.956909
  18 H     1.0000    0     1.008    2.099215   -2.376053    3.221335
  19 H     1.0000    0     1.008    2.196041    2.060372    2.922799
  20 H     1.0000    0     1.008    6.419318    0.783103    1.910502
  21 H     1.0000    0     1.008    6.432426   -2.333125    2.800665
  22 H     1.0000    0     1.008    8.162888   -1.667153    0.086533
  23 H     1.0000    0     1.008   -0.020212    5.251747   -2.703619
  24 H     1.0000    0     1.008    2.567168    5.083307   -0.335035
  25 H     1.0000    0     1.008    2.543264    3.097001   -3.036167
  26 H     1.0000    0     1.008   -1.886501   -2.883045    1.252935
  27 H     1.0000    0     1.008   -0.794868    0.710301    6.031391
  28 H     1.0000    0     1.008    1.499839   -3.325113   -5.678520
  29 H     1.0000    0     1.008   -6.393268    2.953372    1.339477

--------------------------------
INTERNAL COORDINATES (ANGSTROEM)
--------------------------------
 O      0   0   0     0.000000000000     0.00000000     0.00000000
 O      1   0   0     6.255194457220     0.00000000     0.00000000
 O      2   1   0     4.471262833273    46.45711569     0.00000000
 O      2   1   3     4.461797776578    97.88441550    74.11067357
 N      3   2   1     2.207239876302    71.98223878    61.98336880
 N      4   2   1     2.262240558367    66.07883291    12.59540922
 N      3   2   1     2.225575097173    82.42322852   357.26101236
 N      4   2   1     2.217430999281     6.79294972   324.06240160
 C      1   2   3     2.334236978751    56.52407883   280.06156428
 C      8   4   6     2.385436081097   121.53393511   342.13569228
 C      5   3   2     1.407749336961   150.35128180   286.02820762
 C      6   4   2     1.477041882241   149.26561021    12.75479595
 C      9   1   2     1.493828732072    94.59748347   220.11420545
 C     10   8   4     1.436428680121   141.66458253   233.89790875
 C      1   2   3     1.198456854999    37.91045796   318.35890436
 C      2   1   3     1.244262510785    61.98749867    85.98088596
 C      3   2   1     1.218418726980    77.11040429    28.52300139
 C      4   2   1     1.201250571845    36.07046871     8.49607987
 H     11   5   3     1.142956942576   105.02894800   208.08147848
 H     12   6   4     1.064037658988   109.13034730   119.93418381
 H     13   9   1     1.101134479699   107.39349389   114.07306007
 H     13   9   1     1.041935268399   106.18670881   227.44911168
 H     13   9   1     1.103842686212   112.98843150   345.99856182
 H     14  10   8     1.047770118891   106.64112644   341.14340333
 H     14  10   8     1.123471324288   106.38921860   107.53264818
 H     14  10   8     1.158851551318   117.09186181   220.77375315
 H      5   3   2     1.034007034197    92.43404796    72.56297034
 H      6   4   2     1.018961749487    87.62801445   167.99961734
 H      7   3   2     1.034738501743    90.27790419   256.60649062
 H      8   4  18     1.047932868231    90.06703902   184.06067408

---------------------------
INTERNAL COORDINATES (A.U.)
---------------------------
 O      0   0   0     0.000000000000     0.00000000     0.00000000
 O      1   0   0    11.820604438568     0.00000000     0.00000000
 O      2   1   0     8.449462227668    46.45711569     0.00000000
 O      2   1   3     8.431575862672    97.88441550    74.11067357
 N      3   2   1     4.171078878080    71.98223878    61.98336880
 N      4   2   1     4.275015104363    66.07883291    12.59540922
 N      3   2   1     4.205727424132    82.42322852   357.26101236
 N      4   2   1     4.190337309509     6.79294972   324.06240160
 C      1   2   3     4.411068621512    56.52407883   280.06156428
 C      8   4   6     4.507820903247   121.53393511   342.13569228
 C      5   3   2     2.660260712065   150.35128180   286.02820762
 C      6   4   2     2.791204645766   149.26561021    12.75479595
 C      9   1   2     2.822927194599    94.59748347   220.11420545
 C     10   8   4     2.714456816339   141.66458253   233.89790875
 C      1   2   3     2.264755239269    37.91045796   318.35890436
 C      2   1   3     2.351315384089    61.98749867    85.98088596
 C      3   2   1     2.302477710434    77.11040429    28.52300139
 C      4   2   1     2.270034599004    36.07046871     8.49607987
 H     11   5   3     2.159875604332   105.02894800   208.08147848
 H     12   6   4     2.010739771667   109.13034730   119.93418381
 H     13   9   1     2.080842603249   107.39349389   114.07306007
 H     13   9   1     1.968972306548   106.18670881   227.44911168
 H     13   9   1     2.085960371873   112.98843150   345.99856182
 H     14  10   8     1.979998576011   106.64112644   341.14340333
 H     14  10   8     2.123053122219   106.38921860   107.53264818
 H     14  10   8     2.189912061861   117.09186181   220.77375315
 H      5   3   2     1.953990115181    92.43404796    72.56297034
 H      6   4   2     1.925558647471    87.62801445   167.99961734
 H      7   3   2     1.955372388518    90.27790419   256.60649062
 H      8   4  18     1.980306127691    90.06703902   184.06067408

---------------------
BASIS SET INFORMATION
---------------------
There are 4 groups of distinct atoms

 Group   1 Type O   : 12s7p3d1f contracted to 6s4p3d1f pattern {621111/4111/111/1}
 Group   2 Type N   : 12s6p3d1f contracted to 6s3p3d1f pattern {621111/411/111/1}
 Group   3 Type C   : 12s6p3d1f contracted to 6s3p3d1f pattern {621111/411/111/1}
 Group   4 Type H   : 5s3p1d contracted to 3s3p1d pattern {311/111/1}

Atom   0O    basis set group =>   1
Atom   1O    basis set group =>   1
Atom   2O    basis set group =>   1
Atom   3O    basis set group =>   1
Atom   4N    basis set group =>   2
Atom   5N    basis set group =>   2
Atom   6N    basis set group =>   2
Atom   7N    basis set group =>   2
Atom   8C    basis set group =>   3
Atom   9C    basis set group =>   3
Atom  10C    basis set group =>   3
Atom  11C    basis set group =>   3
Atom  12C    basis set group =>   3
Atom  13C    basis set group =>   3
Atom  14C    basis set group =>   3
Atom  15C    basis set group =>   3
Atom  16C    basis set group =>   3
Atom  17C    basis set group =>   3
Atom  18H    basis set group =>   4
Atom  19H    basis set group =>   4
Atom  20H    basis set group =>   4
Atom  21H    basis set group =>   4
Atom  22H    basis set group =>   4
Atom  23H    basis set group =>   4
Atom  24H    basis set group =>   4
Atom  25H    basis set group =>   4
Atom  26H    basis set group =>   4
Atom  27H    basis set group =>   4
Atom  28H    basis set group =>   4
Atom  29H    basis set group =>   4
---------------------------------
AUXILIARY/J BASIS SET INFORMATION
---------------------------------
There are 4 groups of distinct atoms

 Group   1 Type O   : 12s5p4d2f1g contracted to 6s4p3d1f1g pattern {711111/2111/211/2/1}
 Group   2 Type N   : 12s5p4d2f1g contracted to 6s4p3d1f1g pattern {711111/2111/211/2/1}
 Group   3 Type C   : 12s5p4d2f1g contracted to 6s4p3d1f1g pattern {711111/2111/211/2/1}
 Group   4 Type H   : 5s2p1d contracted to 3s1p1d pattern {311/2/1}

Atom   0O    basis set group =>   1
Atom   1O    basis set group =>   1
Atom   2O    basis set group =>   1
Atom   3O    basis set group =>   1
Atom   4N    basis set group =>   2
Atom   5N    basis set group =>   2
Atom   6N    basis set group =>   2
Atom   7N    basis set group =>   2
Atom   8C    basis set group =>   3
Atom   9C    basis set group =>   3
Atom  10C    basis set group =>   3
Atom  11C    basis set group =>   3
Atom  12C    basis set group =>   3
Atom  13C    basis set group =>   3
Atom  14C    basis set group =>   3
Atom  15C    basis set group =>   3
Atom  16C    basis set group =>   3
Atom  17C    basis set group =>   3
Atom  18H    basis set group =>   4
Atom  19H    basis set group =>   4
Atom  20H    basis set group =>   4
Atom  21H    basis set group =>   4
Atom  22H    basis set group =>   4
Atom  23H    basis set group =>   4
Atom  24H    basis set group =>   4
Atom  25H    basis set group =>   4
Atom  26H    basis set group =>   4
Atom  27H    basis set group =>   4
Atom  28H    basis set group =>   4
Atom  29H    basis set group =>   4
[1741409956.203206] [ohm:1540505:0]        ib_iface.c:1059 UCX  ERROR ibv_create_cq(cqe=256) failed: Connection timed out
[1741409956.215242] [ohm:1540503:0]        ib_iface.c:1059 UCX  ERROR ibv_create_cq(cqe=256) failed: Connection timed out
[1741409956.238382] [ohm:1540502:0]        ib_iface.c:1059 UCX  ERROR ibv_create_cq(cqe=256) failed: Connection timed out
[1741409956.239605] [ohm:1540504:0]        ib_iface.c:1059 UCX  ERROR ibv_create_cq(cqe=256) failed: Connection timed out
[1741409956.248028] [ohm:1540526:0]        ib_iface.c:1059 UCX  ERROR ibv_create_cq(cqe=256) failed: Connection timed out
[1741409956.250721] [ohm:1540519:0]        ib_iface.c:1059 UCX  ERROR ibv_create_cq(cqe=256) failed: Connection timed out
[1741409956.266712] [ohm:1540628:0]        ib_iface.c:1059 UCX  ERROR ibv_create_cq(cqe=256) failed: Connection timed out
[1741409956.275078] [ohm:1540523:0]        ib_iface.c:1059 UCX  ERROR ibv_create_cq(cqe=256) failed: Connection timed out
[1741409956.276937] [ohm:1540533:0]        ib_iface.c:1059 UCX  ERROR ibv_create_cq(cqe=256) failed: Connection timed out
[1741409956.285731] [ohm:1540511:0]        ib_iface.c:1059 UCX  ERROR ibv_create_cq(cqe=256) failed: Connection timed out
[1741409956.286038] [ohm:1540537:0]        ib_iface.c:1059 UCX  ERROR ibv_create_cq(cqe=256) failed: Connection timed out
[1741409956.330408] [ohm:1540516:0]        ib_iface.c:1059 UCX  ERROR ibv_create_cq(cqe=256) failed: Connection timed out
[1741409956.346892] [ohm:1540530:0]        ib_iface.c:1059 UCX  ERROR ibv_create_cq(cqe=256) failed: Connection timed out
[1741409956.356605] [ohm:1540507:0]        ib_iface.c:1059 UCX  ERROR ibv_create_cq(cqe=256) failed: Connection timed out
[1741409956.361426] [ohm:1540613:0]        ib_iface.c:1059 UCX  ERROR ibv_create_cq(cqe=256) failed: Connection timed out
[1741409956.362846] [ohm:1540540:0]        ib_iface.c:1059 UCX  ERROR ibv_create_cq(cqe=256) failed: Connection timed out
[1741409956.363221] [ohm:1540514:0]        ib_iface.c:1059 UCX  ERROR ibv_create_cq(cqe=256) failed: Connection timed out
[1741409956.369453] [ohm:1540508:0]        ib_iface.c:1059 UCX  ERROR ibv_create_cq(cqe=256) failed: Connection timed out
[1741409956.370642] [ohm:1540506:0]        ib_iface.c:1059 UCX  ERROR ibv_create_cq(cqe=256) failed: Connection timed out
[1741409956.390567] [ohm:1540513:0]        ib_iface.c:1059 UCX  ERROR ibv_create_cq(cqe=256) failed: Connection timed out
[1741409956.401386] [ohm:1540535:0]        ib_iface.c:1059 UCX  ERROR ibv_create_cq(cqe=256) failed: Connection timed out
[1741409956.416653] [ohm:1540509:0]        ib_iface.c:1059 UCX  ERROR ibv_create_cq(cqe=256) failed: Connection timed out
[1741409956.416718] [ohm:1540510:0]        ib_iface.c:1059 UCX  ERROR ibv_create_cq(cqe=256) failed: Connection timed out
[1741409956.429721] [ohm:1540641:0]        ib_iface.c:1059 UCX  ERROR ibv_create_cq(cqe=256) failed: Connection timed out
[1741409956.432962] [ohm:1540570:0]        ib_iface.c:1059 UCX  ERROR ibv_create_cq(cqe=256) failed: Connection timed out
[1741409956.434482] [ohm:1540575:0]        ib_iface.c:1059 UCX  ERROR ibv_create_cq(cqe=256) failed: Connection timed out
[1741409956.438851] [ohm:1540625:0]        ib_iface.c:1059 UCX  ERROR ibv_create_cq(cqe=256) failed: Connection timed out
[1741409956.440753] [ohm:1540605:0]        ib_iface.c:1059 UCX  ERROR ibv_create_cq(cqe=256) failed: Connection timed out
[1741409956.445757] [ohm:1540558:0]        ib_iface.c:1059 UCX  ERROR ibv_create_cq(cqe=256) failed: Connection timed out
[1741409956.446443] [ohm:1540542:0]        ib_iface.c:1059 UCX  ERROR ibv_create_cq(cqe=256) failed: Connection timed out
[1741409956.454308] [ohm:1540653:0]        ib_iface.c:1059 UCX  ERROR ibv_create_cq(cqe=256) failed: Connection timed out
[1741409956.474097] [ohm:1540553:0]        ib_iface.c:1059 UCX  ERROR ibv_create_cq(cqe=256) failed: Connection timed out
[1741409956.478408] [ohm:1540547:0]        ib_iface.c:1059 UCX  ERROR ibv_create_cq(cqe=256) failed: Connection timed out
[1741409956.478880] [ohm:1540636:0]        ib_iface.c:1059 UCX  ERROR ibv_create_cq(cqe=256) failed: Connection timed out
[1741409956.489114] [ohm:1540551:0]        ib_iface.c:1059 UCX  ERROR ibv_create_cq(cqe=256) failed: Connection timed out
[1741409956.495852] [ohm:1540579:0]        ib_iface.c:1059 UCX  ERROR ibv_create_cq(cqe=256) failed: Connection timed out
[1741409956.497320] [ohm:1540601:0]        ib_iface.c:1059 UCX  ERROR ibv_create_cq(cqe=256) failed: Connection timed out
[1741409956.499421] [ohm:1540550:0]        ib_iface.c:1059 UCX  ERROR ibv_create_cq(cqe=256) failed: Connection timed out
[1741409956.504243] [ohm:1540557:0]        ib_iface.c:1059 UCX  ERROR ibv_create_cq(cqe=256) failed: Connection timed out
[1741409956.504411] [ohm:1540544:0]        ib_iface.c:1059 UCX  ERROR ibv_create_cq(cqe=256) failed: Connection timed out
[1741409956.508448] [ohm:1540607:0]        ib_iface.c:1059 UCX  ERROR ibv_create_cq(cqe=256) failed: Connection timed out
[1741409956.519220] [ohm:1540610:0]        ib_iface.c:1059 UCX  ERROR ibv_create_cq(cqe=256) failed: Connection timed out
[1741409956.519704] [ohm:1540548:0]        ib_iface.c:1059 UCX  ERROR ibv_create_cq(cqe=256) failed: Connection timed out
[1741409956.526931] [ohm:1540621:0]        ib_iface.c:1059 UCX  ERROR ibv_create_cq(cqe=256) failed: Connection timed out
[1741409956.528719] [ohm:1540525:0]        ib_iface.c:1059 UCX  ERROR ibv_create_cq(cqe=256) failed: Connection timed out
[1741409956.529866] [ohm:1540602:0]        ib_iface.c:1059 UCX  ERROR ibv_create_cq(cqe=256) failed: Connection timed out
[1741409956.531239] [ohm:1540555:0]        ib_iface.c:1059 UCX  ERROR ibv_create_cq(cqe=256) failed: Connection timed out
[1741409956.531882] [ohm:1540593:0]        ib_iface.c:1059 UCX  ERROR ibv_create_cq(cqe=256) failed: Connection timed out
[1741409956.533922] [ohm:1540556:0]        ib_iface.c:1059 UCX  ERROR ibv_create_cq(cqe=256) failed: Connection timed out
[1741409956.534294] [ohm:1540562:0]        ib_iface.c:1059 UCX  ERROR ibv_create_cq(cqe=256) failed: Connection timed out
[1741409956.534364] [ohm:1540633:0]        ib_iface.c:1059 UCX  ERROR ibv_create_cq(cqe=256) failed: Connection timed out
[1741409956.535540] [ohm:1540648:0]        ib_iface.c:1059 UCX  ERROR ibv_create_cq(cqe=256) failed: Connection timed out
[1741409956.538338] [ohm:1540584:0]        ib_iface.c:1059 UCX  ERROR ibv_create_cq(cqe=256) failed: Connection timed out
[1741409956.538310] [ohm:1540596:0]        ib_iface.c:1059 UCX  ERROR ibv_create_cq(cqe=256) failed: Connection timed out
[1741409956.546126] [ohm:1540650:0]        ib_iface.c:1059 UCX  ERROR ibv_create_cq(cqe=256) failed: Connection timed out
[1741409956.546182] [ohm:1540618:0]        ib_iface.c:1059 UCX  ERROR ibv_create_cq(cqe=256) failed: Connection timed out
[1741409956.548035] [ohm:1540566:0]        ib_iface.c:1059 UCX  ERROR ibv_create_cq(cqe=256) failed: Connection timed out
[1741409956.550003] [ohm:1540527:0]        ib_iface.c:1059 UCX  ERROR ibv_create_cq(cqe=256) failed: Connection timed out
[1741409956.551557] [ohm:1540529:0]        ib_iface.c:1059 UCX  ERROR ibv_create_cq(cqe=256) failed: Connection timed out
[1741409956.551868] [ohm:1540560:0]        ib_iface.c:1059 UCX  ERROR ibv_create_cq(cqe=256) failed: Connection timed out
[1741409956.552208] [ohm:1540552:0]        ib_iface.c:1059 UCX  ERROR ibv_create_cq(cqe=256) failed: Connection timed out
[1741409956.552766] [ohm:1540588:0]        ib_iface.c:1059 UCX  ERROR ibv_create_cq(cqe=256) failed: Connection timed out
[1741409956.553038] [ohm:1540644:0]        ib_iface.c:1059 UCX  ERROR ibv_create_cq(cqe=256) failed: Connection timed out
[1741409956.553273] [ohm:1540554:0]        ib_iface.c:1059 UCX  ERROR ibv_create_cq(cqe=256) failed: Connection timed out


           ************************************************************
           *        Program running with 64 parallel MPI-processes    *
           *              working on a common directory               *
           ************************************************************
------------------------------------------------------------------------------
                             ORCA STARTUP CALCULATIONS
                           -- RI-GTO INTEGRALS CHOSEN --
------------------------------------------------------------------------------
------------------------------------------------------------------------------
                   ___                                                        
                  /   \      - P O W E R E D   B Y -                         
                 /     \                                                     
                 |  |  |   _    _      __       _____    __    __             
                 |  |  |  | |  | |    /  \     |  _  \  |  |  /  |          
                  \  \/   | |  | |   /    \    | | | |  |  | /  /          
                 / \  \   | |__| |  /  /\  \   | |_| |  |  |/  /          
                |  |  |   |  __  | /  /__\  \  |    /   |      \           
                |  |  |   | |  | | |   __   |  |    \   |  |\   \          
                \     /   | |  | | |  |  |  |  | |\  \  |  | \   \       
                 \___/    |_|  |_| |__|  |__|  |_| \__\ |__|  \__/        
                                                                              
                      - O R C A' S   B I G   F R I E N D -                    
                                      &                                       
                       - I N T E G R A L  F E E D E R -                       
                                                                              
 v1 FN, 2020, v2 2021, v3 2022-2024                                           
------------------------------------------------------------------------------


----------------------
SHARK INTEGRAL PACKAGE
----------------------

Number of atoms                             ...     30
Number of basis functions                   ...    882
Number of shells                            ...    322
Maximum angular momentum                    ...      3
Integral batch strategy                     ... SHARK/LIBINT Hybrid
RI-J (if used) integral strategy            ... SPLIT-RIJ (Revised 2003 algorithm where possible)
Printlevel                                  ...      1
Contraction scheme used                     ... SEGMENTED contraction
Prescreening option                         ... SCHWARTZ
   Thresh                                   ... 2.500e-11
   Tcut                                     ... 2.500e-12
   Tpresel                                  ... 2.500e-12 
Coulomb Range Separation                    ... NOT USED
Exchange Range Separation                   ... Long Range
   Mu parameter                             ... 3.000e-01
   Scaling (regular/separated)              ... 1.500e-01 8.500e-01
Multipole approximations                    ... NOT USED
Finite Nucleus Model                        ... NOT USED
CABS basis                                  ... NOT available
Auxiliary Coulomb fitting basis             ... AVAILABLE
   # of basis functions in Aux-J            ...   1014
   # of shells in Aux-J                     ...    330
   Maximum angular momentum in Aux-J        ...      4
Auxiliary J/K fitting basis                 ... NOT available
Auxiliary Correlation fitting basis         ... NOT available
Auxiliary 'external' fitting basis          ... NOT available

Checking pre-screening integrals            ... done (  0.0 sec) Dimension = 322
Check shell pair data                       ... done (  0.0 sec)
Shell pair information
Shell pair cut-off parameter TPreSel        ...   2.5e-12
Total number of shell pairs                 ...     52003
Shell pairs after pre-screening             ...     44319
Total number of primitive shell pairs       ...    129718
Primitive shell pairs kept                  ...     82541
          la=0 lb=0:   8599 shell pairs
          la=1 lb=0:  11771 shell pairs
          la=1 lb=1:   4076 shell pairs
          la=2 lb=0:   7960 shell pairs
          la=2 lb=1:   5503 shell pairs
          la=2 lb=2:   1885 shell pairs
          la=3 lb=0:   2001 shell pairs
          la=3 lb=1:   1429 shell pairs
          la=3 lb=2:    966 shell pairs
          la=3 lb=3:    129 shell pairs

Calculating one electron integrals          ... done (  0.2 sec)
Calculating RI/J V-Matrix + Cholesky decomp.... done (  0.1 sec)
Calculating Nuclear repulsion               ... done (  0.0 sec) ENN=   1405.429322643731 Eh

Diagonalization of the overlap matrix:
Smallest eigenvalue                        ... 6.355e-07
Time for diagonalization                   ...    0.124 sec
Threshold for overlap eigenvalues          ... 1.000e-07
Number of eigenvalues below threshold      ... 0

IMPORTANT:
Smallest eigenvalue of S below the DiffSThresh (1.000e-06) while
Thresh>1e-12 and/or TCut>1e-13! In order to avoid SCF convergence issues,
Thresh will be set to at least 1e-12 and TCut to at least 1e-13.
This can be turned off by adding %SCF DiffSThresh -1 END to the input.

Time for construction of square roots      ...    0.138 sec
Total time needed                          ...    0.278 sec

-------------------
DFT GRID GENERATION
-------------------

General Integration Accuracy     IntAcc      ... 4.388
Radial Grid Type                 RadialGrid  ... OptM3 with GC (2021)
Angular Grid (max. ang.)         AngularGrid ... 4 (Lebedev-302)
Angular grid pruning method      GridPruning ... 4 (adaptive)
Weight generation scheme         WeightScheme... mBecke (2022)
Basis function cutoff            BFCut       ... 1.0000e-11
Integration weight cutoff        WCut        ... 1.0000e-14
Partially contracted basis set               ... off
Rotationally invariant grid construction     ... off
Angular grids for H and He will be reduced by one unit
Diffuse basis detected: some atoms will have their outermost
                        angular grid increased by 1.

Total number of grid points                  ...   152120
Total number of batches                      ...     2395
Average number of points per batch           ...       63
Average number of grid points per atom       ...     5071

--------------------
COSX GRID GENERATION
--------------------

GRIDX 1
-------
General Integration Accuracy     IntAcc      ... 3.816
Radial Grid Type                 RadialGrid  ... OptM3 with GC (2021)
Angular Grid (max. ang.)         AngularGrid ... 1 (Lebedev-50)
Angular grid pruning method      GridPruning ... 4 (adaptive)
Weight generation scheme         WeightScheme... mBecke (2022)
Basis function cutoff            BFCut       ... 1.0000e-11
Integration weight cutoff        WCut        ... 1.0000e-14
Partially contracted basis set               ... on
Rotationally invariant grid construction     ... off
Angular grids for H and He will be reduced by one unit
Diffuse basis detected: some atoms will have their outermost
                        angular grid increased by 1.

Total number of grid points                  ...    19045
Total number of batches                      ...      166
Average number of points per batch           ...      114
Average number of grid points per atom       ...      635
UseSFitting                                  ... on

GRIDX 2
-------
General Integration Accuracy     IntAcc      ... 4.020
Radial Grid Type                 RadialGrid  ... OptM3 with GC (2021)
Angular Grid (max. ang.)         AngularGrid ... 2 (Lebedev-110)
Angular grid pruning method      GridPruning ... 4 (adaptive)
Weight generation scheme         WeightScheme... mBecke (2022)
Basis function cutoff            BFCut       ... 1.0000e-11
Integration weight cutoff        WCut        ... 1.0000e-14
Partially contracted basis set               ... on
Rotationally invariant grid construction     ... off
Angular grids for H and He will be reduced by one unit
Diffuse basis detected: some atoms will have their outermost
                        angular grid increased by 1.

Total number of grid points                  ...    46024
Total number of batches                      ...      376
Average number of points per batch           ...      122
Average number of grid points per atom       ...     1534
UseSFitting                                  ... on

GRIDX 3
-------
General Integration Accuracy     IntAcc      ... 4.338
Radial Grid Type                 RadialGrid  ... OptM3 with GC (2021)
Angular Grid (max. ang.)         AngularGrid ... 3 (Lebedev-194)
Angular grid pruning method      GridPruning ... 4 (adaptive)
Weight generation scheme         WeightScheme... mBecke (2022)
Basis function cutoff            BFCut       ... 1.0000e-11
Integration weight cutoff        WCut        ... 1.0000e-14
Partially contracted basis set               ... on
Rotationally invariant grid construction     ... off
Angular grids for H and He will be reduced by one unit
Diffuse basis detected: some atoms will have their outermost
                        angular grid increased by 1.

Total number of grid points                  ...   101264
Total number of batches                      ...      806
Average number of points per batch           ...      125
Average number of grid points per atom       ...     3375
UseSFitting                                  ... on
Initializing property integral containers    ... done (  0.0 sec)

SHARK setup successfully completed in   4.1 seconds

Maximum memory used throughout the entire STARTUP-calculation: 79.2 MB
[1741409962.430471] [ohm:1540862:0]        ib_iface.c:1059 UCX  ERROR ibv_create_cq(cqe=256) failed: Connection timed out
[1741409962.431448] [ohm:1540864:0]        ib_iface.c:1059 UCX  ERROR ibv_create_cq(cqe=256) failed: Connection timed out
[1741409962.444939] [ohm:1540859:0]        ib_iface.c:1059 UCX  ERROR ibv_create_cq(cqe=256) failed: Connection timed out
[1741409962.455929] [ohm:1540858:0]        ib_iface.c:1059 UCX  ERROR ibv_create_cq(cqe=256) failed: Connection timed out
[1741409962.521526] [ohm:1540865:0]        ib_iface.c:1059 UCX  ERROR ibv_create_cq(cqe=256) failed: Connection timed out
[1741409962.522590] [ohm:1540878:0]        ib_iface.c:1059 UCX  ERROR ibv_create_cq(cqe=256) failed: Connection timed out
[1741409962.534397] [ohm:1540885:0]        ib_iface.c:1059 UCX  ERROR ibv_create_cq(cqe=256) failed: Connection timed out
[1741409962.536526] [ohm:1540880:0]        ib_iface.c:1059 UCX  ERROR ibv_create_cq(cqe=256) failed: Connection timed out
[1741409962.540804] [ohm:1540860:0]        ib_iface.c:1059 UCX  ERROR ibv_create_cq(cqe=256) failed: Connection timed out
[1741409962.551756] [ohm:1540908:0]        ib_iface.c:1059 UCX  ERROR ibv_create_cq(cqe=256) failed: Connection timed out
[1741409962.562276] [ohm:1540902:0]        ib_iface.c:1059 UCX  ERROR ibv_create_cq(cqe=256) failed: Connection timed out
[1741409962.580976] [ohm:1540888:0]        ib_iface.c:1059 UCX  ERROR ibv_create_cq(cqe=256) failed: Connection timed out
[1741409962.598228] [ohm:1540906:0]        ib_iface.c:1059 UCX  ERROR ibv_create_cq(cqe=256) failed: Connection timed out
[1741409962.600769] [ohm:1540942:0]        ib_iface.c:1059 UCX  ERROR ibv_create_cq(cqe=256) failed: Connection timed out
[1741409962.603761] [ohm:1540863:0]        ib_iface.c:1059 UCX  ERROR ibv_create_cq(cqe=256) failed: Connection timed out
[1741409962.611815] [ohm:1540969:0]        ib_iface.c:1059 UCX  ERROR ibv_create_cq(cqe=256) failed: Connection timed out
[1741409962.648248] [ohm:1540882:0]        ib_iface.c:1059 UCX  ERROR ibv_create_cq(cqe=256) failed: Connection timed out
[1741409962.649057] [ohm:1540915:0]        ib_iface.c:1059 UCX  ERROR ibv_create_cq(cqe=256) failed: Connection timed out
[1741409962.651828] [ohm:1540884:0]        ib_iface.c:1059 UCX  ERROR ibv_create_cq(cqe=256) failed: Connection timed out
[1741409962.656210] [ohm:1540926:0]        ib_iface.c:1059 UCX  ERROR ibv_create_cq(cqe=256) failed: Connection timed out
[1741409962.659673] [ohm:1540912:0]        ib_iface.c:1059 UCX  ERROR ibv_create_cq(cqe=256) failed: Connection timed out
[1741409962.671133] [ohm:1540866:0]        ib_iface.c:1059 UCX  ERROR ibv_create_cq(cqe=256) failed: Connection timed out
[1741409962.678356] [ohm:1540991:0]        ib_iface.c:1059 UCX  ERROR ibv_create_cq(cqe=256) failed: Connection timed out
[1741409962.689094] [ohm:1540881:0]        ib_iface.c:1059 UCX  ERROR ibv_create_cq(cqe=256) failed: Connection timed out
[1741409962.689604] [ohm:1540914:0]        ib_iface.c:1059 UCX  ERROR ibv_create_cq(cqe=256) failed: Connection timed out
[1741409962.696855] [ohm:1540899:0]        ib_iface.c:1059 UCX  ERROR ibv_create_cq(cqe=256) failed: Connection timed out
[1741409962.701498] [ohm:1540933:0]        ib_iface.c:1059 UCX  ERROR ibv_create_cq(cqe=256) failed: Connection timed out
[1741409962.701752] [ohm:1540903:0]        ib_iface.c:1059 UCX  ERROR ibv_create_cq(cqe=256) failed: Connection timed out
[1741409962.706912] [ohm:1540963:0]        ib_iface.c:1059 UCX  ERROR ibv_create_cq(cqe=256) failed: Connection timed out
[1741409962.708182] [ohm:1540907:0]        ib_iface.c:1059 UCX  ERROR ibv_create_cq(cqe=256) failed: Connection timed out
[1741409962.709341] [ohm:1540909:0]        ib_iface.c:1059 UCX  ERROR ibv_create_cq(cqe=256) failed: Connection timed out
[1741409962.728299] [ohm:1540927:0]        ib_iface.c:1059 UCX  ERROR ibv_create_cq(cqe=256) failed: Connection timed out
[1741409962.728351] [ohm:1540976:0]        ib_iface.c:1059 UCX  ERROR ibv_create_cq(cqe=256) failed: Connection timed out
[1741409962.729546] [ohm:1541007:0]        ib_iface.c:1059 UCX  ERROR ibv_create_cq(cqe=256) failed: Connection timed out
[1741409962.730320] [ohm:1541001:0]        ib_iface.c:1059 UCX  ERROR ibv_create_cq(cqe=256) failed: Connection timed out
[1741409962.736658] [ohm:1540935:0]        ib_iface.c:1059 UCX  ERROR ibv_create_cq(cqe=256) failed: Connection timed out
[1741409962.738678] [ohm:1540980:0]        ib_iface.c:1059 UCX  ERROR ibv_create_cq(cqe=256) failed: Connection timed out
[1741409962.741543] [ohm:1540949:0]        ib_iface.c:1059 UCX  ERROR ibv_create_cq(cqe=256) failed: Connection timed out
[1741409962.750646] [ohm:1540966:0]        ib_iface.c:1059 UCX  ERROR ibv_create_cq(cqe=256) failed: Connection timed out
[1741409962.754982] [ohm:1540867:0]        ib_iface.c:1059 UCX  ERROR ibv_create_cq(cqe=256) failed: Connection timed out
[1741409962.758152] [ohm:1540883:0]        ib_iface.c:1059 UCX  ERROR ibv_create_cq(cqe=256) failed: Connection timed out
[1741409962.761145] [ohm:1540984:0]        ib_iface.c:1059 UCX  ERROR ibv_create_cq(cqe=256) failed: Connection timed out
[1741409962.765524] [ohm:1540990:0]        ib_iface.c:1059 UCX  ERROR ibv_create_cq(cqe=256) failed: Connection timed out
[1741409962.767663] [ohm:1540919:0]        ib_iface.c:1059 UCX  ERROR ibv_create_cq(cqe=256) failed: Connection timed out
[1741409962.770026] [ohm:1540910:0]        ib_iface.c:1059 UCX  ERROR ibv_create_cq(cqe=256) failed: Connection timed out
[1741409962.772180] [ohm:1540897:0]        ib_iface.c:1059 UCX  ERROR ibv_create_cq(cqe=256) failed: Connection timed out
[1741409962.774682] [ohm:1540959:0]        ib_iface.c:1059 UCX  ERROR ibv_create_cq(cqe=256) failed: Connection timed out
[1741409962.784098] [ohm:1540952:0]        ib_iface.c:1059 UCX  ERROR ibv_create_cq(cqe=256) failed: Connection timed out
[1741409962.785414] [ohm:1540911:0]        ib_iface.c:1059 UCX  ERROR ibv_create_cq(cqe=256) failed: Connection timed out
[1741409962.787015] [ohm:1540944:0]        ib_iface.c:1059 UCX  ERROR ibv_create_cq(cqe=256) failed: Connection timed out
[1741409962.790373] [ohm:1540957:0]        ib_iface.c:1059 UCX  ERROR ibv_create_cq(cqe=256) failed: Connection timed out
[1741409962.792227] [ohm:1540921:0]        ib_iface.c:1059 UCX  ERROR ibv_create_cq(cqe=256) failed: Connection timed out
[1741409962.793775] [ohm:1540861:0]        ib_iface.c:1059 UCX  ERROR ibv_create_cq(cqe=256) failed: Connection timed out
[1741409962.794685] [ohm:1541003:0]        ib_iface.c:1059 UCX  ERROR ibv_create_cq(cqe=256) failed: Connection timed out
[1741409962.795614] [ohm:1540996:0]        ib_iface.c:1059 UCX  ERROR ibv_create_cq(cqe=256) failed: Connection timed out
[1741409962.795822] [ohm:1540879:0]        ib_iface.c:1059 UCX  ERROR ibv_create_cq(cqe=256) failed: Connection timed out
[1741409962.797776] [ohm:1540971:0]        ib_iface.c:1059 UCX  ERROR ibv_create_cq(cqe=256) failed: Connection timed out
[1741409962.798078] [ohm:1540886:0]        ib_iface.c:1059 UCX  ERROR ibv_create_cq(cqe=256) failed: Connection timed out
[1741409962.799047] [ohm:1540890:0]        ib_iface.c:1059 UCX  ERROR ibv_create_cq(cqe=256) failed: Connection timed out
[1741409962.799065] [ohm:1540905:0]        ib_iface.c:1059 UCX  ERROR ibv_create_cq(cqe=256) failed: Connection timed out
[1741409962.800942] [ohm:1540896:0]        ib_iface.c:1059 UCX  ERROR ibv_create_cq(cqe=256) failed: Connection timed out
[1741409962.801142] [ohm:1540993:0]        ib_iface.c:1059 UCX  ERROR ibv_create_cq(cqe=256) failed: Connection timed out
[1741409962.801802] [ohm:1540975:0]        ib_iface.c:1059 UCX  ERROR ibv_create_cq(cqe=256) failed: Connection timed out
[1741409962.802150] [ohm:1540891:0]        ib_iface.c:1059 UCX  ERROR ibv_create_cq(cqe=256) failed: Connection timed out


           ************************************************************
           *        Program running with 64 parallel MPI-processes    *
           *              working on a common directory               *
           ************************************************************
-------------------------------------------------------------------------------
                                 ORCA GUESS
                   Start orbitals & Density for SCF / CASSCF
-------------------------------------------------------------------------------

------------
SCF SETTINGS
------------
Hamiltonian:
 Density Functional     Method          .... DFT(GTOs)
  Functional kind                       .... Exchange-Correlation
  Functional name                       .... wB97M-V exchange-correlation functional
  Functional family                     .... Hybrid MGGA
  Functional refs                              
    [ 0] N. Mardirossian and M. Head-Gordon.,  J. Chem. Phys. 144, 214110 (2016), doi: 10.1063/1.4952647
  Fraction of HF Exchange (short range) .... 0.1500
  Fraction of HF Exchange (long range)  .... 1.0000
  Range separation parameter mu         .... 0.3000
  Functional external parameters        .... 17
    Parameter  0 _cx00      =  8.500000e-01 : u^00 coefficient for exchange
    Parameter  1 _cx01      =  1.007000e+00 : u^01 coefficient for exchange
    Parameter  2 _cx10      =  2.590000e-01 : u^10 coefficient for exchange
    Parameter  3 _css00     =  4.430000e-01 : u^00 coefficient for same-spin correlation
    Parameter  4 _css04     = -1.437000e+00 : u^04 coefficient for same-spin correlation
    Parameter  5 _css10     = -4.535000e+00 : u^10 coefficient for same-spin correlation
    Parameter  6 _css20     = -3.390000e+00 : u^20 coefficient for same-spin correlation
    Parameter  7 _css43     =  4.278000e+00 : u^43 coefficient for same-spin correlation
    Parameter  8 _cos00     =  1.000000e+00 : u^00 coefficient for opposite-spin correlation
    Parameter  9 _cos10     =  1.358000e+00 : u^10 coefficient for opposite-spin correlation
    Parameter 10 _cos20     =  2.924000e+00 : u^20 coefficient for opposite-spin correlation
    Parameter 11 _cos21     = -8.812000e+00 : u^21 coefficient for opposite-spin correlation
    Parameter 12 _cos60     = -1.390000e+00 : u^60 coefficient for opposite-spin correlation
    Parameter 13 _cos61     =  9.142000e+00 : u^61 coefficient for opposite-spin correlation
    Parameter 14 _alpha     =  1.000000e+00 : fraction of HF exchange
    Parameter 15 _beta      = -8.500000e-01 : fraction of short-range exchange
    Parameter 16 _omega     =  3.000000e-01 : range-separation constant
 Long-range corrected/Screened/Range-Separated Hybrid DFT is turned on
   Amount of maximum screened exact exchange              ....  0.850000
   Range separation parameter mu (erf(mu*r12)/r12)        ....  0.300000
 RI-approximation to the Coulomb term is turned on
   Number of AuxJ basis functions       .... 1014
   RIJ-COSX (HFX calculated with COS-X)).... on


General Settings:
 Integral files         IntName         .... orca
 Hartree-Fock type      HFTyp           .... UHF
 Total Charge           Charge          ....    0
 Multiplicity           Mult            ....    3
 Number of Electrons    NEL             ....  132
 Basis Dimension        Dim             ....  882
 Nuclear Repulsion      ENuc            ....   1405.4293226437 Eh

Convergence Acceleration:
 AO-DIIS                CNVDIIS         .... on
   Start iteration      DIISMaxIt       ....    12
   Startup error        DIISStart       ....  0.200000
   # of expansion vecs  DIISMaxEq       ....     5
   Bias factor          DIISBfac        ....   1.050
   Max. coefficient     DIISMaxC        ....  10.000
 MO-DIIS                CNVKDIIS        .... off
 Trust-Rad. Augm. Hess. CNVTRAH         .... auto
   Auto Start mean grad. ratio tolernc. ....  1.125000
   Auto Start start iteration           ....    50
   Auto Start num. interpolation iter.  ....    10
   Max. Number of Micro iterations      ....    24
   Max. Number of Macro iterations      .... Maxiter - #DIIS iter
   Number of Davidson start vectors     ....     2
   Converg. threshold    (grad. norm)   ....   1.000e-05
   Grad. Scal. Fac. for Micro threshold ....   0.100
   Minimum threshold for Micro iter.    ....   1.000e-02
   NR start threshold (gradient norm)   ....   1.000e-04
   Initial trust radius                 ....   0.400
   Minimum AH scaling param. (alpha)    ....   1.000
   Maximum AH scaling param. (alpha)    .... 1000.000
   Quad. conv. algorithm                .... NR
   White noise on init. David. guess    .... on
   Maximum white noise                  ....   0.010
   Pseudo random numbers                .... off
   Inactive MOs                         .... canonical
   Orbital update algorithm             .... Taylor
   Preconditioner                       .... Diag
   Full preconditioner red. dimension   ....   250
 SOSCF                  CNVSOSCF        .... on
   Start iteration      SOSCFMaxIt      ....   150
   Startup grad/error   SOSCFStart      ....  0.003300
   Hessian update       SOSCFHessUp     .... L-BFGS
 Level Shifting         CNVShift        .... on
   Level shift para.    LevelShift      ....    0.2500
   Turn off err/grad.   ShiftErr        ....    0.0010
 Zerner damping         CNVZerner       .... off
 Static damping         CNVDamp         .... on
   Fraction old density DampFac         ....    0.7000
   Max. Damping (<1)    DampMax         ....    0.9800
   Min. Damping (>=0)   DampMin         ....    0.0000
   Turn off err/grad.   DampErr         ....    0.1000

SCF Procedure:
 Maximum # iterations   MaxIter         ....   125
 SCF integral mode      SCFMode         .... Direct
   Integral package                     .... SHARK and LIBINT hybrid scheme
 Reset frequency        DirectResetFreq ....    20
 Integral Threshold     Thresh          ....  1.000e-12 Eh
 Primitive CutOff       TCut            ....  1.000e-13 Eh

Convergence Tolerance:
 Convergence Check Mode ConvCheckMode   .... Total+1el-Energy
 Convergence forced     ConvForced      .... 1
 Energy Change          TolE            ....  1.000e-08 Eh
 1-El. energy change                    ....  1.000e-05 Eh
 Orbital Gradient       TolG            ....  1.000e-05
 Orbital Rotation angle TolX            ....  1.000e-05
 DIIS Error             TolErr          ....  5.000e-07

------------------------------
INITIAL GUESS: MODEL POTENTIAL
------------------------------
Loading Hartree-Fock densities                     ... done
Calculating cut-offs                               ... done
Initializing the effective Hamiltonian             ... done
Setting up the integral package (SHARK)            ... done
Starting the Coulomb interaction                   ... done (   0.1 sec)
Making the grid                                    ... done (   0.2 sec)
Mapping shells                                     ... done
Starting the XC term evaluation                    ... done (   0.1 sec)
  promolecular density results
     # of electrons  =    132.001429688
     EX              =   -113.574789445
     EC              =     -4.494856137
     EX+EC           =   -118.069645582
Transforming the Hamiltonian                       ... done (   0.1 sec)
Diagonalizing the Hamiltonian                      ... done (   0.1 sec)
Back transforming the eigenvectors                 ... done (   0.1 sec)
Now organizing SCF variables                       ... done
                      ------------------
                      INITIAL GUESS DONE (   1.1 sec)
                      ------------------
             **** ENERGY FILE WAS UPDATED (orca.en.tmp) ****
Finished Guess after   3.5 sec
Maximum memory used throughout the entire GUESS-calculation: 71.4 MB
[1741409966.604368] [ohm:1541215:0]        ib_iface.c:1059 UCX  ERROR ibv_create_cq(cqe=256) failed: Connection timed out
[1741409966.610011] [ohm:1541213:0]        ib_iface.c:1059 UCX  ERROR ibv_create_cq(cqe=256) failed: Connection timed out
[1741409966.613377] [ohm:1541212:0]        ib_iface.c:1059 UCX  ERROR ibv_create_cq(cqe=256) failed: Connection timed out
[1741409966.615516] [ohm:1541217:0]        ib_iface.c:1059 UCX  ERROR ibv_create_cq(cqe=256) failed: Connection timed out
[1741409966.627480] [ohm:1541211:0]        ib_iface.c:1059 UCX  ERROR ibv_create_cq(cqe=256) failed: Connection timed out
[1741409966.633017] [ohm:1541210:0]        ib_iface.c:1059 UCX  ERROR ibv_create_cq(cqe=256) failed: Connection timed out
[1741409966.635921] [ohm:1541214:0]        ib_iface.c:1059 UCX  ERROR ibv_create_cq(cqe=256) failed: Connection timed out
[1741409966.665225] [ohm:1541251:0]        ib_iface.c:1059 UCX  ERROR ibv_create_cq(cqe=256) failed: Connection timed out
[1741409966.668108] [ohm:1541218:0]        ib_iface.c:1059 UCX  ERROR ibv_create_cq(cqe=256) failed: Connection timed out
[1741409966.683213] [ohm:1541233:0]        ib_iface.c:1059 UCX  ERROR ibv_create_cq(cqe=256) failed: Connection timed out
[1741409966.688233] [ohm:1541248:0]        ib_iface.c:1059 UCX  ERROR ibv_create_cq(cqe=256) failed: Connection timed out
[1741409966.705583] [ohm:1541216:0]        ib_iface.c:1059 UCX  ERROR ibv_create_cq(cqe=256) failed: Connection timed out
[1741409966.713410] [ohm:1541271:0]        ib_iface.c:1059 UCX  ERROR ibv_create_cq(cqe=256) failed: Connection timed out
[1741409966.727190] [ohm:1541235:0]        ib_iface.c:1059 UCX  ERROR ibv_create_cq(cqe=256) failed: Connection timed out
[1741409966.734548] [ohm:1541234:0]        ib_iface.c:1059 UCX  ERROR ibv_create_cq(cqe=256) failed: Connection timed out
[1741409966.738423] [ohm:1541220:0]        ib_iface.c:1059 UCX  ERROR ibv_create_cq(cqe=256) failed: Connection timed out
[1741409966.747696] [ohm:1541219:0]        ib_iface.c:1059 UCX  ERROR ibv_create_cq(cqe=256) failed: Connection timed out
[1741409966.754852] [ohm:1541237:0]        ib_iface.c:1059 UCX  ERROR ibv_create_cq(cqe=256) failed: Connection timed out
[1741409966.757910] [ohm:1541241:0]        ib_iface.c:1059 UCX  ERROR ibv_create_cq(cqe=256) failed: Connection timed out
[1741409966.770296] [ohm:1541263:0]        ib_iface.c:1059 UCX  ERROR ibv_create_cq(cqe=256) failed: Connection timed out
[1741409966.793086] [ohm:1541275:0]        ib_iface.c:1059 UCX  ERROR ibv_create_cq(cqe=256) failed: Connection timed out
[1741409966.798025] [ohm:1541294:0]        ib_iface.c:1059 UCX  ERROR ibv_create_cq(cqe=256) failed: Connection timed out
[1741409966.801157] [ohm:1541231:0]        ib_iface.c:1059 UCX  ERROR ibv_create_cq(cqe=256) failed: Connection timed out
[1741409966.804055] [ohm:1541255:0]        ib_iface.c:1059 UCX  ERROR ibv_create_cq(cqe=256) failed: Connection timed out
[1741409966.806700] [ohm:1541226:0]        ib_iface.c:1059 UCX  ERROR ibv_create_cq(cqe=256) failed: Connection timed out
[1741409966.807750] [ohm:1541236:0]        ib_iface.c:1059 UCX  ERROR ibv_create_cq(cqe=256) failed: Connection timed out
[1741409966.815659] [ohm:1541337:0]        ib_iface.c:1059 UCX  ERROR ibv_create_cq(cqe=256) failed: Connection timed out
[1741409966.816476] [ohm:1541222:0]        ib_iface.c:1059 UCX  ERROR ibv_create_cq(cqe=256) failed: Connection timed out
[1741409966.818916] [ohm:1541229:0]        ib_iface.c:1059 UCX  ERROR ibv_create_cq(cqe=256) failed: Connection timed out
[1741409966.823201] [ohm:1541245:0]        ib_iface.c:1059 UCX  ERROR ibv_create_cq(cqe=256) failed: Connection timed out
[1741409966.824699] [ohm:1541269:0]        ib_iface.c:1059 UCX  ERROR ibv_create_cq(cqe=256) failed: Connection timed out
[1741409966.859493] [ohm:1541258:0]        ib_iface.c:1059 UCX  ERROR ibv_create_cq(cqe=256) failed: Connection timed out
[1741409966.863174] [ohm:1541221:0]        ib_iface.c:1059 UCX  ERROR ibv_create_cq(cqe=256) failed: Connection timed out
[1741409966.870077] [ohm:1541306:0]        ib_iface.c:1059 UCX  ERROR ibv_create_cq(cqe=256) failed: Connection timed out
[1741409966.872057] [ohm:1541227:0]        ib_iface.c:1059 UCX  ERROR ibv_create_cq(cqe=256) failed: Connection timed out
[1741409966.876207] [ohm:1541278:0]        ib_iface.c:1059 UCX  ERROR ibv_create_cq(cqe=256) failed: Connection timed out
[1741409966.880021] [ohm:1541302:0]        ib_iface.c:1059 UCX  ERROR ibv_create_cq(cqe=256) failed: Connection timed out
[1741409966.881165] [ohm:1541224:0]        ib_iface.c:1059 UCX  ERROR ibv_create_cq(cqe=256) failed: Connection timed out
[1741409966.881223] [ohm:1541230:0]        ib_iface.c:1059 UCX  ERROR ibv_create_cq(cqe=256) failed: Connection timed out
[1741409966.882909] [ohm:1541286:0]        ib_iface.c:1059 UCX  ERROR ibv_create_cq(cqe=256) failed: Connection timed out
[1741409966.886011] [ohm:1541232:0]        ib_iface.c:1059 UCX  ERROR ibv_create_cq(cqe=256) failed: Connection timed out
[1741409966.891208] [ohm:1541331:0]        ib_iface.c:1059 UCX  ERROR ibv_create_cq(cqe=256) failed: Connection timed out
[1741409966.894677] [ohm:1541349:0]        ib_iface.c:1059 UCX  ERROR ibv_create_cq(cqe=256) failed: Connection timed out
[1741409966.895046] [ohm:1541223:0]        ib_iface.c:1059 UCX  ERROR ibv_create_cq(cqe=256) failed: Connection timed out
[1741409966.902643] [ohm:1541225:0]        ib_iface.c:1059 UCX  ERROR ibv_create_cq(cqe=256) failed: Connection timed out
[1741409966.911717] [ohm:1541307:0]        ib_iface.c:1059 UCX  ERROR ibv_create_cq(cqe=256) failed: Connection timed out
[1741409966.915228] [ohm:1541291:0]        ib_iface.c:1059 UCX  ERROR ibv_create_cq(cqe=256) failed: Connection timed out
[1741409966.917207] [ohm:1541262:0]        ib_iface.c:1059 UCX  ERROR ibv_create_cq(cqe=256) failed: Connection timed out
[1741409966.917222] [ohm:1541321:0]        ib_iface.c:1059 UCX  ERROR ibv_create_cq(cqe=256) failed: Connection timed out
[1741409966.918758] [ohm:1541328:0]        ib_iface.c:1059 UCX  ERROR ibv_create_cq(cqe=256) failed: Connection timed out
[1741409966.921232] [ohm:1541297:0]        ib_iface.c:1059 UCX  ERROR ibv_create_cq(cqe=256) failed: Connection timed out
[1741409966.924801] [ohm:1541363:0]        ib_iface.c:1059 UCX  ERROR ibv_create_cq(cqe=256) failed: Connection timed out
[1741409966.924953] [ohm:1541325:0]        ib_iface.c:1059 UCX  ERROR ibv_create_cq(cqe=256) failed: Connection timed out
[1741409966.926135] [ohm:1541317:0]        ib_iface.c:1059 UCX  ERROR ibv_create_cq(cqe=256) failed: Connection timed out
[1741409966.927250] [ohm:1541356:0]        ib_iface.c:1059 UCX  ERROR ibv_create_cq(cqe=256) failed: Connection timed out
[1741409966.928753] [ohm:1541228:0]        ib_iface.c:1059 UCX  ERROR ibv_create_cq(cqe=256) failed: Connection timed out
[1741409966.929028] [ohm:1541334:0]        ib_iface.c:1059 UCX  ERROR ibv_create_cq(cqe=256) failed: Connection timed out
[1741409966.929308] [ohm:1541299:0]        ib_iface.c:1059 UCX  ERROR ibv_create_cq(cqe=256) failed: Connection timed out
[1741409966.931179] [ohm:1541344:0]        ib_iface.c:1059 UCX  ERROR ibv_create_cq(cqe=256) failed: Connection timed out
[1741409966.931880] [ohm:1541314:0]        ib_iface.c:1059 UCX  ERROR ibv_create_cq(cqe=256) failed: Connection timed out
[1741409966.933986] [ohm:1541283:0]        ib_iface.c:1059 UCX  ERROR ibv_create_cq(cqe=256) failed: Connection timed out
[1741409966.934132] [ohm:1541341:0]        ib_iface.c:1059 UCX  ERROR ibv_create_cq(cqe=256) failed: Connection timed out
[1741409966.935362] [ohm:1541313:0]        ib_iface.c:1059 UCX  ERROR ibv_create_cq(cqe=256) failed: Connection timed out
[1741409966.936277] [ohm:1541238:0]        ib_iface.c:1059 UCX  ERROR ibv_create_cq(cqe=256) failed: Connection timed out


           ************************************************************
           *        Program running with 64 parallel MPI-processes    *
           *              working on a common directory               *
           ************************************************************

-------------------------------------------------------------------------------------------
                                      ORCA LEAN-SCF
                              memory conserving SCF solver
-------------------------------------------------------------------------------------------

----------------------------------------D-I-I-S--------------------------------------------
Iteration    Energy (Eh)           Delta-E    RMSDP     MaxDP     DIISErr   Damp  Time(sec)
-------------------------------------------------------------------------------------------
               ***  Starting incremental Fock matrix formation  ***
    1    -908.1045368354186849     0.00e+00  1.63e-03  2.33e-01  1.51e-01  0.700   7.6
    2    -908.3743644846192637    -2.70e-01  1.31e-03  1.77e-01  7.30e-02  0.700   6.4
                               ***Turning on AO-DIIS***
    3    -908.4937563186010721    -1.19e-01  9.39e-04  1.30e-01  2.98e-02  0.700   5.7
    4    -908.5670471665141577    -7.33e-02  2.22e-03  2.78e-01  2.04e-02  0.000   5.7
    5    -908.7315925375612551    -1.65e-01  2.61e-04  6.43e-02  5.60e-03  0.000   5.8
                              *** Initializing SOSCF ***
---------------------------------------S-O-S-C-F--------------------------------------
Iteration    Energy (Eh)           Delta-E    RMSDP     MaxDP     MaxGrad    Time(sec)
--------------------------------------------------------------------------------------
    6    -908.7328969961934035    -1.30e-03  1.39e-04  4.60e-02  3.07e-03     6.5
               *** Restarting incremental Fock matrix formation ***
    7    -908.7334519351468316    -5.55e-04  8.35e-04  2.39e-01  4.35e-03     7.2
    8    -908.7338318795161740    -3.80e-04  4.56e-04  9.44e-02  2.35e-03     6.4
    9    -908.7339651141016930    -1.33e-04  3.81e-04  8.79e-02  7.80e-04     6.5
   10    -908.7340315626431675    -6.64e-05  3.61e-05  1.18e-02  3.94e-04     6.3
   11    -908.7340405923039270    -9.03e-06  2.15e-05  5.46e-03  1.41e-04     6.2
   12    -908.7340424153096592    -1.82e-06  8.11e-06  1.70e-03  1.08e-04     6.1
   13    -908.7340433724805280    -9.57e-07  1.05e-05  2.62e-03  5.66e-05     5.8
   14    -908.7340435295898260    -1.57e-07  1.96e-06  5.67e-04  2.49e-05     5.9
   15    -908.7340435860126036    -5.64e-08  2.28e-06  4.44e-04  1.28e-05     5.6
   16    -908.7340435999224155    -1.39e-08  8.79e-07  1.36e-04  5.31e-06     5.5
   17    -908.7340436329225213    -3.30e-08  1.45e-06  3.33e-04  2.26e-06     5.3
                  *** Gradient check signals convergence ***

               *****************************************************
               *                     SUCCESS                       *
               *           SCF CONVERGED AFTER  17 CYCLES          *
               *****************************************************

Recomputing exchange energy using gridx3       ... done (    7.891 sec)
Old exchange energy                            :    -35.041529328 Eh
New exchange energy                            :    -35.041516189 Eh
Exchange energy change after final integration :      0.000013139 Eh
Total energy after final integration           :   -908.734030494 Eh
             **** ENERGY FILE WAS UPDATED (orca.en.tmp) ****

----------------
TOTAL SCF ENERGY
----------------

Total Energy       :       -908.73403049417834 Eh          -24727.91011 eV

Components:
Nuclear Repulsion  :       1405.42932264373053 Eh           38243.67614 eV
Electronic Energy  :      -2314.16336627665260 Eh          -62971.58661 eV
One Electron Energy:      -4027.45745379008531 Eh         -109592.68890 eV
Two Electron Energy:       1713.29408751343249 Eh           46621.10229 eV

Virial components:
Potential Energy   :      -1814.61339948408886 Eh          -49378.14094 eV
Kinetic Energy     :        905.87936898991040 Eh           24650.23082 eV
Virial Ratio       :          2.00315126009267

DFT components:
N(Alpha)           :       67.000111961766 electrons
N(Beta)            :       65.000116900690 electrons
N(Total)           :      132.000228862457 electrons
E(XC)              :      -86.278575594615 Eh       

---------------
SCF CONVERGENCE
---------------

  Last Energy change         ...    3.3000e-08  Tolerance :   1.0000e-08
  Last MAX-Density change    ...    3.3348e-04  Tolerance :   1.0000e-07
  Last RMS-Density change    ...    1.4537e-06  Tolerance :   5.0000e-09
  Last DIIS Error            ...    3.0722e-03  Tolerance :   5.0000e-07
  Last Orbital Gradient      ...    2.2580e-06  Tolerance :   1.0000e-05
  Last Orbital Rotation      ...    1.6803e-05  Tolerance :   1.0000e-05


----------------------
UHF SPIN CONTAMINATION
----------------------

Warning: in a DFT calculation there is little theoretical justification to 
         calculate <S**2> as in Hartree-Fock theory. We will do it anyways
         but you should keep in mind that the values have only limited relevance

Expectation value of <S**2>     :     2.012485
Ideal value S*(S+1) for S=1.0   :     2.000000
Deviation                       :     0.012485

----------------
ORBITAL ENERGIES
----------------
                 SPIN UP ORBITALS
  NO   OCC          E(Eh)            E(eV) 
   0   1.0000     -19.348028      -526.4866 
   1   1.0000     -19.343896      -526.3742 
   2   1.0000     -19.316779      -525.6363 
   3   1.0000     -19.302671      -525.2524 
   4   1.0000     -14.574563      -396.5940 
   5   1.0000     -14.571852      -396.5202 
   6   1.0000     -14.563172      -396.2840 
   7   1.0000     -14.555512      -396.0756 
   8   1.0000     -10.502692      -285.7928 
   9   1.0000     -10.497910      -285.6627 
  10   1.0000     -10.493491      -285.5424 
  11   1.0000     -10.492400      -285.5127 
  12   1.0000     -10.453610      -284.4572 
  13   1.0000     -10.442747      -284.1616 
  14   1.0000     -10.424747      -283.6718 
  15   1.0000     -10.422426      -283.6086 
  16   1.0000     -10.380756      -282.4747 
  17   1.0000     -10.377255      -282.3795 
  18   1.0000      -1.228776       -33.4367 
  19   1.0000      -1.224287       -33.3146 
  20   1.0000      -1.204887       -32.7866 
  21   1.0000      -1.191426       -32.4203 
  22   1.0000      -1.119201       -30.4550 
  23   1.0000      -1.100873       -29.9563 
  24   1.0000      -1.077784       -29.3280 
  25   1.0000      -1.057537       -28.7770 
  26   1.0000      -0.989673       -26.9304 
  27   1.0000      -0.966296       -26.2943 
  28   1.0000      -0.895916       -24.3791 
  29   1.0000      -0.845921       -23.0187 
  30   1.0000      -0.828796       -22.5527 
  31   1.0000      -0.806485       -21.9456 
  32   1.0000      -0.793791       -21.6002 
  33   1.0000      -0.789229       -21.4760 
  34   1.0000      -0.708619       -19.2825 
  35   1.0000      -0.700387       -19.0585 
  36   1.0000      -0.685912       -18.6646 
  37   1.0000      -0.681023       -18.5316 
  38   1.0000      -0.653741       -17.7892 
  39   1.0000      -0.642644       -17.4872 
  40   1.0000      -0.625080       -17.0093 
  41   1.0000      -0.610707       -16.6182 
  42   1.0000      -0.607990       -16.5443 
  43   1.0000      -0.592938       -16.1347 
  44   1.0000      -0.580868       -15.8062 
  45   1.0000      -0.575041       -15.6477 
  46   1.0000      -0.573873       -15.6159 
  47   1.0000      -0.565506       -15.3882 
  48   1.0000      -0.561514       -15.2796 
  49   1.0000      -0.557459       -15.1692 
  50   1.0000      -0.548130       -14.9154 
  51   1.0000      -0.534659       -14.5488 
  52   1.0000      -0.532308       -14.4848 
  53   1.0000      -0.526663       -14.3312 
  54   1.0000      -0.513872       -13.9832 
  55   1.0000      -0.512231       -13.9385 
  56   1.0000      -0.508663       -13.8414 
  57   1.0000      -0.424971       -11.5641 
  58   1.0000      -0.423058       -11.5120 
  59   1.0000      -0.416209       -11.3256 
  60   1.0000      -0.407221       -11.0810 
  61   1.0000      -0.402316       -10.9476 
  62   1.0000      -0.392105       -10.6697 
  63   1.0000      -0.386201       -10.5091 
  64   1.0000      -0.375536       -10.2189 
  65   1.0000      -0.357731        -9.7343 
  66   1.0000      -0.323269        -8.7966 
  67   0.0000       0.006421         0.1747 
  68   0.0000       0.029314         0.7977 
  69   0.0000       0.031646         0.8611 
  70   0.0000       0.033366         0.9079 
  71   0.0000       0.052020         1.4155 
  72   0.0000       0.053697         1.4612 
  73   0.0000       0.057580         1.5668 
  74   0.0000       0.063563         1.7296 
  75   0.0000       0.063734         1.7343 
  76   0.0000       0.067209         1.8289 
  77   0.0000       0.070261         1.9119 

                 SPIN DOWN ORBITALS
  NO   OCC          E(Eh)            E(eV) 
   0   1.0000     -19.344295      -526.3850 
   1   1.0000     -19.340016      -526.2686 
   2   1.0000     -19.316565      -525.6304 
   3   1.0000     -19.302583      -525.2500 
   4   1.0000     -14.573920      -396.5765 
   5   1.0000     -14.571689      -396.5158 
   6   1.0000     -14.562401      -396.2631 
   7   1.0000     -14.555408      -396.0728 
   8   1.0000     -10.502732      -285.7939 
   9   1.0000     -10.497943      -285.6636 
  10   1.0000     -10.494480      -285.5693 
  11   1.0000     -10.493307      -285.5374 
  12   1.0000     -10.453052      -284.4420 
  13   1.0000     -10.442478      -284.1543 
  14   1.0000     -10.413755      -283.3727 
  15   1.0000     -10.410968      -283.2968 
  16   1.0000     -10.381434      -282.4932 
  17   1.0000     -10.377780      -282.3937 
  18   1.0000      -1.225207       -33.3396 
  19   1.0000      -1.223078       -33.2816 
  20   1.0000      -1.202411       -32.7193 
  21   1.0000      -1.186170       -32.2773 
  22   1.0000      -1.116599       -30.3842 
  23   1.0000      -1.098853       -29.9013 
  24   1.0000      -1.076165       -29.2839 
  25   1.0000      -1.055792       -28.7296 
  26   1.0000      -0.976180       -26.5632 
  27   1.0000      -0.950193       -25.8561 
  28   1.0000      -0.890432       -24.2299 
  29   1.0000      -0.840239       -22.8641 
  30   1.0000      -0.819928       -22.3114 
  31   1.0000      -0.801808       -21.8183 
  32   1.0000      -0.791863       -21.5477 
  33   1.0000      -0.786972       -21.4146 
  34   1.0000      -0.704531       -19.1713 
  35   1.0000      -0.695391       -18.9226 
  36   1.0000      -0.679175       -18.4813 
  37   1.0000      -0.673775       -18.3344 
  38   1.0000      -0.644526       -17.5384 
  39   1.0000      -0.634425       -17.2636 
  40   1.0000      -0.619641       -16.8613 
  41   1.0000      -0.605921       -16.4880 
  42   1.0000      -0.603165       -16.4130 
  43   1.0000      -0.587615       -15.9898 
  44   1.0000      -0.573999       -15.6193 
  45   1.0000      -0.567873       -15.4526 
  46   1.0000      -0.565474       -15.3873 
  47   1.0000      -0.559266       -15.2184 
  48   1.0000      -0.555403       -15.1133 
  49   1.0000      -0.545077       -14.8323 
  50   1.0000      -0.542319       -14.7572 
  51   1.0000      -0.526445       -14.3253 
  52   1.0000      -0.524814       -14.2809 
  53   1.0000      -0.520850       -14.1730 
  54   1.0000      -0.509311       -13.8590 
  55   1.0000      -0.502936       -13.6856 
  56   1.0000      -0.499866       -13.6020 
  57   1.0000      -0.421196       -11.4613 
  58   1.0000      -0.418126       -11.3778 
  59   1.0000      -0.407839       -11.0979 
  60   1.0000      -0.396418       -10.7871 
  61   1.0000      -0.390554       -10.6275 
  62   1.0000      -0.388536       -10.5726 
  63   1.0000      -0.384345       -10.4585 
  64   1.0000      -0.369567       -10.0564 
  65   0.0000      -0.076285        -2.0758 
  66   0.0000      -0.050206        -1.3662 
  67   0.0000       0.005941         0.1617 
  68   0.0000       0.028904         0.7865 
  69   0.0000       0.031019         0.8441 
  70   0.0000       0.033093         0.9005 
  71   0.0000       0.052250         1.4218 
  72   0.0000       0.054635         1.4867 
  73   0.0000       0.058958         1.6043 
  74   0.0000       0.063597         1.7306 
  75   0.0000       0.065546         1.7836 
*Only the first 10 virtual orbitals were printed.

                    ********************************
                    * MULLIKEN POPULATION ANALYSIS *
                    ********************************

--------------------------------------------
MULLIKEN ATOMIC CHARGES AND SPIN POPULATIONS
--------------------------------------------
   0 O :   -0.612318    0.134503
   1 O :   -0.677513    0.143146
   2 O :   -0.693768    0.002971
   3 O :   -0.651919    0.007289
   4 N :   -0.276987    0.046124
   5 N :   -0.237306    0.012480
   6 N :   -0.002812    0.034139
   7 N :   -0.090045    0.031546
   8 C :   -0.294847    0.394905
   9 C :    0.121640    0.425272
  10 C :    0.695708    0.219677
  11 C :    0.425982    0.164413
  12 C :   -1.550401    0.014671
  13 C :   -1.271522    0.030730
  14 C :    0.373130    0.104584
  15 C :    0.405831    0.125598
  16 C :    0.474565   -0.010829
  17 C :    0.465299    0.001521
  18 H :    0.577044    0.007621
  19 H :    0.630309    0.021535
  20 H :    0.300368    0.017255
  21 H :    0.347612    0.007998
  22 H :    0.301200    0.009556
  23 H :    0.379906    0.010559
  24 H :    0.280485    0.012508
  25 H :    0.182110    0.033254
  26 H :    0.138190    0.001886
  27 H :    0.069192    0.000207
  28 H :    0.074874   -0.003461
  29 H :    0.115997   -0.001660
Sum of atomic charges         :   -0.0000000
Sum of atomic spin populations:    2.0000000

-----------------------------------------------------
MULLIKEN REDUCED ORBITAL CHARGES AND SPIN POPULATIONS
-----------------------------------------------------
CHARGE
  0 O s       :     4.069760  s :     4.069760
      pz      :     1.666459  p :     4.509462
      px      :     1.397719
      py      :     1.445283
      dz2     :     0.003521  d :     0.031139
      dxz     :     0.007250
      dyz     :     0.004587
      dx2y2   :     0.005131
      dxy     :     0.010651
      f0      :     0.000177  f :     0.001957
      f+1     :     0.000519
      f-1     :     0.000011
      f+2     :     0.000366
[...]
[1741410245.609464] [ohm:1543613:0]        ib_iface.c:1059 UCX  ERROR ibv_create_cq(cqe=256) failed: Connection timed out
[1741410245.609460] [ohm:1543621:0]        ib_iface.c:1059 UCX  ERROR ibv_create_cq(cqe=256) failed: Connection timed out
[1741410245.612771] [ohm:1543610:0]        ib_iface.c:1059 UCX  ERROR ibv_create_cq(cqe=256) failed: Connection timed out
[1741410245.614621] [ohm:1543690:0]        ib_iface.c:1059 UCX  ERROR ibv_create_cq(cqe=256) failed: Connection timed out
[1741410245.617859] [ohm:1543722:0]        ib_iface.c:1059 UCX  ERROR ibv_create_cq(cqe=256) failed: Connection timed out
[1741410245.618102] [ohm:1543649:0]        ib_iface.c:1059 UCX  ERROR ibv_create_cq(cqe=256) failed: Connection timed out
[1741410245.618688] [ohm:1543656:0]        ib_iface.c:1059 UCX  ERROR ibv_create_cq(cqe=256) failed: Connection timed out
[1741410245.618886] [ohm:1543707:0]        ib_iface.c:1059 UCX  ERROR ibv_create_cq(cqe=256) failed: Connection timed out
[1741410245.619464] [ohm:1543644:0]        ib_iface.c:1059 UCX  ERROR ibv_create_cq(cqe=256) failed: Connection timed out
[1741410245.620565] [ohm:1543604:0]        ib_iface.c:1059 UCX  ERROR ibv_create_cq(cqe=256) failed: Connection timed out


           ************************************************************
           *        Program running with 64 parallel MPI-processes    *
           *              working on a common directory               *
           ************************************************************

------------------------------------------------------------------------------
                              ORCA PROPERTY CALCULATIONS
------------------------------------------------------------------------------

GBWName                                 ... orca.gbw
Number of atoms                         ...     30
Number of basis functions               ...    882
Max core memory                         ...   1024 MB

Electric properties:
Dipole moment                           ... YES
Quadrupole moment                       ...  NO
Static polarizability (Dipole/Dipole)   ...  NO
Static polarizability (Dipole/Quad.)    ...  NO
Static polarizability (Quad./Quad.)     ...  NO
Static polarizability (Velocity)        ...  NO

Atomic electric properties:
Dipole moment                           ...  NO
Quadrupole moment                       ...  NO
Static polarizability                   ...  NO

Choice of electric origin               ... Center of mass
Position of electric origin             ...    -0.014019    -0.091419    -0.049640

General magnetic properties:
Magnetizability                         ...  NO

EPR properties:
g-Tensor (aka g-matrix)                 ...  NO
Zero-Field splitting spin-orbit         ...  NO
Zero-field splitting spin-spin          ...  NO
Hyperfine couplings                     ...  NO (   0 nuclei)
Quadrupole couplings                    ...  NO (   0 nuclei)
Contact density                         ...  NO (   0 nuclei)

NMR properties:
Chemical shifts                         ...  NO (   0 nuclei)
Spin-rotation constants                 ...  NO (   0 nuclei)
Spin-spin couplings                     ...  NO (   0 nuclei,    0 pairs)

Choice of magnetic origin               ... GIAO
Position of magnetic origin             ...     0.000000     0.000000     0.000000

Properties with geometric perturbations:
SCF Hessian                             ...  NO
IR spectrum                             ...  NO
VCD spectrum                            ...  NO
X-ray spectroscopy properties:
SCF XES/XAS/RIXS spectra                ...  NO


-------------
DIPOLE MOMENT
-------------

Method             : SCF
Type of density    : Electron Density
Multiplicity       :   3
Irrep              :   0
Energy             :  -908.7340304941783415 Eh
Relativity type    : 
Basis              : AO
                                X                 Y                 Z
Electronic contribution:     -9.221386205      -3.531371515      -2.816065318
Nuclear contribution   :     11.358623850       4.182385067       4.151564793
                        -----------------------------------------
Total Dipole Moment    :      2.137237645       0.651013552       1.335499474
                        -----------------------------------------
Magnitude (a.u.)       :      2.602914183
Magnitude (Debye)      :      6.616082065



--------------------
Rotational spectrum 
--------------------
 
Rotational constants in cm-1:             0.022872             0.010652             0.009998 
Rotational constants in MHz :           685.699254           319.332499           299.722602 

Dipole components along the rotational axes: 
x,y,z [a.u.] :     0.684937     2.437177     0.605138 
x,y,z [Debye]:     1.740971     6.194812     1.538139 

 

-------------
DIPOLE MOMENT
-------------

Method             : TDA/CIS
Type of density    : Electron Density
Level              : Relaxed density
State              :   2
Multiplicity       :   3
Irrep              :   0
Energy             :     0.0000000000000000 Eh
Relativity type    : 
Basis              : AO
                                X                 Y                 Z
Electronic contribution:     -9.182798838      -3.500268329      -2.716586309
Nuclear contribution   :     11.358623850       4.182385067       4.151564793
                        -----------------------------------------
Total Dipole Moment    :      2.175825012       0.682116738       1.434978484
                        -----------------------------------------
Magnitude (a.u.)       :      2.694190227
Magnitude (Debye)      :      6.848087330



--------------------
Rotational spectrum 
--------------------
 
Rotational constants in cm-1:             0.022872             0.010652             0.009998 
Rotational constants in MHz :           685.699254           319.332499           299.722602 

Dipole components along the rotational axes: 
x,y,z [a.u.] :     0.652690     2.543509     0.602676 
x,y,z [Debye]:     1.659006     6.465087     1.531879 

 

Dipole moment calculation done in   0.2 sec 

Maximum memory used throughout the entire PROP-calculation: 80.8 MB
[1741410248.004665] [ohm:1543936:0]        ib_iface.c:1059 UCX  ERROR ibv_create_cq(cqe=256) failed: Connection timed out
[1741410248.018955] [ohm:1543946:0]        ib_iface.c:1059 UCX  ERROR ibv_create_cq(cqe=256) failed: Connection timed out
[1741410248.019456] [ohm:1543951:0]        ib_iface.c:1059 UCX  ERROR ibv_create_cq(cqe=256) failed: Connection timed out
[1741410248.030960] [ohm:1543945:0]        ib_iface.c:1059 UCX  ERROR ibv_create_cq(cqe=256) failed: Connection timed out
[1741410248.033161] [ohm:1543939:0]        ib_iface.c:1059 UCX  ERROR ibv_create_cq(cqe=256) failed: Connection timed out
[1741410248.037157] [ohm:1543950:0]        ib_iface.c:1059 UCX  ERROR ibv_create_cq(cqe=256) failed: Connection timed out
[1741410248.038914] [ohm:1543928:0]        ib_iface.c:1059 UCX  ERROR ibv_create_cq(cqe=256) failed: Connection timed out
[1741410248.042810] [ohm:1543941:0]        ib_iface.c:1059 UCX  ERROR ibv_create_cq(cqe=256) failed: Connection timed out
[1741410248.042879] [ohm:1543947:0]        ib_iface.c:1059 UCX  ERROR ibv_create_cq(cqe=256) failed: Connection timed out
[1741410248.060032] [ohm:1543957:0]        ib_iface.c:1059 UCX  ERROR ibv_create_cq(cqe=256) failed: Connection timed out
[1741410248.063233] [ohm:1543963:0]        ib_iface.c:1059 UCX  ERROR ibv_create_cq(cqe=256) failed: Connection timed out
[1741410248.064953] [ohm:1544062:0]        ib_iface.c:1059 UCX  ERROR ibv_create_cq(cqe=256) failed: Connection timed out
[1741410248.074013] [ohm:1543980:0]        ib_iface.c:1059 UCX  ERROR ibv_create_cq(cqe=256) failed: Connection timed out
[1741410248.074722] [ohm:1543984:0]        ib_iface.c:1059 UCX  ERROR ibv_create_cq(cqe=256) failed: Connection timed out
[1741410248.074994] [ohm:1544025:0]        ib_iface.c:1059 UCX  ERROR ibv_create_cq(cqe=256) failed: Connection timed out
[1741410248.076154] [ohm:1544075:0]        ib_iface.c:1059 UCX  ERROR ibv_create_cq(cqe=256) failed: Connection timed out
[1741410248.078997] [ohm:1543954:0]        ib_iface.c:1059 UCX  ERROR ibv_create_cq(cqe=256) failed: Connection timed out
[1741410248.084932] [ohm:1543958:0]        ib_iface.c:1059 UCX  ERROR ibv_create_cq(cqe=256) failed: Connection timed out
[1741410248.097401] [ohm:1543949:0]        ib_iface.c:1059 UCX  ERROR ibv_create_cq(cqe=256) failed: Connection timed out
[1741410248.112754] [ohm:1543948:0]        ib_iface.c:1059 UCX  ERROR ibv_create_cq(cqe=256) failed: Connection timed out
[1741410248.117465] [ohm:1543986:0]        ib_iface.c:1059 UCX  ERROR ibv_create_cq(cqe=256) failed: Connection timed out
[1741410248.120823] [ohm:1543952:0]        ib_iface.c:1059 UCX  ERROR ibv_create_cq(cqe=256) failed: Connection timed out
[1741410248.155900] [ohm:1543977:0]        ib_iface.c:1059 UCX  ERROR ibv_create_cq(cqe=256) failed: Connection timed out
[1741410248.171875] [ohm:1543959:0]        ib_iface.c:1059 UCX  ERROR ibv_create_cq(cqe=256) failed: Connection timed out
[1741410248.174366] [ohm:1543966:0]        ib_iface.c:1059 UCX  ERROR ibv_create_cq(cqe=256) failed: Connection timed out
[1741410248.175528] [ohm:1544017:0]        ib_iface.c:1059 UCX  ERROR ibv_create_cq(cqe=256) failed: Connection timed out
[1741410248.187395] [ohm:1543972:0]        ib_iface.c:1059 UCX  ERROR ibv_create_cq(cqe=256) failed: Connection timed out
[1741410248.190825] [ohm:1544015:0]        ib_iface.c:1059 UCX  ERROR ibv_create_cq(cqe=256) failed: Connection timed out
[1741410248.196927] [ohm:1544012:0]        ib_iface.c:1059 UCX  ERROR ibv_create_cq(cqe=256) failed: Connection timed out
[1741410248.209372] [ohm:1544022:0]        ib_iface.c:1059 UCX  ERROR ibv_create_cq(cqe=256) failed: Connection timed out
[1741410248.213962] [ohm:1544003:0]        ib_iface.c:1059 UCX  ERROR ibv_create_cq(cqe=256) failed: Connection timed out
[1741410248.214907] [ohm:1544060:0]        ib_iface.c:1059 UCX  ERROR ibv_create_cq(cqe=256) failed: Connection timed out
[1741410248.216805] [ohm:1544058:0]        ib_iface.c:1059 UCX  ERROR ibv_create_cq(cqe=256) failed: Connection timed out
[1741410248.219194] [ohm:1544041:0]        ib_iface.c:1059 UCX  ERROR ibv_create_cq(cqe=256) failed: Connection timed out
[1741410248.225079] [ohm:1544032:0]        ib_iface.c:1059 UCX  ERROR ibv_create_cq(cqe=256) failed: Connection timed out
[1741410248.225592] [ohm:1543962:0]        ib_iface.c:1059 UCX  ERROR ibv_create_cq(cqe=256) failed: Connection timed out
[1741410248.228800] [ohm:1544008:0]        ib_iface.c:1059 UCX  ERROR ibv_create_cq(cqe=256) failed: Connection timed out
[1741410248.236151] [ohm:1544044:0]        ib_iface.c:1059 UCX  ERROR ibv_create_cq(cqe=256) failed: Connection timed out
[1741410248.236398] [ohm:1544056:0]        ib_iface.c:1059 UCX  ERROR ibv_create_cq(cqe=256) failed: Connection timed out
[1741410248.236728] [ohm:1543923:0]        ib_iface.c:1059 UCX  ERROR ibv_create_cq(cqe=256) failed: Connection timed out
[1741410248.236729] [ohm:1543955:0]        ib_iface.c:1059 UCX  ERROR ibv_create_cq(cqe=256) failed: Connection timed out
[1741410248.240544] [ohm:1543944:0]        ib_iface.c:1059 UCX  ERROR ibv_create_cq(cqe=256) failed: Connection timed out
[1741410248.249596] [ohm:1544065:0]        ib_iface.c:1059 UCX  ERROR ibv_create_cq(cqe=256) failed: Connection timed out
[1741410248.260193] [ohm:1544069:0]        ib_iface.c:1059 UCX  ERROR ibv_create_cq(cqe=256) failed: Connection timed out
[1741410248.262178] [ohm:1544001:0]        ib_iface.c:1059 UCX  ERROR ibv_create_cq(cqe=256) failed: Connection timed out
[1741410248.266250] [ohm:1543940:0]        ib_iface.c:1059 UCX  ERROR ibv_create_cq(cqe=256) failed: Connection timed out
[1741410248.267063] [ohm:1543968:0]        ib_iface.c:1059 UCX  ERROR ibv_create_cq(cqe=256) failed: Connection timed out
[1741410248.270111] [ohm:1543996:0]        ib_iface.c:1059 UCX  ERROR ibv_create_cq(cqe=256) failed: Connection timed out
[1741410248.282653] [ohm:1543943:0]        ib_iface.c:1059 UCX  ERROR ibv_create_cq(cqe=256) failed: Connection timed out
[1741410248.283911] [ohm:1543942:0]        ib_iface.c:1059 UCX  ERROR ibv_create_cq(cqe=256) failed: Connection timed out
[1741410248.287785] [ohm:1543924:0]        ib_iface.c:1059 UCX  ERROR ibv_create_cq(cqe=256) failed: Connection timed out
[1741410248.289863] [ohm:1544050:0]        ib_iface.c:1059 UCX  ERROR ibv_create_cq(cqe=256) failed: Connection timed out
[1741410248.291143] [ohm:1543961:0]        ib_iface.c:1059 UCX  ERROR ibv_create_cq(cqe=256) failed: Connection timed out
[1741410248.294495] [ohm:1544038:0]        ib_iface.c:1059 UCX  ERROR ibv_create_cq(cqe=256) failed: Connection timed out
[1741410248.295074] [ohm:1544071:0]        ib_iface.c:1059 UCX  ERROR ibv_create_cq(cqe=256) failed: Connection timed out
[1741410248.295364] [ohm:1544029:0]        ib_iface.c:1059 UCX  ERROR ibv_create_cq(cqe=256) failed: Connection timed out
[1741410248.295457] [ohm:1543960:0]        ib_iface.c:1059 UCX  ERROR ibv_create_cq(cqe=256) failed: Connection timed out
[1741410248.295640] [ohm:1543991:0]        ib_iface.c:1059 UCX  ERROR ibv_create_cq(cqe=256) failed: Connection timed out
[1741410248.295756] [ohm:1544051:0]        ib_iface.c:1059 UCX  ERROR ibv_create_cq(cqe=256) failed: Connection timed out
[1741410248.298262] [ohm:1543953:0]        ib_iface.c:1059 UCX  ERROR ibv_create_cq(cqe=256) failed: Connection timed out
[1741410248.299985] [ohm:1544034:0]        ib_iface.c:1059 UCX  ERROR ibv_create_cq(cqe=256) failed: Connection timed out
[1741410248.300378] [ohm:1544067:0]        ib_iface.c:1059 UCX  ERROR ibv_create_cq(cqe=256) failed: Connection timed out
[1741410248.300600] [ohm:1543956:0]        ib_iface.c:1059 UCX  ERROR ibv_create_cq(cqe=256) failed: Connection timed out
[1741410248.300735] [ohm:1543994:0]        ib_iface.c:1059 UCX  ERROR ibv_create_cq(cqe=256) failed: Connection timed out

--------------------------------
SUGGESTED CITATIONS FOR THIS RUN
--------------------------------

Below you find a list of papers that are relevant to this ORCA run
We neither can nor want to force you to cite these papers, but we appreciate if you do
You receive ORCA, which is the product of decades of hard work by many enthusiastic individuals, for free
The only thing we kindly ask in return is that you cite our papers,
We deeply appreciate it, if you show your appreciation for ORCA by not just citing the generic ORCA reference.

Please note that relegating all ORCA citations to the supporting information does *not* help us.
SI sections are not indexed - citations you put there will not count into any citation statistics
But we need these citations in order to attract the funding resources that allow us to do what we are doing

Therefore, if you are a happy ORCA user, please consider citing a few of the papers listed below in the main body of your paper

In addition to the list printed below, the program has created the file orca.bibtex that contains the list in bibtex format
You can import this file easily into all common literature databanks and citation aid programs


List of essential papers. We consider these as the minimum necessary citations

  1. Neese,F.
     Software update: the ORCA program system, version 5.0
     WIRES Comput. Molec. Sci., 2022 12(1)e1606
     doi.org/10.1002/wcms.1606

List of papers to cite with high priority. The work reported in these papers was absolutely
necessary for this run to complete.
Our perspective: the developers of density functionals and basis sets usually get cited in chemistry papers
Good! But without the algorithms to do something with them, the functionals or basis sets would not do anything.
Hence, in our opinion, the algorithm design and method developments papers are equally worthy of getting cited

  1. Neese,F.; Olbrich,G.
     Efficient use of the resolution of the identity approximation in time-dependent density functional calculations with hybrid density functionals
     Chem. Phys. Lett., 2002 362 170-178
     doi.org/10.1016/s0009-2614(02)01053-9
  2. Neese,F.
     An improvement of the resolution of the identity approximation for the formation of the Coulomb matrix
     J. Comp. Chem., 2003 24(14)1740-1747
     doi.org/10.1002/jcc.10318
  3. Neese,F.; Wennmohs,F.; Hansen,A.; Becker,U.
     Efficient, approximate and parallel Hartree-Fock and hybrid DFT calculations. A 'chain-of-spheres' algorithm for the Hartree-Fock exchange
     Chem. Phys., 2009 356(1-3)98-109
     doi.org/10.1016/j.chemphys.2008.10.036
  4. Petrenko,T.; Kossmann,S.; Neese,F.
     Efficient time-dependent density functional theory approximations for hybrid density functionals: Analytical gradients and parallelization
     J. Chem. Phys., 2011 134 054116
     doi.org/10.1063/1.3533441
  5. Helmich-Paris,B.; de Souza,B.; Neese,F.; Izsák,R.
     An improved chain of spheres for exchange algorithm
     J. Chem. Phys., 2021 155 104109
     doi.org/doi: 10.1063/5.0058766.
  6. Neese,F.
     The SHARK Integral Generation and Digestion System
     J. Comp. Chem., 2022  1-16
     doi.org/10.1002/jcc.26942
  7. Lehtola,S.; Steigemann,C.; Oliveira,M.; Marques,M.
     Recent developments in Libxc - A comprehensive library of functionals for density functional theory
     Software X, 2018 7 
     doi.org/10.1016/j.softx.2017.11.002
  8. Grimme,S.; Antony,J.; Ehrlich,S.; Krieg,H.
     A consistent and accurate ab initio parametrization of density functional dispersion correction (DFT-D) for the 94 elements H-Pu
     J. Chem. Phys., 2010 132 154104-XXXX
     doi.org/10.1063/1.3382344
  9. Grimme,S.; Ehrlich,S.; Goerigk,L.
     Effect of the damping function in dispersion corrected density functional theory
     J. Comput. Chem., 2011 32(7)1456-1465
     doi.org/10.1002/jcc.21759

List of suggested additional citations. These are papers that are important in the 'surrounding' of 
of this run, or papers that preceded the highly important papers. If you like your results we are grateful for a citation.

  1. Izsak,R.; Neese,F.
     An overlap fitted chain of spheres exchange method
     J. Chem. Phys., 2011 135 144105
     doi.org/10.1063/1.3646921
  2. Izsak,R.; Hansen,A.; Neese,F.
     The resolution of identity and chain of spheres approximations for the LPNO-CCSD singles Fock term
     Molec. Phys., 2012 110 2413-2417
     doi.org/10.1080/00268976.2012.687466
  3. Neese,F.
     The ORCA program system
     WIRES Comput. Molec. Sci., 2012 2(1)73-78
     doi.org/10.1002/wcms.81
  4. Izsak,R.; Neese,F.; Klopper,W.
     Robust fitting techniques in the chain of spheres approximation to the Fock exchange: The role of the complementary space
     J. Chem. Phys., 2013 139 
     doi.org/10.1063/1.4819264
  5. Neese,F.
     Software update: the ORCA program system, version 4.0
     WIRES Comput. Molec. Sci., 2018 8(1)1-6
     doi.org/10.1002/wcms.1327
  6. Neese,F.; Wennmohs,F.; Becker,U.; Riplinger,C.
     The ORCA quantum chemistry program package
     J. Chem. Phys., 2020 152 Art. No. L224108
     doi.org/10.1063/5.0004608

List of optional additional citations

  1. Neese,F.
     Approximate second-order SCF convergence for spin unrestricted wavefunctions
     Chem. Phys. Lett., 2000 325(1-3)93-98
     doi.org/10.1016/s0009-2614(00)00662-x

Timings for individual modules:

Sum of individual times          ...      291.837 sec (=   4.864 min)
Startup calculation              ...        6.363 sec (=   0.106 min)   2.2 %
SCF iterations                   ...      121.871 sec (=   2.031 min)  41.8 %
Property integrals               ...        4.222 sec (=   0.070 min)   1.4 %
Property calculations            ...        2.880 sec (=   0.048 min)   1.0 %
CIS module                       ...      156.502 sec (=   2.608 min)  53.6 %
                             ****ORCA TERMINATED NORMALLY****
TOTAL RUN TIME: 0 days 0 hours 4 minutes 53 seconds 851 msec
