
                                 *****************
                                 * O   R   C   A *
                                 *****************

                                            #,                                       
                                            ###                                      
                                            ####                                     
                                            #####                                    
                                            ######                                   
                                           ########,                                 
                                     ,,################,,,,,                         
                               ,,#################################,,                 
                          ,,##########################################,,             
                       ,#########################################, ''#####,          
                    ,#############################################,,   '####,        
                  ,##################################################,,,,####,       
                ,###########''''           ''''###############################       
              ,#####''   ,,,,##########,,,,          '''####'''          '####       
            ,##' ,,,,###########################,,,                        '##       
           ' ,,###''''                  '''############,,,                           
         ,,##''                                '''############,,,,        ,,,,,,###''
      ,#''                                            '''#######################'''  
     '                                                          ''''####''''         
             ,#######,   #######,   ,#######,      ##                                
            ,#'     '#,  ##    ##  ,#'     '#,    #''#        ,####,   ,####,        
            ##       ##  ##   ,#'  ##            #'  '#       #'       #'  '#        
            ##       ##  #######   ##           ,######,      #####,   #    #        
            '#,     ,#'  ##    ##  '#,     ,#' ,#      #,     #,   #   #,  ,#        
             '#######'   ##     ##  '#######'  #'      '#     '####' # '####'        



                #########################################################
                #                        -***-                          #
                #          Department of theory and spectroscopy        #
                #                                                       #
                #                      Frank Neese                      #
                #                                                       #
                #     Directorship, Architecture, Infrastructure        #
                #                    SHARK, DRIVERS                     #
                #        Core code/Algorithms in most modules           #
                #                                                       #
                #        Max Planck Institute fuer Kohlenforschung      #
                #                Kaiser Wilhelm Platz 1                 #
                #                 D-45470 Muelheim/Ruhr                 #
                #                      Germany                          #
                #                                                       #
                #                  All rights reserved                  #
                #                        -***-                          #
                #########################################################


                         Program Version 6.0.0  -   RELEASE  -


 With contributions from (in alphabetic order):
   Daniel Aravena         : Magnetic Suceptibility
   Michael Atanasov       : Ab Initio Ligand Field Theory (pilot matlab implementation)
   Alexander A. Auer      : GIAO ZORA, VPT2 properties, NMR spectrum
   Ute Becker             : All parallelization in ORCA, NUMFREQ, NUMCALC
   Giovanni Bistoni       : ED, misc. LED, open-shell LED, HFLD
   Martin Brehm           : Molecular dynamics
   Dmytro Bykov           : pre 5.0 version of the SCF Hessian
   Marcos Casanova-Páez   : Triplet and SCS-CIS(D). UHF-(DLPNO)-IP/EA/STEOM-CCSD. UHF-CVS-IP/STEOM-CCSD
   Vijay G. Chilkuri      : MRCI spin determinant printing, contributions to CSF-ICE
   Pauline Colinet        : FMM embedding
   Dipayan Datta          : RHF DLPNO-CCSD density
   Achintya Kumar Dutta   : EOM-CC, STEOM-CC
   Nicolas Foglia         : Exact transition moments, OPA infrastructure, MCD improvements
   Dmitry Ganyushin       : Spin-Orbit,Spin-Spin,Magnetic field MRCI
   Miquel Garcia          : C-PCM and meta-GGA Hessian, CCSD/C-PCM, Gaussian charge scheme
   Tiago L. C. Gouveia    : GS-ROHF, GS-ROCIS
   Yang Guo               : DLPNO-NEVPT2, F12-NEVPT2, CIM, IAO-localization
   Andreas Hansen         : Spin unrestricted coupled pair/coupled cluster methods
   Ingolf Harden          : AUTO-CI MPn and infrastructure 
   Benjamin Helmich-Paris : MC-RPA, TRAH-(SCF,CASSCF), AVAS, COSX integrals, SCF dyn. polar.
   Lee Huntington         : MR-EOM, pCC
   Robert Izsak           : Overlap fitted RIJCOSX, COSX-SCS-MP3, EOM
   Riya Kayal             : Wick's Theorem for AUTO-CI, AUTO-CI UHF-CCSDT
   Emily Kempfer          : AUTO-CI, RHF CISDT and CCSDT
   Christian Kollmar      : KDIIS, OOCD, Brueckner-CCSD(T), CCSD density, CASPT2, CASPT2-K, improved NEVPT2
   Axel Koslowski         : Symmetry handling
   Simone Kossmann        : Meta GGA functionals, TD-DFT gradient, OOMP2, (MP2 Hessian; deprecated post 5.0)
   Lucas Lang             : DCDCAS
   Marvin Lechner         : AUTO-CI (C++ implementation), FIC-MRCC
   Spencer Leger          : CASSCF response
   Dagmar Lenk            : GEPOL surface, SMD, ORCA-2-JSON
   Dimitrios Liakos       : Extrapolation schemes; Compound Job, initial MDCI parallelization
   Dimitrios Manganas     : Further ROCIS development; embedding schemes. LFT, Crystal Embedding
   Dimitrios Pantazis     : SARC Basis sets
   Anastasios Papadopoulos: AUTO-CI, single reference methods and gradients
   Taras Petrenko         : pre 6.0 DFT Hessian and TD-DFT gradient, (ASA, deprecated), ECA, 1-Electron XAS/XES, NRVS
   Peter Pinski           : DLPNO-MP2, DLPNO-MP2 Gradient
   Christoph Reimann      : Effective Core Potentials
   Marius Retegan         : Local ZFS, SOC
   Christoph Riplinger    : Optimizer, TS searches, QM/MM, DLPNO-CCSD(T), (RO)-DLPNO pert. Triples
   Michael Roemelt        : Original ROCIS implementation
   Masaaki Saitow         : Open-shell DLPNO-CCSD energy and density
   Barbara Sandhoefer     : DKH picture change effects
   Kantharuban Sivalingam : CASSCF convergence/infrastructure, NEVPT2 and variants, FIC-MRCI
   Bernardo de Souza      : ESD, SOC TD-DFT
   Georgi Stoychev        : AutoAux, RI-MP2 NMR, DLPNO-MP2 response, X2C
   Van Anh Tran           : RI-MP2 g-tensors
   Willem Van den Heuvel  : Paramagnetic NMR
   Zikuan Wang            : NOTCH, Electric field optimization 
   Frank Wennmohs         : Technical directorship and infrastructure
   Hang Xu                : AUTO-CI-Response properties 


 We gratefully acknowledge several colleagues who have allowed us to
 interface, adapt or use parts of their codes:
   Stefan Grimme, W. Hujo, H. Kruse, P. Pracht,  : VdW corrections, initial TS optimization,
                  C. Bannwarth, S. Ehlert,         DFT functionals, gCP, sTDA/sTD-DF
                  L. Wittmann, M. Mueller
   Ed Valeev, F. Pavosevic, A. Kumar             : LibInt (2-el integral package), F12 methods
   Garnet Chan, S. Sharma, J. Yang, R. Olivares  : DMRG
   Ulf Ekstrom                                   : XCFun DFT Library
   Mihaly Kallay                                 : mrcc  (arbitrary order and MRCC methods)
   Frank Weinhold                                : gennbo (NPA and NBO analysis)
   Simon Mueller                                 : openCOSMO-RS
   Christopher J. Cramer and Donald G. Truhlar   : smd solvation model
   Lars Goerigk                                  : TD-DFT with DH, B97 family of functionals
   V. Asgeirsson, H. Jonsson                     : NEB implementation
   FAccTs GmbH                                   : IRC, NEB, NEB-TS, DLPNO-Multilevel, CI-OPT
                                                   MM, QMMM, 2- and 3-layer-ONIOM, Crystal-QMMM,
                                                   LR-CPCM, SF, NACMEs, symmetry and pop. for TD-DFT,
                                                   nearIR, NL-DFT gradient (VV10), updates on ESD,
                                                   ML-optimized integration grids, MBIS, APM,
                                                   GOAT, DOCKER, SOLVATOR, interface openCOSMO-RS
   S Lehtola, MJT Oliveira, MAL Marques          : LibXC Library
   Liviu Ungur et al                             : ANISO software


 Your calculation uses the libint2 library for the computation of 2-el integrals
 For citations please refer to: http://libint.valeyev.net

 Your ORCA version has been built with support for libXC version: 6.2.2
 For citations please refer to: https://libxc.gitlab.io

 This ORCA versions uses:
   CBLAS   interface :  Fast vector & matrix operations
   LAPACKE interface :  Fast linear algebra routines
   SCALAPACK package :  Parallel linear algebra routines
   Shared memory     :  Shared parallel matrices
   BLAS/LAPACK       :  OpenBLAS 0.3.27  USE64BITINT DYNAMIC_ARCH NO_AFFINITY Zen SINGLE_THREADED
        Core in use  :  Zen
   Copyright (c) 2011-2014, The OpenBLAS Project


Your calculation utilizes the atom-pairwise dispersion correction
with the Becke-Johnson damping scheme (D3BJ)


Warning: RI is on but no J-basis has been assigned. Assigning Def2/J (nothing to worry about!)
================================================================================

----- Orbital basis set information -----
Your calculation utilizes the basis: def2-TZVPPD
   F. Weigend and R. Ahlrichs, Phys. Chem. Chem. Phys. 7, 3297 (2005).
   D. Rappoport and F. Furche, J. Chem. Phys. 133, 134105 (2010)
   D. Rappoport, J. Chem. Phys. 155, 124102 (2021).

----- AuxJ basis set information -----
Your calculation utilizes the auxiliary basis: def2/J
   F. Weigend, Phys. Chem. Chem. Phys. 8, 1057 (2006).

================================================================================
                                        WARNINGS
                       Please study these warnings very carefully!
================================================================================

Using LibXC functional ID 531 : wB97M-V exchange-correlation functional
[ 1]  N. Mardirossian and M. Head-Gordon.,  J. Chem. Phys. 144, 214110 (2016)
Using LibXC functional ID 531 : wB97M-V exchange-correlation functional
[ 1]  N. Mardirossian and M. Head-Gordon.,  J. Chem. Phys. 144, 214110 (2016)

WARNING: B97M-V or wB97M-V functional requested.
  ===> : libXC variant has now been activated.
         Any manually given DFX/HFX/RangeSep scaling parameters are IGNORED!

Your calculation utilizes LibXC
 by S Lehtola, C Steigemann, MJT Oliveira & MAL Marques
Please cite in your paper:
 S Lehtola, C Steigemann, MJT Oliveira & MAL Marques, SoftwareX, 7, (2018), 1.
   


WARNING: your system is open-shell and RHF/RKS was chosen
  ===> : WILL SWITCH to UHF/UKS

INFO   : Checking CIS options ...

WARNING: CIS/ROCIS methods need fully converged wavefunctions
  ===> : Setting SCFConvForced true
         You can overwrite this default with %scf ConvForced false 


================================================================================
                                       INPUT FILE
================================================================================
NAME = orca.inp
|  1> ! Engrad def2-TZVPPD wB97M-D3BJ 
|  2> %pal nprocs 8 end%pal nprocs 32 end 
|  3> %tddft Nroots 2 Iroot 2 
|  4> sf true 
|  5> end 
|  6> *xyz 0 3 
|  7> O   0.75880175 1.37081039 -0.4859805
|  8> C   0.35993002 0.408031 0.38720787
|  9> C   -0.2290876 -0.97765957 0.11430266
| 10> H   0.3995695 0.7741828 1.38899362
| 11> H   0.3902846 -1.71500331 -0.48710488
| 12> H   -1.15660584 -0.96519621 -0.44378087
| 13> H   -0.47731722 -1.50187671 1.06665944
| 14> *
| 15> 
| 16>                          ****END OF INPUT****
================================================================================

                     *******************************
                     * Energy+Gradient Calculation *
                     *******************************

---------------------------------
CARTESIAN COORDINATES (ANGSTROEM)
---------------------------------
  O      0.758802    1.370810   -0.485980
  C      0.359930    0.408031    0.387208
  C     -0.229088   -0.977660    0.114303
  H      0.399570    0.774183    1.388994
  H      0.390285   -1.715003   -0.487105
  H     -1.156606   -0.965196   -0.443781
  H     -0.477317   -1.501877    1.066659

----------------------------
CARTESIAN COORDINATES (A.U.)
----------------------------
  NO LB      ZA    FRAG     MASS         X           Y           Z
   0 O     8.0000    0    15.999    1.433927    2.590456   -0.918370
   1 C     6.0000    0    12.011    0.680169    0.771067    0.731717
   2 C     6.0000    0    12.011   -0.432913   -1.847509    0.216001
   3 H     1.0000    0     1.008    0.755077    1.462993    2.624818
   4 H     1.0000    0     1.008    0.737531   -3.240887   -0.920495
   5 H     1.0000    0     1.008   -2.185668   -1.823957   -0.838624
   6 H     1.0000    0     1.008   -0.901999   -2.838136    2.015694

--------------------------------
INTERNAL COORDINATES (ANGSTROEM)
--------------------------------
 O      0   0   0     0.000000000000     0.00000000     0.00000000
 C      1   0   0     1.359595800341     0.00000000     0.00000000
 C      2   1   0     1.530214810444   129.76515925     0.00000000
 H      2   1   3     1.067339270298   110.42455531   186.61280468
 H      3   2   1     1.135336400464   118.20261517    59.61482752
 H      3   2   1     1.082544524411   114.28763008   300.06246859
 H      3   2   1     1.115080710320   111.04400728   181.81069163

---------------------------
INTERNAL COORDINATES (A.U.)
---------------------------
 O      0   0   0     0.000000000000     0.00000000     0.00000000
 C      1   0   0     2.569263715474     0.00000000     0.00000000
 C      2   1   0     2.891686917810   129.76515925     0.00000000
 H      2   1   3     2.016978912843   110.42455531   186.61280468
 H      3   2   1     2.145474866749   118.20261517    59.61482752
 H      3   2   1     2.045712678913   114.28763008   300.06246859
 H      3   2   1     2.107197159723   111.04400728   181.81069163

---------------------
BASIS SET INFORMATION
---------------------
There are 3 groups of distinct atoms

 Group   1 Type O   : 12s7p3d1f contracted to 6s4p3d1f pattern {621111/4111/111/1}
 Group   2 Type C   : 12s6p3d1f contracted to 6s3p3d1f pattern {621111/411/111/1}
 Group   3 Type H   : 5s3p1d contracted to 3s3p1d pattern {311/111/1}

Atom   0O    basis set group =>   1
Atom   1C    basis set group =>   2
Atom   2C    basis set group =>   2
Atom   3H    basis set group =>   3
Atom   4H    basis set group =>   3
Atom   5H    basis set group =>   3
Atom   6H    basis set group =>   3
---------------------------------
AUXILIARY/J BASIS SET INFORMATION
---------------------------------
There are 3 groups of distinct atoms

 Group   1 Type O   : 12s5p4d2f1g contracted to 6s4p3d1f1g pattern {711111/2111/211/2/1}
 Group   2 Type C   : 12s5p4d2f1g contracted to 6s4p3d1f1g pattern {711111/2111/211/2/1}
 Group   3 Type H   : 5s2p1d contracted to 3s1p1d pattern {311/2/1}

Atom   0O    basis set group =>   1
Atom   1C    basis set group =>   2
Atom   2C    basis set group =>   2
Atom   3H    basis set group =>   3
Atom   4H    basis set group =>   3
Atom   5H    basis set group =>   3
Atom   6H    basis set group =>   3
[1741043936.412356] [ohm:351337:0]        ib_iface.c:1059 UCX  ERROR ibv_create_cq(cqe=256) failed: Connection timed out
[1741043936.412372] [ohm:351341:0]        ib_iface.c:1059 UCX  ERROR ibv_create_cq(cqe=256) failed: Connection timed out
[1741043936.412420] [ohm:351345:0]        ib_iface.c:1059 UCX  ERROR ibv_create_cq(cqe=256) failed: Connection timed out
[1741043936.419528] [ohm:351344:0]        ib_iface.c:1059 UCX  ERROR ibv_create_cq(cqe=256) failed: Connection timed out
[1741043936.435187] [ohm:351349:0]        ib_iface.c:1059 UCX  ERROR ibv_create_cq(cqe=256) failed: Connection timed out
[1741043936.458238] [ohm:351357:0]        ib_iface.c:1059 UCX  ERROR ibv_create_cq(cqe=256) failed: Connection timed out
[1741043936.462642] [ohm:351353:0]        ib_iface.c:1059 UCX  ERROR ibv_create_cq(cqe=256) failed: Connection timed out
[1741043936.462689] [ohm:351359:0]        ib_iface.c:1059 UCX  ERROR ibv_create_cq(cqe=256) failed: Connection timed out
[1741043936.463716] [ohm:351352:0]        ib_iface.c:1059 UCX  ERROR ibv_create_cq(cqe=256) failed: Connection timed out
[1741043936.465680] [ohm:351346:0]        ib_iface.c:1059 UCX  ERROR ibv_create_cq(cqe=256) failed: Connection timed out
[1741043936.499239] [ohm:351343:0]        ib_iface.c:1059 UCX  ERROR ibv_create_cq(cqe=256) failed: Connection timed out
[1741043936.503976] [ohm:351340:0]        ib_iface.c:1059 UCX  ERROR ibv_create_cq(cqe=256) failed: Connection timed out
[1741043936.506039] [ohm:351338:0]        ib_iface.c:1059 UCX  ERROR ibv_create_cq(cqe=256) failed: Connection timed out
[1741043936.506406] [ohm:351376:0]        ib_iface.c:1059 UCX  ERROR ibv_create_cq(cqe=256) failed: Connection timed out
[1741043936.506405] [ohm:351386:0]        ib_iface.c:1059 UCX  ERROR ibv_create_cq(cqe=256) failed: Connection timed out
[1741043936.506445] [ohm:351382:0]        ib_iface.c:1059 UCX  ERROR ibv_create_cq(cqe=256) failed: Connection timed out
[1741043936.506464] [ohm:351377:0]        ib_iface.c:1059 UCX  ERROR ibv_create_cq(cqe=256) failed: Connection timed out
[1741043936.506723] [ohm:351350:0]        ib_iface.c:1059 UCX  ERROR ibv_create_cq(cqe=256) failed: Connection timed out
[1741043936.512903] [ohm:351348:0]        ib_iface.c:1059 UCX  ERROR ibv_create_cq(cqe=256) failed: Connection timed out
[1741043936.512950] [ohm:351339:0]        ib_iface.c:1059 UCX  ERROR ibv_create_cq(cqe=256) failed: Connection timed out
[1741043936.514430] [ohm:351372:0]        ib_iface.c:1059 UCX  ERROR ibv_create_cq(cqe=256) failed: Connection timed out
[1741043936.515461] [ohm:351351:0]        ib_iface.c:1059 UCX  ERROR ibv_create_cq(cqe=256) failed: Connection timed out
[1741043936.516754] [ohm:351342:0]        ib_iface.c:1059 UCX  ERROR ibv_create_cq(cqe=256) failed: Connection timed out
[1741043936.516995] [ohm:351364:0]        ib_iface.c:1059 UCX  ERROR ibv_create_cq(cqe=256) failed: Connection timed out
[1741043936.517158] [ohm:351347:0]        ib_iface.c:1059 UCX  ERROR ibv_create_cq(cqe=256) failed: Connection timed out
[1741043936.517120] [ohm:351369:0]        ib_iface.c:1059 UCX  ERROR ibv_create_cq(cqe=256) failed: Connection timed out
[1741043936.517327] [ohm:351381:0]        ib_iface.c:1059 UCX  ERROR ibv_create_cq(cqe=256) failed: Connection timed out
[1741043936.517720] [ohm:351356:0]        ib_iface.c:1059 UCX  ERROR ibv_create_cq(cqe=256) failed: Connection timed out
[1741043936.517768] [ohm:351378:0]        ib_iface.c:1059 UCX  ERROR ibv_create_cq(cqe=256) failed: Connection timed out
[1741043936.517988] [ohm:351375:0]        ib_iface.c:1059 UCX  ERROR ibv_create_cq(cqe=256) failed: Connection timed out
[1741043936.518412] [ohm:351388:0]        ib_iface.c:1059 UCX  ERROR ibv_create_cq(cqe=256) failed: Connection timed out
[1741043936.519629] [ohm:351355:0]        ib_iface.c:1059 UCX  ERROR ibv_create_cq(cqe=256) failed: Connection timed out


           ************************************************************
           *        Program running with 32 parallel MPI-processes    *
           *              working on a common directory               *
           ************************************************************
------------------------------------------------------------------------------
                             ORCA STARTUP CALCULATIONS
                           -- RI-GTO INTEGRALS CHOSEN --
------------------------------------------------------------------------------
------------------------------------------------------------------------------
                   ___                                                        
                  /   \      - P O W E R E D   B Y -                         
                 /     \                                                     
                 |  |  |   _    _      __       _____    __    __             
                 |  |  |  | |  | |    /  \     |  _  \  |  |  /  |          
                  \  \/   | |  | |   /    \    | | | |  |  | /  /          
                 / \  \   | |__| |  /  /\  \   | |_| |  |  |/  /          
                |  |  |   |  __  | /  /__\  \  |    /   |      \           
                |  |  |   | |  | | |   __   |  |    \   |  |\   \          
                \     /   | |  | | |  |  |  |  | |\  \  |  | \   \       
                 \___/    |_|  |_| |__|  |__|  |_| \__\ |__|  \__/        
                                                                              
                      - O R C A' S   B I G   F R I E N D -                    
                                      &                                       
                       - I N T E G R A L  F E E D E R -                       
                                                                              
 v1 FN, 2020, v2 2021, v3 2022-2024                                           
------------------------------------------------------------------------------


----------------------
SHARK INTEGRAL PACKAGE
----------------------

Number of atoms                             ...      7
Number of basis functions                   ...    182
Number of shells                            ...     68
Maximum angular momentum                    ...      3
Integral batch strategy                     ... SHARK/LIBINT Hybrid
RI-J (if used) integral strategy            ... SPLIT-RIJ (Revised 2003 algorithm where possible)
Printlevel                                  ...      1
Contraction scheme used                     ... SEGMENTED contraction
Prescreening option                         ... SCHWARTZ
   Thresh                                   ... 2.500e-11
   Tcut                                     ... 2.500e-12
   Tpresel                                  ... 2.500e-12 
Coulomb Range Separation                    ... NOT USED
Exchange Range Separation                   ... Long Range
   Mu parameter                             ... 3.000e-01
   Scaling (regular/separated)              ... 1.500e-01 8.500e-01
Multipole approximations                    ... NOT USED
Finite Nucleus Model                        ... NOT USED
CABS basis                                  ... NOT available
Auxiliary Coulomb fitting basis             ... AVAILABLE
   # of basis functions in Aux-J            ...    191
   # of shells in Aux-J                     ...     65
   Maximum angular momentum in Aux-J        ...      4
Auxiliary J/K fitting basis                 ... NOT available
Auxiliary Correlation fitting basis         ... NOT available
Auxiliary 'external' fitting basis          ... NOT available

Checking pre-screening integrals            ... done (  0.0 sec) Dimension = 68
Check shell pair data                       ... done (  0.0 sec)
Shell pair information
Shell pair cut-off parameter TPreSel        ...   2.5e-12
Total number of shell pairs                 ...      2346
Shell pairs after pre-screening             ...      2314
Total number of primitive shell pairs       ...      5434
Primitive shell pairs kept                  ...      4745
          la=0 lb=0:    452 shell pairs
          la=1 lb=0:    652 shell pairs
          la=1 lb=1:    252 shell pairs
          la=2 lb=0:    382 shell pairs
          la=2 lb=1:    285 shell pairs
          la=2 lb=2:     91 shell pairs
          la=3 lb=0:     89 shell pairs
          la=3 lb=1:     66 shell pairs
          la=3 lb=2:     39 shell pairs
          la=3 lb=3:      6 shell pairs

Calculating one electron integrals          ... done (  0.0 sec)
Calculating RI/J V-Matrix + Cholesky decomp.... done (  0.0 sec)
Calculating Nuclear repulsion               ... done (  0.0 sec) ENN=     65.625785034807 Eh

Diagonalization of the overlap matrix:
Smallest eigenvalue                        ... 2.093e-05
Time for diagonalization                   ...    0.003 sec
Threshold for overlap eigenvalues          ... 1.000e-07
Number of eigenvalues below threshold      ... 0
Time for construction of square roots      ...    0.002 sec
Total time needed                          ...    0.006 sec

-------------------
DFT GRID GENERATION
-------------------

General Integration Accuracy     IntAcc      ... 4.388
Radial Grid Type                 RadialGrid  ... OptM3 with GC (2021)
Angular Grid (max. ang.)         AngularGrid ... 4 (Lebedev-302)
Angular grid pruning method      GridPruning ... 4 (adaptive)
Weight generation scheme         WeightScheme... mBecke (2022)
Basis function cutoff            BFCut       ... 1.0000e-11
Integration weight cutoff        WCut        ... 1.0000e-14
Partially contracted basis set               ... off
Rotationally invariant grid construction     ... off
Angular grids for H and He will be reduced by one unit
Diffuse basis detected: some atoms will have their outermost
                        angular grid increased by 1.

Total number of grid points                  ...    33161
Total number of batches                      ...      521
Average number of points per batch           ...       63
Average number of grid points per atom       ...     4737

--------------------
COSX GRID GENERATION
--------------------

GRIDX 1
-------
General Integration Accuracy     IntAcc      ... 3.816
Radial Grid Type                 RadialGrid  ... OptM3 with GC (2021)
Angular Grid (max. ang.)         AngularGrid ... 1 (Lebedev-50)
Angular grid pruning method      GridPruning ... 4 (adaptive)
Weight generation scheme         WeightScheme... mBecke (2022)
Basis function cutoff            BFCut       ... 1.0000e-11
Integration weight cutoff        WCut        ... 1.0000e-14
Partially contracted basis set               ... on
Rotationally invariant grid construction     ... off
Angular grids for H and He will be reduced by one unit
Diffuse basis detected: some atoms will have their outermost
                        angular grid increased by 1.

Total number of grid points                  ...     4180
Total number of batches                      ...       36
Average number of points per batch           ...      116
Average number of grid points per atom       ...      597
UseSFitting                                  ... on

GRIDX 2
-------
General Integration Accuracy     IntAcc      ... 4.020
Radial Grid Type                 RadialGrid  ... OptM3 with GC (2021)
Angular Grid (max. ang.)         AngularGrid ... 2 (Lebedev-110)
Angular grid pruning method      GridPruning ... 4 (adaptive)
Weight generation scheme         WeightScheme... mBecke (2022)
Basis function cutoff            BFCut       ... 1.0000e-11
Integration weight cutoff        WCut        ... 1.0000e-14
Partially contracted basis set               ... on
Rotationally invariant grid construction     ... off
Angular grids for H and He will be reduced by one unit
Diffuse basis detected: some atoms will have their outermost
                        angular grid increased by 1.

Total number of grid points                  ...    10286
Total number of batches                      ...       84
Average number of points per batch           ...      122
Average number of grid points per atom       ...     1469
UseSFitting                                  ... on

GRIDX 3
-------
General Integration Accuracy     IntAcc      ... 4.338
Radial Grid Type                 RadialGrid  ... OptM3 with GC (2021)
Angular Grid (max. ang.)         AngularGrid ... 3 (Lebedev-194)
Angular grid pruning method      GridPruning ... 4 (adaptive)
Weight generation scheme         WeightScheme... mBecke (2022)
Basis function cutoff            BFCut       ... 1.0000e-11
Integration weight cutoff        WCut        ... 1.0000e-14
Partially contracted basis set               ... on
Rotationally invariant grid construction     ... off
Angular grids for H and He will be reduced by one unit
Diffuse basis detected: some atoms will have their outermost
                        angular grid increased by 1.

Total number of grid points                  ...    23153
Total number of batches                      ...      185
Average number of points per batch           ...      125
Average number of grid points per atom       ...     3308
UseSFitting                                  ... on
Initializing property integral containers    ... done (  0.0 sec)

SHARK setup successfully completed in   0.3 seconds

Maximum memory used throughout the entire STARTUP-calculation: 13.8 MB
[1741043937.618584] [ohm:351509:0]        ib_iface.c:1059 UCX  ERROR ibv_create_cq(cqe=256) failed: Connection timed out
[1741043937.618584] [ohm:351514:0]        ib_iface.c:1059 UCX  ERROR ibv_create_cq(cqe=256) failed: Connection timed out
[1741043937.618632] [ohm:351512:0]        ib_iface.c:1059 UCX  ERROR ibv_create_cq(cqe=256) failed: Connection timed out
[1741043937.618741] [ohm:351523:0]        ib_iface.c:1059 UCX  ERROR ibv_create_cq(cqe=256) failed: Connection timed out
[1741043937.705236] [ohm:351511:0]        ib_iface.c:1059 UCX  ERROR ibv_create_cq(cqe=256) failed: Connection timed out
[1741043937.705236] [ohm:351534:0]        ib_iface.c:1059 UCX  ERROR ibv_create_cq(cqe=256) failed: Connection timed out
[1741043937.705302] [ohm:351541:0]        ib_iface.c:1059 UCX  ERROR ibv_create_cq(cqe=256) failed: Connection timed out
[1741043937.705308] [ohm:351533:0]        ib_iface.c:1059 UCX  ERROR ibv_create_cq(cqe=256) failed: Connection timed out
[1741043937.713347] [ohm:351545:0]        ib_iface.c:1059 UCX  ERROR ibv_create_cq(cqe=256) failed: Connection timed out
[1741043937.713337] [ohm:351536:0]        ib_iface.c:1059 UCX  ERROR ibv_create_cq(cqe=256) failed: Connection timed out
[1741043937.713346] [ohm:351539:0]        ib_iface.c:1059 UCX  ERROR ibv_create_cq(cqe=256) failed: Connection timed out
[1741043937.713367] [ohm:351542:0]        ib_iface.c:1059 UCX  ERROR ibv_create_cq(cqe=256) failed: Connection timed out
[1741043937.713546] [ohm:351537:0]        ib_iface.c:1059 UCX  ERROR ibv_create_cq(cqe=256) failed: Connection timed out
[1741043937.718049] [ohm:351566:0]        ib_iface.c:1059 UCX  ERROR ibv_create_cq(cqe=256) failed: Connection timed out
[1741043937.720813] [ohm:351517:0]        ib_iface.c:1059 UCX  ERROR ibv_create_cq(cqe=256) failed: Connection timed out
[1741043937.720845] [ohm:351552:0]        ib_iface.c:1059 UCX  ERROR ibv_create_cq(cqe=256) failed: Connection timed out
[1741043937.731163] [ohm:351510:0]        ib_iface.c:1059 UCX  ERROR ibv_create_cq(cqe=256) failed: Connection timed out
[1741043937.731304] [ohm:351547:0]        ib_iface.c:1059 UCX  ERROR ibv_create_cq(cqe=256) failed: Connection timed out
[1741043937.731472] [ohm:351513:0]        ib_iface.c:1059 UCX  ERROR ibv_create_cq(cqe=256) failed: Connection timed out
[1741043937.732007] [ohm:351516:0]        ib_iface.c:1059 UCX  ERROR ibv_create_cq(cqe=256) failed: Connection timed out
[1741043937.733213] [ohm:351527:0]        ib_iface.c:1059 UCX  ERROR ibv_create_cq(cqe=256) failed: Connection timed out
[1741043937.733586] [ohm:351540:0]        ib_iface.c:1059 UCX  ERROR ibv_create_cq(cqe=256) failed: Connection timed out
[1741043937.733634] [ohm:351563:0]        ib_iface.c:1059 UCX  ERROR ibv_create_cq(cqe=256) failed: Connection timed out
[1741043937.733701] [ohm:351535:0]        ib_iface.c:1059 UCX  ERROR ibv_create_cq(cqe=256) failed: Connection timed out
[1741043937.733642] [ohm:351538:0]        ib_iface.c:1059 UCX  ERROR ibv_create_cq(cqe=256) failed: Connection timed out
[1741043937.733728] [ohm:351543:0]        ib_iface.c:1059 UCX  ERROR ibv_create_cq(cqe=256) failed: Connection timed out
[1741043937.733654] [ohm:351546:0]        ib_iface.c:1059 UCX  ERROR ibv_create_cq(cqe=256) failed: Connection timed out
[1741043937.733823] [ohm:351508:0]        ib_iface.c:1059 UCX  ERROR ibv_create_cq(cqe=256) failed: Connection timed out
[1741043937.733910] [ohm:351555:0]        ib_iface.c:1059 UCX  ERROR ibv_create_cq(cqe=256) failed: Connection timed out
[1741043937.733958] [ohm:351515:0]        ib_iface.c:1059 UCX  ERROR ibv_create_cq(cqe=256) failed: Connection timed out
[1741043937.734103] [ohm:351531:0]        ib_iface.c:1059 UCX  ERROR ibv_create_cq(cqe=256) failed: Connection timed out
[1741043937.733915] [ohm:351544:0]        ib_iface.c:1059 UCX  ERROR ibv_create_cq(cqe=256) failed: Connection timed out


           ************************************************************
           *        Program running with 32 parallel MPI-processes    *
           *              working on a common directory               *
           ************************************************************
-------------------------------------------------------------------------------
                                 ORCA GUESS
                   Start orbitals & Density for SCF / CASSCF
-------------------------------------------------------------------------------

------------
SCF SETTINGS
------------
Hamiltonian:
 Density Functional     Method          .... DFT(GTOs)
  Functional kind                       .... Exchange-Correlation
  Functional name                       .... wB97M-V exchange-correlation functional
  Functional family                     .... Hybrid MGGA
  Functional refs                              
    [ 0] N. Mardirossian and M. Head-Gordon.,  J. Chem. Phys. 144, 214110 (2016), doi: 10.1063/1.4952647
  Fraction of HF Exchange (short range) .... 0.1500
  Fraction of HF Exchange (long range)  .... 1.0000
  Range separation parameter mu         .... 0.3000
  Functional external parameters        .... 17
    Parameter  0 _cx00      =  8.500000e-01 : u^00 coefficient for exchange
    Parameter  1 _cx01      =  1.007000e+00 : u^01 coefficient for exchange
    Parameter  2 _cx10      =  2.590000e-01 : u^10 coefficient for exchange
    Parameter  3 _css00     =  4.430000e-01 : u^00 coefficient for same-spin correlation
    Parameter  4 _css04     = -1.437000e+00 : u^04 coefficient for same-spin correlation
    Parameter  5 _css10     = -4.535000e+00 : u^10 coefficient for same-spin correlation
    Parameter  6 _css20     = -3.390000e+00 : u^20 coefficient for same-spin correlation
    Parameter  7 _css43     =  4.278000e+00 : u^43 coefficient for same-spin correlation
    Parameter  8 _cos00     =  1.000000e+00 : u^00 coefficient for opposite-spin correlation
    Parameter  9 _cos10     =  1.358000e+00 : u^10 coefficient for opposite-spin correlation
    Parameter 10 _cos20     =  2.924000e+00 : u^20 coefficient for opposite-spin correlation
    Parameter 11 _cos21     = -8.812000e+00 : u^21 coefficient for opposite-spin correlation
    Parameter 12 _cos60     = -1.390000e+00 : u^60 coefficient for opposite-spin correlation
    Parameter 13 _cos61     =  9.142000e+00 : u^61 coefficient for opposite-spin correlation
    Parameter 14 _alpha     =  1.000000e+00 : fraction of HF exchange
    Parameter 15 _beta      = -8.500000e-01 : fraction of short-range exchange
    Parameter 16 _omega     =  3.000000e-01 : range-separation constant
 Long-range corrected/Screened/Range-Separated Hybrid DFT is turned on
   Amount of maximum screened exact exchange              ....  0.850000
   Range separation parameter mu (erf(mu*r12)/r12)        ....  0.300000
 RI-approximation to the Coulomb term is turned on
   Number of AuxJ basis functions       .... 191
   RIJ-COSX (HFX calculated with COS-X)).... on


General Settings:
 Integral files         IntName         .... orca
 Hartree-Fock type      HFTyp           .... UHF
 Total Charge           Charge          ....    0
 Multiplicity           Mult            ....    3
 Number of Electrons    NEL             ....   24
 Basis Dimension        Dim             ....  182
 Nuclear Repulsion      ENuc            ....     65.6257850348 Eh

Convergence Acceleration:
 AO-DIIS                CNVDIIS         .... on
   Start iteration      DIISMaxIt       ....    12
   Startup error        DIISStart       ....  0.200000
   # of expansion vecs  DIISMaxEq       ....     5
   Bias factor          DIISBfac        ....   1.050
   Max. coefficient     DIISMaxC        ....  10.000
 MO-DIIS                CNVKDIIS        .... off
 Trust-Rad. Augm. Hess. CNVTRAH         .... auto
   Auto Start mean grad. ratio tolernc. ....  1.125000
   Auto Start start iteration           ....    50
   Auto Start num. interpolation iter.  ....    10
   Max. Number of Micro iterations      ....    24
   Max. Number of Macro iterations      .... Maxiter - #DIIS iter
   Number of Davidson start vectors     ....     2
   Converg. threshold    (grad. norm)   ....   1.000e-05
   Grad. Scal. Fac. for Micro threshold ....   0.100
   Minimum threshold for Micro iter.    ....   1.000e-02
   NR start threshold (gradient norm)   ....   1.000e-04
   Initial trust radius                 ....   0.400
   Minimum AH scaling param. (alpha)    ....   1.000
   Maximum AH scaling param. (alpha)    .... 1000.000
   Quad. conv. algorithm                .... NR
   White noise on init. David. guess    .... on
   Maximum white noise                  ....   0.010
   Pseudo random numbers                .... off
   Inactive MOs                         .... canonical
   Orbital update algorithm             .... Taylor
   Preconditioner                       .... Diag
   Full preconditioner red. dimension   ....   250
 SOSCF                  CNVSOSCF        .... on
   Start iteration      SOSCFMaxIt      ....   150
   Startup grad/error   SOSCFStart      ....  0.003300
   Hessian update       SOSCFHessUp     .... L-BFGS
 Level Shifting         CNVShift        .... on
   Level shift para.    LevelShift      ....    0.2500
   Turn off err/grad.   ShiftErr        ....    0.0010
 Zerner damping         CNVZerner       .... off
 Static damping         CNVDamp         .... on
   Fraction old density DampFac         ....    0.7000
   Max. Damping (<1)    DampMax         ....    0.9800
   Min. Damping (>=0)   DampMin         ....    0.0000
   Turn off err/grad.   DampErr         ....    0.1000

SCF Procedure:
 Maximum # iterations   MaxIter         ....   125
 SCF integral mode      SCFMode         .... Direct
   Integral package                     .... SHARK and LIBINT hybrid scheme
 Reset frequency        DirectResetFreq ....    20
 Integral Threshold     Thresh          ....  2.500e-11 Eh
 Primitive CutOff       TCut            ....  2.500e-12 Eh

Convergence Tolerance:
 Convergence Check Mode ConvCheckMode   .... Total+1el-Energy
 Convergence forced     ConvForced      .... 1
 Energy Change          TolE            ....  1.000e-08 Eh
 1-El. energy change                    ....  1.000e-05 Eh
 Orbital Gradient       TolG            ....  1.000e-05
 Orbital Rotation angle TolX            ....  1.000e-05
 DIIS Error             TolErr          ....  5.000e-07

------------------------------
INITIAL GUESS: MODEL POTENTIAL
------------------------------
Loading Hartree-Fock densities                     ... done
Calculating cut-offs                               ... done
Initializing the effective Hamiltonian             ... done
Setting up the integral package (SHARK)            ... done
Starting the Coulomb interaction                   ... done (   0.0 sec)
Making the grid                                    ... done (   0.0 sec)
Mapping shells                                     ... done
Starting the XC term evaluation                    ... done (   0.0 sec)
  promolecular density results
     # of electrons  =     23.997908200
     EX              =    -19.445103558
     EC              =     -0.761647538
     EX+EC           =    -20.206751096
Transforming the Hamiltonian                       ... done (   0.0 sec)
Diagonalizing the Hamiltonian                      ... done (   0.0 sec)
Back transforming the eigenvectors                 ... done (   0.0 sec)
Now organizing SCF variables                       ... done
                      ------------------
                      INITIAL GUESS DONE (   0.1 sec)
                      ------------------
             **** ENERGY FILE WAS UPDATED (orca.en.tmp) ****
Finished Guess after   0.7 sec
Maximum memory used throughout the entire GUESS-calculation: 9.6 MB
[1741043938.628715] [ohm:351698:0]        ib_iface.c:1059 UCX  ERROR ibv_create_cq(cqe=256) failed: Connection timed out
[1741043938.628708] [ohm:351688:0]        ib_iface.c:1059 UCX  ERROR ibv_create_cq(cqe=256) failed: Connection timed out
[1741043938.628703] [ohm:351700:0]        ib_iface.c:1059 UCX  ERROR ibv_create_cq(cqe=256) failed: Connection timed out
[1741043938.629478] [ohm:351687:0]        ib_iface.c:1059 UCX  ERROR ibv_create_cq(cqe=256) failed: Connection timed out
[1741043938.629810] [ohm:351694:0]        ib_iface.c:1059 UCX  ERROR ibv_create_cq(cqe=256) failed: Connection timed out
[1741043938.636592] [ohm:351706:0]        ib_iface.c:1059 UCX  ERROR ibv_create_cq(cqe=256) failed: Connection timed out
[1741043938.637838] [ohm:351691:0]        ib_iface.c:1059 UCX  ERROR ibv_create_cq(cqe=256) failed: Connection timed out
[1741043938.640036] [ohm:351705:0]        ib_iface.c:1059 UCX  ERROR ibv_create_cq(cqe=256) failed: Connection timed out
[1741043938.648246] [ohm:351693:0]        ib_iface.c:1059 UCX  ERROR ibv_create_cq(cqe=256) failed: Connection timed out
[1741043938.652319] [ohm:351689:0]        ib_iface.c:1059 UCX  ERROR ibv_create_cq(cqe=256) failed: Connection timed out
[1741043938.676042] [ohm:351702:0]        ib_iface.c:1059 UCX  ERROR ibv_create_cq(cqe=256) failed: Connection timed out
[1741043938.693177] [ohm:351709:0]        ib_iface.c:1059 UCX  ERROR ibv_create_cq(cqe=256) failed: Connection timed out
[1741043938.693177] [ohm:351733:0]        ib_iface.c:1059 UCX  ERROR ibv_create_cq(cqe=256) failed: Connection timed out
[1741043938.693177] [ohm:351730:0]        ib_iface.c:1059 UCX  ERROR ibv_create_cq(cqe=256) failed: Connection timed out
[1741043938.693241] [ohm:351723:0]        ib_iface.c:1059 UCX  ERROR ibv_create_cq(cqe=256) failed: Connection timed out
[1741043938.693270] [ohm:351714:0]        ib_iface.c:1059 UCX  ERROR ibv_create_cq(cqe=256) failed: Connection timed out
[1741043938.693406] [ohm:351738:0]        ib_iface.c:1059 UCX  ERROR ibv_create_cq(cqe=256) failed: Connection timed out
[1741043938.698612] [ohm:351707:0]        ib_iface.c:1059 UCX  ERROR ibv_create_cq(cqe=256) failed: Connection timed out
[1741043938.708680] [ohm:351692:0]        ib_iface.c:1059 UCX  ERROR ibv_create_cq(cqe=256) failed: Connection timed out
[1741043938.708945] [ohm:351696:0]        ib_iface.c:1059 UCX  ERROR ibv_create_cq(cqe=256) failed: Connection timed out
[1741043938.711527] [ohm:351713:0]        ib_iface.c:1059 UCX  ERROR ibv_create_cq(cqe=256) failed: Connection timed out
[1741043938.711982] [ohm:351704:0]        ib_iface.c:1059 UCX  ERROR ibv_create_cq(cqe=256) failed: Connection timed out
[1741043938.712308] [ohm:351690:0]        ib_iface.c:1059 UCX  ERROR ibv_create_cq(cqe=256) failed: Connection timed out
[1741043938.715974] [ohm:351744:0]        ib_iface.c:1059 UCX  ERROR ibv_create_cq(cqe=256) failed: Connection timed out
[1741043938.716710] [ohm:351699:0]        ib_iface.c:1059 UCX  ERROR ibv_create_cq(cqe=256) failed: Connection timed out
[1741043938.716710] [ohm:351701:0]        ib_iface.c:1059 UCX  ERROR ibv_create_cq(cqe=256) failed: Connection timed out
[1741043938.716711] [ohm:351708:0]        ib_iface.c:1059 UCX  ERROR ibv_create_cq(cqe=256) failed: Connection timed out
[1741043938.716717] [ohm:351725:0]        ib_iface.c:1059 UCX  ERROR ibv_create_cq(cqe=256) failed: Connection timed out
[1741043938.716710] [ohm:351695:0]        ib_iface.c:1059 UCX  ERROR ibv_create_cq(cqe=256) failed: Connection timed out
[1741043938.716814] [ohm:351716:0]        ib_iface.c:1059 UCX  ERROR ibv_create_cq(cqe=256) failed: Connection timed out
[1741043938.716834] [ohm:351703:0]        ib_iface.c:1059 UCX  ERROR ibv_create_cq(cqe=256) failed: Connection timed out
[1741043938.716870] [ohm:351697:0]        ib_iface.c:1059 UCX  ERROR ibv_create_cq(cqe=256) failed: Connection timed out


           ************************************************************
           *        Program running with 32 parallel MPI-processes    *
           *              working on a common directory               *
           ************************************************************

-------------------------------------------------------------------------------------------
                                      ORCA LEAN-SCF
                              memory conserving SCF solver
-------------------------------------------------------------------------------------------

----------------------------------------D-I-I-S--------------------------------------------
Iteration    Energy (Eh)           Delta-E    RMSDP     MaxDP     DIISErr   Damp  Time(sec)
-------------------------------------------------------------------------------------------
               ***  Starting incremental Fock matrix formation  ***
    1    -153.7259442925652024     0.00e+00  7.62e-04  2.20e-02  8.06e-02  0.700   0.3
    2    -153.7498236827032656    -2.39e-02  6.81e-04  2.05e-02  4.81e-02  0.700   0.3
                               ***Turning on AO-DIIS***
    3    -153.7630293311194407    -1.32e-02  5.38e-04  1.75e-02  2.46e-02  0.700   0.2
    4    -153.7712109477406841    -8.18e-03  1.30e-03  4.03e-02  1.62e-02  0.000   0.2
    5    -153.7900291235353905    -1.88e-02  1.18e-04  4.76e-03  4.50e-03  0.000   0.2
                              *** Initializing SOSCF ***
---------------------------------------S-O-S-C-F--------------------------------------
Iteration    Energy (Eh)           Delta-E    RMSDP     MaxDP     MaxGrad    Time(sec)
--------------------------------------------------------------------------------------
    6    -153.7904545638000968    -4.25e-04  7.14e-05  2.05e-03  3.18e-03     0.3
               *** Restarting incremental Fock matrix formation ***
    7    -153.7906903187080161    -2.36e-04  4.75e-05  1.24e-03  3.01e-03     0.3
    8    -153.7907837736057957    -9.35e-05  7.44e-05  2.05e-03  2.22e-03     0.2
    9    -153.7908266667279804    -4.29e-05  2.08e-05  6.48e-04  1.27e-03     0.2
   10    -153.7908366013416526    -9.93e-06  5.60e-06  1.37e-04  1.39e-04     0.2
   11    -153.7908370675843059    -4.66e-07  2.41e-06  5.33e-05  8.14e-05     0.2
   12    -153.7908372488064401    -1.81e-07  2.00e-06  6.73e-05  4.58e-05     0.2
   13    -153.7908373149068382    -6.61e-08  1.08e-06  4.10e-05  3.52e-05     0.3
   14    -153.7908373371933521    -2.23e-08  9.11e-07  3.21e-05  2.60e-05     0.2
   15    -153.7908373475872281    -1.04e-08  8.52e-07  2.88e-05  1.69e-05     0.2
   16    -153.7908373524272463    -4.84e-09  4.97e-07  1.88e-05  1.20e-05     0.2
                 **** Energy Check signals convergence ****

               *****************************************************
               *                     SUCCESS                       *
               *           SCF CONVERGED AFTER  16 CYCLES          *
               *****************************************************

Recomputing exchange energy using gridx3       ... done (    0.250 sec)
Old exchange energy                            :     -6.183322940 Eh
New exchange energy                            :     -6.183314042 Eh
Exchange energy change after final integration :      0.000008898 Eh
Total energy after final integration           :   -153.790828454 Eh
             **** ENERGY FILE WAS UPDATED (orca.en.tmp) ****

----------------
TOTAL SCF ENERGY
----------------

Total Energy       :       -153.79082845411079 Eh           -4184.86120 eV

Components:
Nuclear Repulsion  :         65.62578503480711 Eh            1785.76840 eV
Electronic Energy  :       -219.41662238723436 Eh           -5970.62984 eV
One Electron Energy:       -337.73929965053389 Eh           -9190.35357 eV
Two Electron Energy:        118.32267726329954 Eh            3219.72374 eV

Virial components:
Potential Energy   :       -306.86568791763318 Eh           -8350.23989 eV
Kinetic Energy     :        153.07485946352242 Eh            4165.37869 eV
Virial Ratio       :          2.00467724741409

DFT components:
N(Alpha)           :       12.999982145930 electrons
N(Beta)            :       10.999985593314 electrons
N(Total)           :       23.999967739244 electrons
E(XC)              :      -14.657186882999 Eh       

---------------
SCF CONVERGENCE
---------------

  Last Energy change         ...    4.8400e-09  Tolerance :   1.0000e-08
  Last MAX-Density change    ...    1.8774e-05  Tolerance :   1.0000e-07
  Last RMS-Density change    ...    4.9738e-07  Tolerance :   5.0000e-09
  Last DIIS Error            ...    3.1776e-03  Tolerance :   5.0000e-07
  Last Orbital Gradient      ...    1.1966e-05  Tolerance :   1.0000e-05
  Last Orbital Rotation      ...    1.1064e-04  Tolerance :   1.0000e-05


----------------------
UHF SPIN CONTAMINATION
----------------------

Warning: in a DFT calculation there is little theoretical justification to 
         calculate <S**2> as in Hartree-Fock theory. We will do it anyways
         but you should keep in mind that the values have only limited relevance

Expectation value of <S**2>     :     2.005914
Ideal value S*(S+1) for S=1.0   :     2.000000
Deviation                       :     0.005914

----------------
ORBITAL ENERGIES
----------------
                 SPIN UP ORBITALS
  NO   OCC          E(Eh)            E(eV) 
   0   1.0000     -19.427945      -528.6613 
   1   1.0000     -10.404065      -283.1090 
   2   1.0000     -10.373981      -282.2904 
   3   1.0000      -1.189127       -32.3578 
   4   1.0000      -0.874841       -23.8056 
   5   1.0000      -0.731537       -19.9061 
   6   1.0000      -0.609696       -16.5907 
   7   1.0000      -0.576354       -15.6834 
   8   1.0000      -0.551822       -15.0158 
   9   1.0000      -0.502163       -13.6646 
  10   1.0000      -0.498098       -13.5539 
  11   1.0000      -0.461805       -12.5664 
  12   1.0000      -0.264692        -7.2026 
  13   0.0000       0.040039         1.0895 
  14   0.0000       0.058639         1.5957 
  15   0.0000       0.080548         2.1918 
  16   0.0000       0.090442         2.4610 
  17   0.0000       0.105371         2.8673 
  18   0.0000       0.119979         3.2648 
  19   0.0000       0.142342         3.8733 
  20   0.0000       0.148687         4.0460 
  21   0.0000       0.163905         4.4601 
  22   0.0000       0.168269         4.5788 
  23   0.0000       0.187847         5.1116 

                 SPIN DOWN ORBITALS
  NO   OCC          E(Eh)            E(eV) 
   0   1.0000     -19.399311      -527.8821 
   1   1.0000     -10.392220      -282.7867 
   2   1.0000     -10.373496      -282.2772 
   3   1.0000      -1.120410       -30.4879 
   4   1.0000      -0.858156       -23.3516 
   5   1.0000      -0.692156       -18.8345 
   6   1.0000      -0.566716       -15.4211 
   7   1.0000      -0.529752       -14.4153 
   8   1.0000      -0.518164       -14.1000 
   9   1.0000      -0.488751       -13.2996 
  10   1.0000      -0.451190       -12.2775 
  11   0.0000      -0.078127        -2.1259 
  12   0.0000       0.040434         1.1003 
  13   0.0000       0.048374         1.3163 
  14   0.0000       0.059292         1.6134 
  15   0.0000       0.080850         2.2000 
  16   0.0000       0.091207         2.4819 
  17   0.0000       0.106767         2.9053 
  18   0.0000       0.120935         3.2908 
  19   0.0000       0.144790         3.9399 
  20   0.0000       0.149178         4.0594 
  21   0.0000       0.167556         4.5594 
*Only the first 10 virtual orbitals were printed.

                    ********************************
                    * MULLIKEN POPULATION ANALYSIS *
                    ********************************

--------------------------------------------
MULLIKEN ATOMIC CHARGES AND SPIN POPULATIONS
--------------------------------------------
   0 O :   -0.292134    1.028027
   1 C :   -0.042666    0.814020
   2 C :   -0.519373    0.036739
   3 H :    0.245026    0.038517
   4 H :    0.195745    0.034295
   5 H :    0.212417    0.037478
   6 H :    0.200985    0.010925
Sum of atomic charges         :    0.0000000
Sum of atomic spin populations:    2.0000000

-----------------------------------------------------
MULLIKEN REDUCED ORBITAL CHARGES AND SPIN POPULATIONS
-----------------------------------------------------
CHARGE
  0 O s       :     4.003946  s :     4.003946
      pz      :     1.162725  p :     4.247320
      px      :     1.745085
      py      :     1.339511
      dz2     :     0.007166  d :     0.039540
      dxz     :     0.007664
      dyz     :     0.008953
      dx2y2   :     0.007803
      dxy     :     0.007954
      f0      :     0.000102  f :     0.001328
      f+1     :     0.000081
      f-1     :     0.000248
      f+2     :     0.000289
      f-2     :     0.000291
      f+3     :     0.000160
      f-3     :     0.000157

  1 C s       :     3.390321  s :     3.390321
      pz      :     0.810435  p :     2.552342
      px      :     1.006390
      py      :     0.735517
      dz2     :     0.029445  d :     0.089100
      dxz     :     0.013837
      dyz     :     0.007668
      dx2y2   :     0.017669
      dxy     :     0.020481
      f0      :     0.001077  f :     0.010903
      f+1     :     0.000589
      f-1     :     0.001776
      f+2     :     0.001975
      f-2     :     0.001945
      f+3     :     0.001616
      f-3     :     0.001926

  2 C s       :     3.247689  s :     3.247689
      pz      :     1.163506  p :     3.162638
      px      :     1.107411
      py      :     0.891721
      dz2     :     0.005330  d :     0.106296
      dxz     :     0.023603
      dyz     :     0.015951
      dx2y2   :     0.034110
      dxy     :     0.027302
      f0      :     0.000223  f :     0.002751
      f+1     :     0.000097
      f-1     :     0.000324
      f+2     :     0.000273
      f-2     :     0.000384
      f+3     :     0.000690
      f-3     :     0.000760

  3 H s       :     0.719905  s :     0.719905
      pz      :     0.006672  p :     0.032236
      px      :     0.019689
      py      :     0.005874
      dz2     :     0.000894  d :     0.002833
      dxz     :     0.000927
      dyz     :     0.000768
      dx2y2   :     0.000100
      dxy     :     0.000144

  4 H s       :     0.763859  s :     0.763859
      pz      :     0.019017  p :     0.038317
      px      :     0.007865
      py      :     0.011435
      dz2     :     0.000443  d :     0.002079
      dxz     :     0.000333
      dyz     :     0.000366
      dx2y2   :     0.000522
      dxy     :     0.000415

  5 H s       :     0.743148  s :     0.743148
      pz      :     0.019185  p :     0.042207
      px      :     0.020556
      py      :     0.002465
      dz2     :     0.000493  d :     0.002228
      dxz     :     0.000496
      dyz     :     0.000219
      dx2y2   :     0.000370
      dxy     :     0.000650

  6 H s       :     0.753574  s :     0.753574
      pz      :     0.012233  p :     0.043264
      px      :     0.015353
      py      :     0.015678
      dz2     :     0.000655  d :     0.002178
      dxz     :     0.000573
      dyz     :     0.000545
      dx2y2   :     0.000198
      dxy     :     0.000206


SPIN
  0 O s       :    -0.010139  s :    -0.010139
      pz      :     0.564788  p :     1.032690
      px      :     0.155425
      py      :     0.312477
      dz2     :    -0.002946  d :     0.005592
      dxz     :     0.003170
      dyz     :     0.001532
      dx2y2   :     0.001696
      dxy     :     0.002141
      f0      :    -0.000061  f :    -0.000115
      f+1     :     0.000006
      f-1     :    -0.000074
      f+2     :    -0.000023
      f-2     :    -0.000016
      f+3     :     0.000019
      f-3     :     0.000034

  1 C s       :     0.014883  s :     0.014883
      pz      :     0.019765  p :     0.749184
      px      :     0.632049
      py      :     0.097371
      dz2     :     0.028640  d :     0.049680
      dxz     :     0.013328
      dyz     :     0.003219
      dx2y2   :     0.002504
      dxy     :     0.001990
      f0      :     0.000163  f :     0.000273
      f+1     :     0.000023
      f-1     :     0.000693
      f+2     :     0.000004
      f-2     :     0.000049
      f+3     :    -0.000322
      f-3     :    -0.000336

  2 C s       :     0.022626  s :     0.022626
      pz      :    -0.007123  p :    -0.030823
      px      :    -0.029409
      py      :     0.005709
      dz2     :    -0.000816  d :     0.044155
      dxz     :     0.006677
      dyz     :     0.000827
      dx2y2   :     0.020580
      dxy     :     0.016887
      f0      :     0.000004  f :     0.000781
      f+1     :     0.000026
      f-1     :     0.000025
      f+2     :     0.000010
      f-2     :     0.000029
      f+3     :     0.000088
      f-3     :     0.000597

  3 H s       :     0.007677  s :     0.007677
      pz      :     0.003867  p :     0.029865
      px      :     0.021928
      py      :     0.004070
      dz2     :     0.000010  d :     0.000975
      dxz     :     0.000651
      dyz     :     0.000166
      dx2y2   :     0.000034
      dxy     :     0.000114

  4 H s       :     0.030017  s :     0.030017
      pz      :     0.001471  p :     0.004219
      px      :    -0.000199
      py      :     0.002946
      dz2     :     0.000005  d :     0.000059
      dxz     :     0.000024
      dyz     :    -0.000002
      dx2y2   :     0.000019
      dxy     :     0.000013

  5 H s       :     0.032522  s :     0.032522
      pz      :     0.001898  p :     0.004874
      px      :     0.002011
      py      :     0.000965
      dz2     :     0.000003  d :     0.000081
      dxz     :     0.000005
      dyz     :     0.000027
      dx2y2   :     0.000017
      dxy     :     0.000030

  6 H s       :     0.008224  s :     0.008224
      pz      :     0.001153  p :     0.002667
      px      :    -0.000045
      py      :     0.001558
      dz2     :     0.000006  d :     0.000034
      dxz     :     0.000005
      dyz     :     0.000011
      dx2y2   :     0.000007
      dxy     :     0.000005



                     *******************************
                     * LOEWDIN POPULATION ANALYSIS *
                     *******************************

-------------------------------------------
LOEWDIN ATOMIC CHARGES AND SPIN POPULATIONS
-------------------------------------------
   0 O :    0.086576    1.046560
   1 C :   -0.126080    0.661091
   2 C :    0.110397    0.133511
   3 H :   -0.033115    0.111936
   4 H :    0.006455    0.023583
   5 H :   -0.039726    0.024384
   6 H :   -0.004508   -0.001066

----------------------------------------------------
LOEWDIN REDUCED ORBITAL CHARGES AND SPIN POPULATIONS
----------------------------------------------------
CHARGE
  0 O s       :     3.496310  s :     3.496310
      pz      :     1.184129  p :     4.168310
      px      :     1.629604
      py      :     1.354577
      dz2     :     0.061378  d :     0.244614
      dxz     :     0.039946
      dyz     :     0.058304
      dx2y2   :     0.042419
      dxy     :     0.042568
      f0      :     0.000378  f :     0.004190
      f+1     :     0.000251
      f-1     :     0.000908
      f+2     :     0.000903
      f-2     :     0.000892
      f+3     :     0.000387
      f-3     :     0.000470

  1 C s       :     2.708301  s :     2.708301
      pz      :     0.868369  p :     2.590159
      px      :     0.853231
      py      :     0.868558
      dz2     :     0.120724  d :     0.757503
      dxz     :     0.095205
      dyz     :     0.240068
      dx2y2   :     0.148456
      dxy     :     0.153051
      f0      :     0.007999  f :     0.070117
      f+1     :     0.003626
      f-1     :     0.013087
      f+2     :     0.013908
      f-2     :     0.013669
      f+3     :     0.008082
      f-3     :     0.009747

  2 C s       :     2.658394  s :     2.658394
      pz      :     0.933567  p :     2.727663
      px      :     0.927009
      py      :     0.867087
      dz2     :     0.044599  d :     0.474516
      dxz     :     0.077924
      dyz     :     0.114792
      dx2y2   :     0.119774
      dxy     :     0.117426
      f0      :     0.003587  f :     0.029030
      f+1     :     0.001637
      f-1     :     0.004638
      f+2     :     0.004413
      f-2     :     0.003873
      f+3     :     0.005474
      f-3     :     0.005408

  3 H s       :     0.699597  s :     0.699597
      pz      :     0.123143  p :     0.298808
      px      :     0.099596
      py      :     0.076069
      dz2     :     0.011819  d :     0.034710
      dxz     :     0.010827
      dyz     :     0.009431
      dx2y2   :     0.001086
      dxy     :     0.001549

  4 H s       :     0.700138  s :     0.700138
      pz      :     0.090402  p :     0.267453
      px      :     0.091092
      py      :     0.085959
      dz2     :     0.005423  d :     0.025953
      dxz     :     0.004234
      dyz     :     0.005349
      dx2y2   :     0.005304
      dxy     :     0.005645

  5 H s       :     0.706875  s :     0.706875
      pz      :     0.100408  p :     0.301270
      px      :     0.126906
      py      :     0.073956
      dz2     :     0.006617  d :     0.031581
      dxz     :     0.008893
      dyz     :     0.002447
      dx2y2   :     0.006637
      dxy     :     0.006987

  6 H s       :     0.697507  s :     0.697507
      pz      :     0.118296  p :     0.279023
      px      :     0.080041
      py      :     0.080686
      dz2     :     0.008078  d :     0.027978
      dxz     :     0.007538
      dyz     :     0.007781
      dx2y2   :     0.002231
      dxy     :     0.002351


SPIN
  0 O s       :     0.010665  s :     0.010665
      pz      :     0.504286  p :     0.954923
      px      :     0.167638
      py      :     0.282999
      dz2     :     0.007185  d :     0.079570
      dxz     :     0.026021
      dyz     :     0.007492
      dx2y2   :     0.018763
      dxy     :     0.020109
      f0      :    -0.000018  f :     0.001402
      f+1     :     0.000086
      f-1     :     0.000095
      f+2     :     0.000398
      f-2     :     0.000406
      f+3     :     0.000086
      f-3     :     0.000349

  1 C s       :     0.009114  s :     0.009114
      pz      :     0.010466  p :     0.516993
      px      :     0.437777
      py      :     0.068750
      dz2     :     0.077924  d :     0.120416
      dxz     :     0.018795
      dyz     :     0.001215
      dx2y2   :     0.011754
      dxy     :     0.010727
      f0      :     0.002087  f :     0.014568
      f+1     :     0.001439
      f-1     :     0.005782
      f+2     :     0.001365
      f-2     :     0.000969
      f+3     :     0.000798
      f-3     :     0.002128

  2 C s       :     0.003431  s :     0.003431
      pz      :    -0.000263  p :     0.014523
      px      :     0.000540
      py      :     0.014246
      dz2     :     0.000938  d :     0.110249
      dxz     :     0.020758
      dyz     :     0.001099
      dx2y2   :     0.045835
      dxy     :     0.041619
      f0      :     0.000124  f :     0.005309
      f+1     :     0.000255
      f-1     :     0.000127
      f+2     :     0.000118
      f-2     :     0.000137
      f+3     :     0.000620
      f-3     :     0.003926

  3 H s       :     0.029169  s :     0.029169
      pz      :     0.004146  p :     0.072420
      px      :     0.059307
      py      :     0.008966
      dz2     :     0.000349  d :     0.010347
      dxz     :     0.007252
      dyz     :     0.001287
      dx2y2   :     0.000312
      dxy     :     0.001147

  4 H s       :     0.019635  s :     0.019635
      pz      :     0.000667  p :     0.003810
      px      :     0.000073
      py      :     0.003069
      dz2     :     0.000024  d :     0.000138
      dxz     :     0.000035
      dyz     :    -0.000036
      dx2y2   :     0.000141
      dxy     :    -0.000026

  5 H s       :     0.019743  s :     0.019743
      pz      :     0.000850  p :     0.004391
      px      :     0.002256
      py      :     0.001285
      dz2     :     0.000013  d :     0.000250
      dxz     :    -0.000046
      dyz     :     0.000111
      dx2y2   :    -0.000018
      dxy     :     0.000189

  6 H s       :    -0.000178  s :    -0.000178
      pz      :    -0.000136  p :    -0.001065
      px      :    -0.000628
      py      :    -0.000301
      dz2     :     0.000064  d :     0.000177
      dxz     :     0.000057
      dyz     :     0.000071
      dx2y2   :    -0.000011
      dxy     :    -0.000004



                      *****************************
                      * MAYER POPULATION ANALYSIS *
                      *****************************

  NA   - Mulliken gross atomic population
  ZA   - Total nuclear charge
  QA   - Mulliken gross atomic charge
  VA   - Mayer's total valence
  BVA  - Mayer's bonded valence
  FA   - Mayer's free valence

  ATOM       NA         ZA         QA         VA         BVA        FA
  0 O      8.2921     8.0000    -0.2921     2.0120     1.1916     0.8204
  1 C      6.0427     6.0000    -0.0427     3.3719     2.7932     0.5786
  2 C      6.5194     6.0000    -0.5194     3.7267     3.7226     0.0041
  3 H      0.7550     1.0000     0.2450     0.9398     0.9376     0.0022
  4 H      0.8043     1.0000     0.1957     1.0180     1.0170     0.0010
  5 H      0.7876     1.0000     0.2124     1.0123     1.0111     0.0012
  6 H      0.7990     1.0000     0.2010     1.0241     1.0239     0.0001

  Mayer bond orders larger than 0.100000
B(  0-O ,  1-C ) :   1.0699 B(  1-C ,  2-C ) :   0.7798 B(  1-C ,  3-H ) :   0.9316 
B(  2-C ,  4-H ) :   0.9739 B(  2-C ,  5-H ) :   0.9647 B(  2-C ,  6-H ) :   0.9780 


-------
TIMINGS
-------

Total SCF time: 0 days 0 hours 0 min 4 sec 

Total time                  ....       4.798 sec
Sum of individual times     ....       4.786 sec  ( 99.7%)

SCF preparation             ....       0.574 sec  ( 12.0%)
Fock matrix formation       ....       3.518 sec  ( 73.3%)
  Startup                   ....       0.041 sec  (  1.2% of F)
  Split-RI-J                ....       0.222 sec  (  6.3% of F)
  Chain of spheres X        ....       2.231 sec  ( 63.4% of F)
  XC integration            ....       0.894 sec  ( 25.4% of F)
    XC Preparation          ....       0.000 sec  (  0.0% of XC)
    Basis function eval.    ....       0.059 sec  (  6.6% of XC)
    Density eval.           ....       0.238 sec  ( 26.6% of XC)
    XC-Functional eval.     ....       0.022 sec  (  2.4% of XC)
    XC-Potential eval.      ....       0.356 sec  ( 39.8% of XC)
Diagonalization             ....       0.000 sec  (  0.0%)
Density matrix formation    ....       0.086 sec  (  1.8%)
Total Energy calculation    ....       0.062 sec  (  1.3%)
Population analysis         ....       0.026 sec  (  0.5%)
Orbital Transformation      ....       0.055 sec  (  1.2%)
Orbital Orthonormalization  ....       0.000 sec  (  0.0%)
DIIS solution               ....       0.273 sec  (  5.7%)
SOSCF solution              ....       0.189 sec  (  3.9%)
Finished LeanSCF after   4.8 sec

Maximum memory used throughout the entire LEANSCF-calculation: 14.5 MB
[1741043943.801754] [ohm:351877:0]        ib_iface.c:1059 UCX  ERROR ibv_create_cq(cqe=256) failed: Connection timed out
[1741043943.801830] [ohm:351885:0]        ib_iface.c:1059 UCX  ERROR ibv_create_cq(cqe=256) failed: Connection timed out
[1741043943.802363] [ohm:351881:0]        ib_iface.c:1059 UCX  ERROR ibv_create_cq(cqe=256) failed: Connection timed out
[1741043943.802504] [ohm:351879:0]        ib_iface.c:1059 UCX  ERROR ibv_create_cq(cqe=256) failed: Connection timed out
[1741043943.837978] [ohm:351883:0]        ib_iface.c:1059 UCX  ERROR ibv_create_cq(cqe=256) failed: Connection timed out
[1741043943.837983] [ohm:351886:0]        ib_iface.c:1059 UCX  ERROR ibv_create_cq(cqe=256) failed: Connection timed out
[1741043943.838080] [ohm:351901:0]        ib_iface.c:1059 UCX  ERROR ibv_create_cq(cqe=256) failed: Connection timed out
[1741043943.838113] [ohm:351889:0]        ib_iface.c:1059 UCX  ERROR ibv_create_cq(cqe=256) failed: Connection timed out
[1741043943.854057] [ohm:351890:0]        ib_iface.c:1059 UCX  ERROR ibv_create_cq(cqe=256) failed: Connection timed out
[1741043943.854056] [ohm:351920:0]        ib_iface.c:1059 UCX  ERROR ibv_create_cq(cqe=256) failed: Connection timed out
[1741043943.885131] [ohm:351875:0]        ib_iface.c:1059 UCX  ERROR ibv_create_cq(cqe=256) failed: Connection timed out
[1741043943.885866] [ohm:351898:0]        ib_iface.c:1059 UCX  ERROR ibv_create_cq(cqe=256) failed: Connection timed out
[1741043943.901612] [ohm:351893:0]        ib_iface.c:1059 UCX  ERROR ibv_create_cq(cqe=256) failed: Connection timed out
[1741043943.903139] [ohm:351897:0]        ib_iface.c:1059 UCX  ERROR ibv_create_cq(cqe=256) failed: Connection timed out
[1741043943.903411] [ohm:351906:0]        ib_iface.c:1059 UCX  ERROR ibv_create_cq(cqe=256) failed: Connection timed out
[1741043943.903447] [ohm:351894:0]        ib_iface.c:1059 UCX  ERROR ibv_create_cq(cqe=256) failed: Connection timed out
[1741043943.909430] [ohm:351910:0]        ib_iface.c:1059 UCX  ERROR ibv_create_cq(cqe=256) failed: Connection timed out
[1741043943.909527] [ohm:351876:0]        ib_iface.c:1059 UCX  ERROR ibv_create_cq(cqe=256) failed: Connection timed out
[1741043943.909514] [ohm:351895:0]        ib_iface.c:1059 UCX  ERROR ibv_create_cq(cqe=256) failed: Connection timed out
[1741043943.909739] [ohm:351884:0]        ib_iface.c:1059 UCX  ERROR ibv_create_cq(cqe=256) failed: Connection timed out
[1741043943.909897] [ohm:351888:0]        ib_iface.c:1059 UCX  ERROR ibv_create_cq(cqe=256) failed: Connection timed out
[1741043943.910629] [ohm:351880:0]        ib_iface.c:1059 UCX  ERROR ibv_create_cq(cqe=256) failed: Connection timed out
[1741043943.910708] [ohm:351899:0]        ib_iface.c:1059 UCX  ERROR ibv_create_cq(cqe=256) failed: Connection timed out
[1741043943.910723] [ohm:351914:0]        ib_iface.c:1059 UCX  ERROR ibv_create_cq(cqe=256) failed: Connection timed out
[1741043943.910670] [ohm:351887:0]        ib_iface.c:1059 UCX  ERROR ibv_create_cq(cqe=256) failed: Connection timed out
[1741043943.910682] [ohm:351892:0]        ib_iface.c:1059 UCX  ERROR ibv_create_cq(cqe=256) failed: Connection timed out
[1741043943.910710] [ohm:351882:0]        ib_iface.c:1059 UCX  ERROR ibv_create_cq(cqe=256) failed: Connection timed out
[1741043943.910878] [ohm:351896:0]        ib_iface.c:1059 UCX  ERROR ibv_create_cq(cqe=256) failed: Connection timed out
[1741043943.911126] [ohm:351891:0]        ib_iface.c:1059 UCX  ERROR ibv_create_cq(cqe=256) failed: Connection timed out
[1741043943.910938] [ohm:351900:0]        ib_iface.c:1059 UCX  ERROR ibv_create_cq(cqe=256) failed: Connection timed out
[1741043943.910958] [ohm:351927:0]        ib_iface.c:1059 UCX  ERROR ibv_create_cq(cqe=256) failed: Connection timed out
[1741043943.911003] [ohm:351878:0]        ib_iface.c:1059 UCX  ERROR ibv_create_cq(cqe=256) failed: Connection timed out


           ************************************************************
           *        Program running with 32 parallel MPI-processes    *
           *              working on a common directory               *
           ************************************************************

------------------------------------------------------------------------------
                         ORCA PROPERTY INTEGRAL CALCULATIONS
------------------------------------------------------------------------------

GBWName                                   ... orca.gbw
Number of atoms                           ...      7
Number of basis functions                 ...    182
Max core memory                           ...   1024 MB

Dipole integrals                          ... YES
Quadrupole integrals                      ...  NO
Linear momentum integrals                 ... YES
Angular momentum integrals                ... YES
Higher moments length integrals           ...  NO
Higher moments velocity integrals         ...  NO
Kinetic energy integrals                  ...  NO
GIAO right hand sides                     ...  NO
GIAO dipole derivative integrals          ...  NO
SOC integrals                             ...  NO
EPR diamagnetic integrals (GIAO)          ...  NO
EPR gauge integrals                       ...  NO
Field gradient integrals                  ...  NO (   0 nuclei)
Spin-dipole/Fermi contact integrals       ...  NO (   0 nuclei)
Contact density integrals                 ...  NO (   0 nuclei)
Nucleus-orbit integrals                   ...  NO (   0 nuclei)
Geometric perturbations                   ...  NO (   7 nuclei)

Choice of electric origin   ... Center of mass
Position of electric origin ... (  0.5517,  0.4999, -0.0092) 
Choice of magnetic origin   ... GIAO
Position of magnetic origin ... (  0.0000,  0.0000,  0.0000) 

Calculating integrals                     ... Electric Dipole (Length)     done (  0.0 sec)
Calculating integrals                     ... Linear Momentum              done (  0.0 sec)
Calculating integrals                     ... Angular Momentum  (ElOri)    done (  0.0 sec)

Property integrals calculated in   0.0 sec

Maximum memory used throughout the entire PROPINT-calculation: 10.2 MB
[1741043944.756621] [ohm:352046:0]        ib_iface.c:1059 UCX  ERROR ibv_create_cq(cqe=256) failed: Connection timed out
[1741043944.756882] [ohm:352050:0]        ib_iface.c:1059 UCX  ERROR ibv_create_cq(cqe=256) failed: Connection timed out
[1741043944.757679] [ohm:352049:0]        ib_iface.c:1059 UCX  ERROR ibv_create_cq(cqe=256) failed: Connection timed out
[1741043944.765787] [ohm:352052:0]        ib_iface.c:1059 UCX  ERROR ibv_create_cq(cqe=256) failed: Connection timed out
[1741043944.768936] [ohm:352043:0]        ib_iface.c:1059 UCX  ERROR ibv_create_cq(cqe=256) failed: Connection timed out
[1741043944.770421] [ohm:352054:0]        ib_iface.c:1059 UCX  ERROR ibv_create_cq(cqe=256) failed: Connection timed out
[1741043944.770419] [ohm:352062:0]        ib_iface.c:1059 UCX  ERROR ibv_create_cq(cqe=256) failed: Connection timed out
[1741043944.771217] [ohm:352067:0]        ib_iface.c:1059 UCX  ERROR ibv_create_cq(cqe=256) failed: Connection timed out
[1741043944.771478] [ohm:352069:0]        ib_iface.c:1059 UCX  ERROR ibv_create_cq(cqe=256) failed: Connection timed out
[1741043944.773412] [ohm:352090:0]        ib_iface.c:1059 UCX  ERROR ibv_create_cq(cqe=256) failed: Connection timed out
[1741043944.774252] [ohm:352057:0]        ib_iface.c:1059 UCX  ERROR ibv_create_cq(cqe=256) failed: Connection timed out
[1741043944.774958] [ohm:352045:0]        ib_iface.c:1059 UCX  ERROR ibv_create_cq(cqe=256) failed: Connection timed out
[1741043944.775694] [ohm:352047:0]        ib_iface.c:1059 UCX  ERROR ibv_create_cq(cqe=256) failed: Connection timed out
[1741043944.790310] [ohm:352063:0]        ib_iface.c:1059 UCX  ERROR ibv_create_cq(cqe=256) failed: Connection timed out
[1741043944.800294] [ohm:352064:0]        ib_iface.c:1059 UCX  ERROR ibv_create_cq(cqe=256) failed: Connection timed out
[1741043944.817189] [ohm:352051:0]        ib_iface.c:1059 UCX  ERROR ibv_create_cq(cqe=256) failed: Connection timed out
[1741043944.817188] [ohm:352061:0]        ib_iface.c:1059 UCX  ERROR ibv_create_cq(cqe=256) failed: Connection timed out
[1741043944.817183] [ohm:352079:0]        ib_iface.c:1059 UCX  ERROR ibv_create_cq(cqe=256) failed: Connection timed out
[1741043944.817346] [ohm:352055:0]        ib_iface.c:1059 UCX  ERROR ibv_create_cq(cqe=256) failed: Connection timed out
[1741043944.817410] [ohm:352092:0]        ib_iface.c:1059 UCX  ERROR ibv_create_cq(cqe=256) failed: Connection timed out
[1741043944.818482] [ohm:352088:0]        ib_iface.c:1059 UCX  ERROR ibv_create_cq(cqe=256) failed: Connection timed out
[1741043944.818507] [ohm:352058:0]        ib_iface.c:1059 UCX  ERROR ibv_create_cq(cqe=256) failed: Connection timed out
[1741043944.819232] [ohm:352044:0]        ib_iface.c:1059 UCX  ERROR ibv_create_cq(cqe=256) failed: Connection timed out
[1741043944.819296] [ohm:352048:0]        ib_iface.c:1059 UCX  ERROR ibv_create_cq(cqe=256) failed: Connection timed out
[1741043944.824379] [ohm:352056:0]        ib_iface.c:1059 UCX  ERROR ibv_create_cq(cqe=256) failed: Connection timed out
[1741043944.824408] [ohm:352065:0]        ib_iface.c:1059 UCX  ERROR ibv_create_cq(cqe=256) failed: Connection timed out
[1741043944.824413] [ohm:352077:0]        ib_iface.c:1059 UCX  ERROR ibv_create_cq(cqe=256) failed: Connection timed out
[1741043944.824529] [ohm:352060:0]        ib_iface.c:1059 UCX  ERROR ibv_create_cq(cqe=256) failed: Connection timed out
[1741043944.825305] [ohm:352053:0]        ib_iface.c:1059 UCX  ERROR ibv_create_cq(cqe=256) failed: Connection timed out
[1741043944.825285] [ohm:352059:0]        ib_iface.c:1059 UCX  ERROR ibv_create_cq(cqe=256) failed: Connection timed out
[1741043944.825301] [ohm:352066:0]        ib_iface.c:1059 UCX  ERROR ibv_create_cq(cqe=256) failed: Connection timed out
[1741043944.826305] [ohm:352042:0]        ib_iface.c:1059 UCX  ERROR ibv_create_cq(cqe=256) failed: Connection timed out


           ************************************************************
           *        Program running with 32 parallel MPI-processes    *
           *              working on a common directory               *
           ************************************************************
------------------------------------------------------------------------------
                        ORCA TD-DFT/TDA CALCULATION
------------------------------------------------------------------------------

Input orbitals are from        ... orca.gbw
CI-vector output               ... orca.cis
Solver                         ... FN-2001
Tamm-Dancoff approximation     ... operative
CIS-Integral strategy          ... AO-integrals
Integral handling              ... AO integral Direct
Max. core memory used          ... 512 MB
Reference state                ... UHF
Follow IRoot                   ... off
Number of operators            ... 2
Orbital ranges used for CIS calculation:
 Operator 0:  Orbitals   3... 12  to  11...181

-------------------
XC-INTEGRATION GRID
-------------------

General Integration Accuracy     IntAcc      ... 3.467
Radial Grid Type                 RadialGrid  ... OptM3 with GC (2021)
Angular Grid (max. ang.)         AngularGrid ... 1 (Lebedev-50)
Angular grid pruning method      GridPruning ... 4 (adaptive)
Weight generation scheme         WeightScheme... mBecke (2022)
Basis function cutoff            BFCut       ... 1.0000e-11
Integration weight cutoff        WCut        ... 1.0000e-14
Partially contracted basis set               ... off
Rotationally invariant grid construction     ... off
Angular grids for H and He will be reduced by one unit
Diffuse basis detected: some atoms will have their outermost
                        angular grid increased by 1.

Total number of grid points                  ...     4758
Total number of batches                      ...       77
[...]
=> NOW LEAVING ORCA_CIS


-------------------------------------------------------------------------------
                          DFT DISPERSION CORRECTION                            
                                                                               
                              DFTD3 V3.1  Rev 1                                
                          USING Becke-Johnson damping                          
-------------------------------------------------------------------------------
The WB97M functional is recognized
Active option DFTDOPT                   ...         4   

molecular C6(AA) [au] = 395.368185 


            DFT-D V3
 parameters
 s6 scaling factor         :     1.0000 
 a1 scaling factor         :     0.5660 
 s8 scaling factor         :     0.3908 
 a2 scaling factor         :     3.1280 
 ad hoc parameters k1-k3   :    16.0000     1.3333    -4.0000 

 Edisp/kcal,au: -3.319541001065  -0.005290024747 
 E6   /kcal   :  -2.677515758 
 E8   /kcal   :  -0.642025243 
 % E8         :  19.340783644 

-------------------------   ----------------
Dispersion correction           -0.005290025
-------------------------   ----------------


-------------------------   --------------------
FINAL SINGLE POINT ENERGY      -153.760909984495
-------------------------   --------------------

[1741043951.072194] [ohm:352262:0]        ib_iface.c:1059 UCX  ERROR ibv_create_cq(cqe=256) failed: Connection timed out
[1741043951.073429] [ohm:352244:0]        ib_iface.c:1059 UCX  ERROR ibv_create_cq(cqe=256) failed: Connection timed out
[1741043951.088629] [ohm:352255:0]        ib_iface.c:1059 UCX  ERROR ibv_create_cq(cqe=256) failed: Connection timed out
[1741043951.090301] [ohm:352251:0]        ib_iface.c:1059 UCX  ERROR ibv_create_cq(cqe=256) failed: Connection timed out
[1741043951.111756] [ohm:352249:0]        ib_iface.c:1059 UCX  ERROR ibv_create_cq(cqe=256) failed: Connection timed out
[1741043951.111805] [ohm:352270:0]        ib_iface.c:1059 UCX  ERROR ibv_create_cq(cqe=256) failed: Connection timed out
[1741043951.111783] [ohm:352247:0]        ib_iface.c:1059 UCX  ERROR ibv_create_cq(cqe=256) failed: Connection timed out
[1741043951.119477] [ohm:352256:0]        ib_iface.c:1059 UCX  ERROR ibv_create_cq(cqe=256) failed: Connection timed out
[1741043951.133706] [ohm:352287:0]        ib_iface.c:1059 UCX  ERROR ibv_create_cq(cqe=256) failed: Connection timed out
[1741043951.133709] [ohm:352275:0]        ib_iface.c:1059 UCX  ERROR ibv_create_cq(cqe=256) failed: Connection timed out
[1741043951.139874] [ohm:352246:0]        ib_iface.c:1059 UCX  ERROR ibv_create_cq(cqe=256) failed: Connection timed out
[1741043951.147487] [ohm:352265:0]        ib_iface.c:1059 UCX  ERROR ibv_create_cq(cqe=256) failed: Connection timed out
[1741043951.147940] [ohm:352261:0]        ib_iface.c:1059 UCX  ERROR ibv_create_cq(cqe=256) failed: Connection timed out
[1741043951.148760] [ohm:352268:0]        ib_iface.c:1059 UCX  ERROR ibv_create_cq(cqe=256) failed: Connection timed out
[1741043951.150140] [ohm:352260:0]        ib_iface.c:1059 UCX  ERROR ibv_create_cq(cqe=256) failed: Connection timed out
[1741043951.150136] [ohm:352252:0]        ib_iface.c:1059 UCX  ERROR ibv_create_cq(cqe=256) failed: Connection timed out
[1741043951.154937] [ohm:352267:0]        ib_iface.c:1059 UCX  ERROR ibv_create_cq(cqe=256) failed: Connection timed out
[1741043951.155178] [ohm:352263:0]        ib_iface.c:1059 UCX  ERROR ibv_create_cq(cqe=256) failed: Connection timed out
[1741043951.156946] [ohm:352257:0]        ib_iface.c:1059 UCX  ERROR ibv_create_cq(cqe=256) failed: Connection timed out
[1741043951.158105] [ohm:352250:0]        ib_iface.c:1059 UCX  ERROR ibv_create_cq(cqe=256) failed: Connection timed out
[1741043951.158252] [ohm:352248:0]        ib_iface.c:1059 UCX  ERROR ibv_create_cq(cqe=256) failed: Connection timed out
[1741043951.159448] [ohm:352296:0]        ib_iface.c:1059 UCX  ERROR ibv_create_cq(cqe=256) failed: Connection timed out
[1741043951.159587] [ohm:352254:0]        ib_iface.c:1059 UCX  ERROR ibv_create_cq(cqe=256) failed: Connection timed out
[1741043951.159702] [ohm:352266:0]        ib_iface.c:1059 UCX  ERROR ibv_create_cq(cqe=256) failed: Connection timed out
[1741043951.160264] [ohm:352259:0]        ib_iface.c:1059 UCX  ERROR ibv_create_cq(cqe=256) failed: Connection timed out
[1741043951.160609] [ohm:352264:0]        ib_iface.c:1059 UCX  ERROR ibv_create_cq(cqe=256) failed: Connection timed out
[1741043951.162256] [ohm:352258:0]        ib_iface.c:1059 UCX  ERROR ibv_create_cq(cqe=256) failed: Connection timed out
[1741043951.163005] [ohm:352253:0]        ib_iface.c:1059 UCX  ERROR ibv_create_cq(cqe=256) failed: Connection timed out
[1741043951.163541] [ohm:352269:0]        ib_iface.c:1059 UCX  ERROR ibv_create_cq(cqe=256) failed: Connection timed out
[1741043951.163662] [ohm:352282:0]        ib_iface.c:1059 UCX  ERROR ibv_create_cq(cqe=256) failed: Connection timed out
[1741043951.163521] [ohm:352276:0]        ib_iface.c:1059 UCX  ERROR ibv_create_cq(cqe=256) failed: Connection timed out
[1741043951.163160] [ohm:352245:0]        ib_iface.c:1059 UCX  ERROR ibv_create_cq(cqe=256) failed: Connection timed out


           ************************************************************
           *        Program running with 32 parallel MPI-processes    *
           *              working on a common directory               *
           ************************************************************

------------------------------------------------------------------------------
                              ORCA PROPERTY CALCULATIONS
------------------------------------------------------------------------------

GBWName                                 ... orca.gbw
Number of atoms                         ...      7
Number of basis functions               ...    182
Max core memory                         ...   1024 MB

Electric properties:
Dipole moment                           ... YES
Quadrupole moment                       ...  NO
Static polarizability (Dipole/Dipole)   ...  NO
Static polarizability (Dipole/Quad.)    ...  NO
Static polarizability (Quad./Quad.)     ...  NO
Static polarizability (Velocity)        ...  NO

Atomic electric properties:
Dipole moment                           ...  NO
Quadrupole moment                       ...  NO
Static polarizability                   ...  NO

Choice of electric origin               ... Center of mass
Position of electric origin             ...     0.551685     0.499945    -0.009205

General magnetic properties:
Magnetizability                         ...  NO

EPR properties:
g-Tensor (aka g-matrix)                 ...  NO
Zero-Field splitting spin-orbit         ...  NO
Zero-field splitting spin-spin          ...  NO
Hyperfine couplings                     ...  NO (   0 nuclei)
Quadrupole couplings                    ...  NO (   0 nuclei)
Contact density                         ...  NO (   0 nuclei)

NMR properties:
Chemical shifts                         ...  NO (   0 nuclei)
Spin-rotation constants                 ...  NO (   0 nuclei)
Spin-spin couplings                     ...  NO (   0 nuclei,    0 pairs)

Choice of magnetic origin               ... GIAO
Position of magnetic origin             ...     0.000000     0.000000     0.000000

Properties with geometric perturbations:
SCF Hessian                             ...  NO
IR spectrum                             ...  NO
VCD spectrum                            ...  NO
X-ray spectroscopy properties:
SCF XES/XAS/RIXS spectra                ...  NO


-------------
DIPOLE MOMENT
-------------

Method             : SCF
Type of density    : Electron Density
Multiplicity       :   3
Irrep              :   0
Energy             :  -153.7908284541107946 Eh
Relativity type    : 
Basis              : AO
                                X                 Y                 Z
Electronic contribution:      1.590522666       3.646925883      -1.106920334
Nuclear contribution   :     -1.880542777      -4.173657689       1.441665866
                        -----------------------------------------
Total Dipole Moment    :     -0.290020111      -0.526731806       0.334745532
                        -----------------------------------------
Magnitude (a.u.)       :      0.688195198
Magnitude (Debye)      :      1.749253179



--------------------
Rotational spectrum 
--------------------
 
Rotational constants in cm-1:             1.956911             0.286117             0.261143 
Rotational constants in MHz :         58666.702809          8577.563166          7828.868357 

Dipole components along the rotational axes: 
x,y,z [a.u.] :    -0.654193     0.206011     0.056602 
x,y,z [Debye]:    -1.662826     0.523639     0.143872 

 

-------------
DIPOLE MOMENT
-------------

Method             : TDA/CIS
Type of density    : Electron Density
Level              : Relaxed density
State              :   2
Multiplicity       :   3
Irrep              :   0
Energy             :     0.0000000000000000 Eh
Relativity type    : 
Basis              : AO
                                X                 Y                 Z
Electronic contribution:      1.581464825       3.688535484      -1.194522933
Nuclear contribution   :     -1.880542777      -4.173657689       1.441665866
                        -----------------------------------------
Total Dipole Moment    :     -0.299077952      -0.485122204       0.247142933
                        -----------------------------------------
Magnitude (a.u.)       :      0.621185000
Magnitude (Debye)      :      1.578926790



--------------------
Rotational spectrum 
--------------------
 
Rotational constants in cm-1:             1.956911             0.286117             0.261143 
Rotational constants in MHz :         58666.702809          8577.563166          7828.868357 

Dipole components along the rotational axes: 
x,y,z [a.u.] :    -0.601996     0.128349     0.083653 
x,y,z [Debye]:    -1.530153     0.326237     0.212629 

 

Dipole moment calculation done in   0.0 sec 

Maximum memory used throughout the entire PROP-calculation: 7.4 MB
[1741043951.988011] [ohm:352435:0]        ib_iface.c:1059 UCX  ERROR ibv_create_cq(cqe=256) failed: Connection timed out
[1741043951.987988] [ohm:352445:0]        ib_iface.c:1059 UCX  ERROR ibv_create_cq(cqe=256) failed: Connection timed out
[1741043951.988080] [ohm:352444:0]        ib_iface.c:1059 UCX  ERROR ibv_create_cq(cqe=256) failed: Connection timed out
[1741043951.989436] [ohm:352432:0]        ib_iface.c:1059 UCX  ERROR ibv_create_cq(cqe=256) failed: Connection timed out
[1741043951.989433] [ohm:352430:0]        ib_iface.c:1059 UCX  ERROR ibv_create_cq(cqe=256) failed: Connection timed out
[1741043951.989437] [ohm:352434:0]        ib_iface.c:1059 UCX  ERROR ibv_create_cq(cqe=256) failed: Connection timed out
[1741043951.989426] [ohm:352437:0]        ib_iface.c:1059 UCX  ERROR ibv_create_cq(cqe=256) failed: Connection timed out
[1741043951.989431] [ohm:352438:0]        ib_iface.c:1059 UCX  ERROR ibv_create_cq(cqe=256) failed: Connection timed out
[1741043951.989422] [ohm:352440:0]        ib_iface.c:1059 UCX  ERROR ibv_create_cq(cqe=256) failed: Connection timed out
[1741043951.989423] [ohm:352441:0]        ib_iface.c:1059 UCX  ERROR ibv_create_cq(cqe=256) failed: Connection timed out
[1741043952.006728] [ohm:352456:0]        ib_iface.c:1059 UCX  ERROR ibv_create_cq(cqe=256) failed: Connection timed out
[1741043952.048101] [ohm:352429:0]        ib_iface.c:1059 UCX  ERROR ibv_create_cq(cqe=256) failed: Connection timed out
[1741043952.048093] [ohm:352450:0]        ib_iface.c:1059 UCX  ERROR ibv_create_cq(cqe=256) failed: Connection timed out
[1741043952.048368] [ohm:352433:0]        ib_iface.c:1059 UCX  ERROR ibv_create_cq(cqe=256) failed: Connection timed out
[1741043952.049490] [ohm:352452:0]        ib_iface.c:1059 UCX  ERROR ibv_create_cq(cqe=256) failed: Connection timed out
[1741043952.049490] [ohm:352453:0]        ib_iface.c:1059 UCX  ERROR ibv_create_cq(cqe=256) failed: Connection timed out
[1741043952.049491] [ohm:352468:0]        ib_iface.c:1059 UCX  ERROR ibv_create_cq(cqe=256) failed: Connection timed out
[1741043952.049171] [ohm:352447:0]        ib_iface.c:1059 UCX  ERROR ibv_create_cq(cqe=256) failed: Connection timed out
[1741043952.049490] [ohm:352449:0]        ib_iface.c:1059 UCX  ERROR ibv_create_cq(cqe=256) failed: Connection timed out
[1741043952.049843] [ohm:352472:0]        ib_iface.c:1059 UCX  ERROR ibv_create_cq(cqe=256) failed: Connection timed out
[1741043952.049946] [ohm:352455:0]        ib_iface.c:1059 UCX  ERROR ibv_create_cq(cqe=256) failed: Connection timed out
[1741043952.050849] [ohm:352480:0]        ib_iface.c:1059 UCX  ERROR ibv_create_cq(cqe=256) failed: Connection timed out
[1741043952.052037] [ohm:352462:0]        ib_iface.c:1059 UCX  ERROR ibv_create_cq(cqe=256) failed: Connection timed out
[1741043952.052143] [ohm:352448:0]        ib_iface.c:1059 UCX  ERROR ibv_create_cq(cqe=256) failed: Connection timed out
[1741043952.054980] [ohm:352431:0]        ib_iface.c:1059 UCX  ERROR ibv_create_cq(cqe=256) failed: Connection timed out
[1741043952.055177] [ohm:352443:0]        ib_iface.c:1059 UCX  ERROR ibv_create_cq(cqe=256) failed: Connection timed out
[1741043952.055166] [ohm:352454:0]        ib_iface.c:1059 UCX  ERROR ibv_create_cq(cqe=256) failed: Connection timed out
[1741043952.055692] [ohm:352446:0]        ib_iface.c:1059 UCX  ERROR ibv_create_cq(cqe=256) failed: Connection timed out
[1741043952.055691] [ohm:352451:0]        ib_iface.c:1059 UCX  ERROR ibv_create_cq(cqe=256) failed: Connection timed out
[1741043952.055844] [ohm:352436:0]        ib_iface.c:1059 UCX  ERROR ibv_create_cq(cqe=256) failed: Connection timed out
[1741043952.055927] [ohm:352442:0]        ib_iface.c:1059 UCX  ERROR ibv_create_cq(cqe=256) failed: Connection timed out
[1741043952.056251] [ohm:352439:0]        ib_iface.c:1059 UCX  ERROR ibv_create_cq(cqe=256) failed: Connection timed out

--------------------------------
SUGGESTED CITATIONS FOR THIS RUN
--------------------------------

Below you find a list of papers that are relevant to this ORCA run
We neither can nor want to force you to cite these papers, but we appreciate if you do
You receive ORCA, which is the product of decades of hard work by many enthusiastic individuals, for free
The only thing we kindly ask in return is that you cite our papers,
We deeply appreciate it, if you show your appreciation for ORCA by not just citing the generic ORCA reference.

Please note that relegating all ORCA citations to the supporting information does *not* help us.
SI sections are not indexed - citations you put there will not count into any citation statistics
But we need these citations in order to attract the funding resources that allow us to do what we are doing

Therefore, if you are a happy ORCA user, please consider citing a few of the papers listed below in the main body of your paper

In addition to the list printed below, the program has created the file orca.bibtex that contains the list in bibtex format
You can import this file easily into all common literature databanks and citation aid programs


List of essential papers. We consider these as the minimum necessary citations

  1. Neese,F.
     Software update: the ORCA program system, version 5.0
     WIRES Comput. Molec. Sci., 2022 12(1)e1606
     doi.org/10.1002/wcms.1606

List of papers to cite with high priority. The work reported in these papers was absolutely
necessary for this run to complete.
Our perspective: the developers of density functionals and basis sets usually get cited in chemistry papers
Good! But without the algorithms to do something with them, the functionals or basis sets would not do anything.
Hence, in our opinion, the algorithm design and method developments papers are equally worthy of getting cited

  1. Neese,F.; Olbrich,G.
     Efficient use of the resolution of the identity approximation in time-dependent density functional calculations with hybrid density functionals
     Chem. Phys. Lett., 2002 362 170-178
     doi.org/10.1016/s0009-2614(02)01053-9
  2. Neese,F.
     An improvement of the resolution of the identity approximation for the formation of the Coulomb matrix
     J. Comp. Chem., 2003 24(14)1740-1747
     doi.org/10.1002/jcc.10318
  3. Neese,F.; Wennmohs,F.; Hansen,A.; Becker,U.
     Efficient, approximate and parallel Hartree-Fock and hybrid DFT calculations. A 'chain-of-spheres' algorithm for the Hartree-Fock exchange
     Chem. Phys., 2009 356(1-3)98-109
     doi.org/10.1016/j.chemphys.2008.10.036
  4. Petrenko,T.; Kossmann,S.; Neese,F.
     Efficient time-dependent density functional theory approximations for hybrid density functionals: Analytical gradients and parallelization
     J. Chem. Phys., 2011 134 054116
     doi.org/10.1063/1.3533441
  5. Helmich-Paris,B.; de Souza,B.; Neese,F.; Izsák,R.
     An improved chain of spheres for exchange algorithm
     J. Chem. Phys., 2021 155 104109
     doi.org/doi: 10.1063/5.0058766.
  6. Neese,F.
     The SHARK Integral Generation and Digestion System
     J. Comp. Chem., 2022  1-16
     doi.org/10.1002/jcc.26942
  7. Lehtola,S.; Steigemann,C.; Oliveira,M.; Marques,M.
     Recent developments in Libxc - A comprehensive library of functionals for density functional theory
     Software X, 2018 7 
     doi.org/10.1016/j.softx.2017.11.002
  8. Grimme,S.; Antony,J.; Ehrlich,S.; Krieg,H.
     A consistent and accurate ab initio parametrization of density functional dispersion correction (DFT-D) for the 94 elements H-Pu
     J. Chem. Phys., 2010 132 154104-XXXX
     doi.org/10.1063/1.3382344
  9. Grimme,S.; Ehrlich,S.; Goerigk,L.
     Effect of the damping function in dispersion corrected density functional theory
     J. Comput. Chem., 2011 32(7)1456-1465
     doi.org/10.1002/jcc.21759

List of suggested additional citations. These are papers that are important in the 'surrounding' of 
of this run, or papers that preceded the highly important papers. If you like your results we are grateful for a citation.

  1. Izsak,R.; Neese,F.
     An overlap fitted chain of spheres exchange method
     J. Chem. Phys., 2011 135 144105
     doi.org/10.1063/1.3646921
  2. Izsak,R.; Hansen,A.; Neese,F.
     The resolution of identity and chain of spheres approximations for the LPNO-CCSD singles Fock term
     Molec. Phys., 2012 110 2413-2417
     doi.org/10.1080/00268976.2012.687466
  3. Neese,F.
     The ORCA program system
     WIRES Comput. Molec. Sci., 2012 2(1)73-78
     doi.org/10.1002/wcms.81
  4. Izsak,R.; Neese,F.; Klopper,W.
     Robust fitting techniques in the chain of spheres approximation to the Fock exchange: The role of the complementary space
     J. Chem. Phys., 2013 139 
     doi.org/10.1063/1.4819264
  5. Neese,F.
     Software update: the ORCA program system, version 4.0
     WIRES Comput. Molec. Sci., 2018 8(1)1-6
     doi.org/10.1002/wcms.1327
  6. Neese,F.; Wennmohs,F.; Becker,U.; Riplinger,C.
     The ORCA quantum chemistry program package
     J. Chem. Phys., 2020 152 Art. No. L224108
     doi.org/10.1063/5.0004608

List of optional additional citations

  1. Neese,F.
     Approximate second-order SCF convergence for spin unrestricted wavefunctions
     Chem. Phys. Lett., 2000 325(1-3)93-98
     doi.org/10.1016/s0009-2614(00)00662-x

Timings for individual modules:

Sum of individual times          ...       15.561 sec (=   0.259 min)
Startup calculation              ...        1.251 sec (=   0.021 min)   8.0 %
SCF iterations                   ...        6.165 sec (=   0.103 min)  39.6 %
Property integrals               ...        0.958 sec (=   0.016 min)   6.2 %
Property calculations            ...        0.894 sec (=   0.015 min)   5.7 %
CIS module                       ...        6.294 sec (=   0.105 min)  40.4 %
                             ****ORCA TERMINATED NORMALLY****
TOTAL RUN TIME: 0 days 0 hours 0 minutes 16 seconds 537 msec
