
                                 *****************
                                 * O   R   C   A *
                                 *****************

                                            #,                                       
                                            ###                                      
                                            ####                                     
                                            #####                                    
                                            ######                                   
                                           ########,                                 
                                     ,,################,,,,,                         
                               ,,#################################,,                 
                          ,,##########################################,,             
                       ,#########################################, ''#####,          
                    ,#############################################,,   '####,        
                  ,##################################################,,,,####,       
                ,###########''''           ''''###############################       
              ,#####''   ,,,,##########,,,,          '''####'''          '####       
            ,##' ,,,,###########################,,,                        '##       
           ' ,,###''''                  '''############,,,                           
         ,,##''                                '''############,,,,        ,,,,,,###''
      ,#''                                            '''#######################'''  
     '                                                          ''''####''''         
             ,#######,   #######,   ,#######,      ##                                
            ,#'     '#,  ##    ##  ,#'     '#,    #''#        ,####,   ,####,        
            ##       ##  ##   ,#'  ##            #'  '#       #'       #'  '#        
            ##       ##  #######   ##           ,######,      #####,   #    #        
            '#,     ,#'  ##    ##  '#,     ,#' ,#      #,     #,   #   #,  ,#        
             '#######'   ##     ##  '#######'  #'      '#     '####' # '####'        



                #########################################################
                #                        -***-                          #
                #          Department of theory and spectroscopy        #
                #                                                       #
                #                      Frank Neese                      #
                #                                                       #
                #     Directorship, Architecture, Infrastructure        #
                #                    SHARK, DRIVERS                     #
                #        Core code/Algorithms in most modules           #
                #                                                       #
                #        Max Planck Institute fuer Kohlenforschung      #
                #                Kaiser Wilhelm Platz 1                 #
                #                 D-45470 Muelheim/Ruhr                 #
                #                      Germany                          #
                #                                                       #
                #                  All rights reserved                  #
                #                        -***-                          #
                #########################################################


                         Program Version 6.0.0  -   RELEASE  -


 With contributions from (in alphabetic order):
   Daniel Aravena         : Magnetic Suceptibility
   Michael Atanasov       : Ab Initio Ligand Field Theory (pilot matlab implementation)
   Alexander A. Auer      : GIAO ZORA, VPT2 properties, NMR spectrum
   Ute Becker             : All parallelization in ORCA, NUMFREQ, NUMCALC
   Giovanni Bistoni       : ED, misc. LED, open-shell LED, HFLD
   Martin Brehm           : Molecular dynamics
   Dmytro Bykov           : pre 5.0 version of the SCF Hessian
   Marcos Casanova-Páez   : Triplet and SCS-CIS(D). UHF-(DLPNO)-IP/EA/STEOM-CCSD. UHF-CVS-IP/STEOM-CCSD
   Vijay G. Chilkuri      : MRCI spin determinant printing, contributions to CSF-ICE
   Pauline Colinet        : FMM embedding
   Dipayan Datta          : RHF DLPNO-CCSD density
   Achintya Kumar Dutta   : EOM-CC, STEOM-CC
   Nicolas Foglia         : Exact transition moments, OPA infrastructure, MCD improvements
   Dmitry Ganyushin       : Spin-Orbit,Spin-Spin,Magnetic field MRCI
   Miquel Garcia          : C-PCM and meta-GGA Hessian, CCSD/C-PCM, Gaussian charge scheme
   Tiago L. C. Gouveia    : GS-ROHF, GS-ROCIS
   Yang Guo               : DLPNO-NEVPT2, F12-NEVPT2, CIM, IAO-localization
   Andreas Hansen         : Spin unrestricted coupled pair/coupled cluster methods
   Ingolf Harden          : AUTO-CI MPn and infrastructure 
   Benjamin Helmich-Paris : MC-RPA, TRAH-(SCF,CASSCF), AVAS, COSX integrals, SCF dyn. polar.
   Lee Huntington         : MR-EOM, pCC
   Robert Izsak           : Overlap fitted RIJCOSX, COSX-SCS-MP3, EOM
   Riya Kayal             : Wick's Theorem for AUTO-CI, AUTO-CI UHF-CCSDT
   Emily Kempfer          : AUTO-CI, RHF CISDT and CCSDT
   Christian Kollmar      : KDIIS, OOCD, Brueckner-CCSD(T), CCSD density, CASPT2, CASPT2-K, improved NEVPT2
   Axel Koslowski         : Symmetry handling
   Simone Kossmann        : Meta GGA functionals, TD-DFT gradient, OOMP2, (MP2 Hessian; deprecated post 5.0)
   Lucas Lang             : DCDCAS
   Marvin Lechner         : AUTO-CI (C++ implementation), FIC-MRCC
   Spencer Leger          : CASSCF response
   Dagmar Lenk            : GEPOL surface, SMD, ORCA-2-JSON
   Dimitrios Liakos       : Extrapolation schemes; Compound Job, initial MDCI parallelization
   Dimitrios Manganas     : Further ROCIS development; embedding schemes. LFT, Crystal Embedding
   Dimitrios Pantazis     : SARC Basis sets
   Anastasios Papadopoulos: AUTO-CI, single reference methods and gradients
   Taras Petrenko         : pre 6.0 DFT Hessian and TD-DFT gradient, (ASA, deprecated), ECA, 1-Electron XAS/XES, NRVS
   Peter Pinski           : DLPNO-MP2, DLPNO-MP2 Gradient
   Christoph Reimann      : Effective Core Potentials
   Marius Retegan         : Local ZFS, SOC
   Christoph Riplinger    : Optimizer, TS searches, QM/MM, DLPNO-CCSD(T), (RO)-DLPNO pert. Triples
   Michael Roemelt        : Original ROCIS implementation
   Masaaki Saitow         : Open-shell DLPNO-CCSD energy and density
   Barbara Sandhoefer     : DKH picture change effects
   Kantharuban Sivalingam : CASSCF convergence/infrastructure, NEVPT2 and variants, FIC-MRCI
   Bernardo de Souza      : ESD, SOC TD-DFT
   Georgi Stoychev        : AutoAux, RI-MP2 NMR, DLPNO-MP2 response, X2C
   Van Anh Tran           : RI-MP2 g-tensors
   Willem Van den Heuvel  : Paramagnetic NMR
   Zikuan Wang            : NOTCH, Electric field optimization 
   Frank Wennmohs         : Technical directorship and infrastructure
   Hang Xu                : AUTO-CI-Response properties 


 We gratefully acknowledge several colleagues who have allowed us to
 interface, adapt or use parts of their codes:
   Stefan Grimme, W. Hujo, H. Kruse, P. Pracht,  : VdW corrections, initial TS optimization,
                  C. Bannwarth, S. Ehlert,         DFT functionals, gCP, sTDA/sTD-DF
                  L. Wittmann, M. Mueller
   Ed Valeev, F. Pavosevic, A. Kumar             : LibInt (2-el integral package), F12 methods
   Garnet Chan, S. Sharma, J. Yang, R. Olivares  : DMRG
   Ulf Ekstrom                                   : XCFun DFT Library
   Mihaly Kallay                                 : mrcc  (arbitrary order and MRCC methods)
   Frank Weinhold                                : gennbo (NPA and NBO analysis)
   Simon Mueller                                 : openCOSMO-RS
   Christopher J. Cramer and Donald G. Truhlar   : smd solvation model
   Lars Goerigk                                  : TD-DFT with DH, B97 family of functionals
   V. Asgeirsson, H. Jonsson                     : NEB implementation
   FAccTs GmbH                                   : IRC, NEB, NEB-TS, DLPNO-Multilevel, CI-OPT
                                                   MM, QMMM, 2- and 3-layer-ONIOM, Crystal-QMMM,
                                                   LR-CPCM, SF, NACMEs, symmetry and pop. for TD-DFT,
                                                   nearIR, NL-DFT gradient (VV10), updates on ESD,
                                                   ML-optimized integration grids, MBIS, APM,
                                                   GOAT, DOCKER, SOLVATOR, interface openCOSMO-RS
   S Lehtola, MJT Oliveira, MAL Marques          : LibXC Library
   Liviu Ungur et al                             : ANISO software


 Your calculation uses the libint2 library for the computation of 2-el integrals
 For citations please refer to: http://libint.valeyev.net

 Your ORCA version has been built with support for libXC version: 6.2.2
 For citations please refer to: https://libxc.gitlab.io

 This ORCA versions uses:
   CBLAS   interface :  Fast vector & matrix operations
   LAPACKE interface :  Fast linear algebra routines
   SCALAPACK package :  Parallel linear algebra routines
   Shared memory     :  Shared parallel matrices
   BLAS/LAPACK       :  OpenBLAS 0.3.27  USE64BITINT DYNAMIC_ARCH NO_AFFINITY Zen SINGLE_THREADED
        Core in use  :  Zen
   Copyright (c) 2011-2014, The OpenBLAS Project


Your calculation utilizes the atom-pairwise dispersion correction
with the Becke-Johnson damping scheme (D3BJ)


Warning: RI is on but no J-basis has been assigned. Assigning Def2/J (nothing to worry about!)
================================================================================

----- Orbital basis set information -----
Your calculation utilizes the basis: def2-TZVPPD
   F. Weigend and R. Ahlrichs, Phys. Chem. Chem. Phys. 7, 3297 (2005).
   D. Rappoport and F. Furche, J. Chem. Phys. 133, 134105 (2010)
   D. Rappoport, J. Chem. Phys. 155, 124102 (2021).

----- AuxJ basis set information -----
Your calculation utilizes the auxiliary basis: def2/J
   F. Weigend, Phys. Chem. Chem. Phys. 8, 1057 (2006).

================================================================================
                                        WARNINGS
                       Please study these warnings very carefully!
================================================================================

Using LibXC functional ID 531 : wB97M-V exchange-correlation functional
[ 1]  N. Mardirossian and M. Head-Gordon.,  J. Chem. Phys. 144, 214110 (2016)
Using LibXC functional ID 531 : wB97M-V exchange-correlation functional
[ 1]  N. Mardirossian and M. Head-Gordon.,  J. Chem. Phys. 144, 214110 (2016)

WARNING: B97M-V or wB97M-V functional requested.
  ===> : libXC variant has now been activated.
         Any manually given DFX/HFX/RangeSep scaling parameters are IGNORED!

Your calculation utilizes LibXC
 by S Lehtola, C Steigemann, MJT Oliveira & MAL Marques
Please cite in your paper:
 S Lehtola, C Steigemann, MJT Oliveira & MAL Marques, SoftwareX, 7, (2018), 1.
   


WARNING: your system is open-shell and RHF/RKS was chosen
  ===> : WILL SWITCH to UHF/UKS

INFO   : Checking CIS options ...

WARNING: CIS/ROCIS methods need fully converged wavefunctions
  ===> : Setting SCFConvForced true
         You can overwrite this default with %scf ConvForced false 


================================================================================
                                       INPUT FILE
================================================================================
NAME = orca.inp
|  1> ! Engrad def2-TZVPPD wB97M-D3BJ 
|  2> %pal nprocs 8 end%pal nprocs 32 end 
|  3>  %tddft nroots 2 Iroot 2 
|  4> sf true 
|  5> end 
|  6> *xyz 0 3 
|  7> O   2.85780023558126 1.06469306303171 -0.7177749569668
|  8> O   -0.4179655029564 0.84159844144994 -2.05060439849592
|  9> O   0.52952674382665 -2.75503247705106 -1.47628306382903
| 10> O   -2.61016787135074 -1.74952644110218 0.96465739124612
| 11> N   0.71461292566922 -2.0058438254777 0.66440952592083
| 12> N   -2.46927831734086 0.49288021567078 1.34099297153821
| 13> N   1.82828142999323 -0.92982546852146 -1.04265484682633
| 14> N   -1.61196055985153 -0.41222634469013 -0.59183753861898
| 15> C   1.7679544292325 0.0799660063728 1.14227651724152
| 16> C   -1.11594896132765 1.88406470477328 -0.03599723432356
| 17> C   1.04887530875773 -0.98348625186437 1.52258671613096
| 18> C   -1.89466081219634 1.71050376496896 1.03599152418026
| 19> C   2.13126935429952 1.20897287734382 2.05141844298528
| 20> C   -0.41869286693283 3.16118795324704 -0.37842762996194
| 21> C   2.21407784197622 0.15099078146584 -0.25038775488016
| 22> C   -0.99837629163375 0.77741124077463 -0.98987162154123
| 23> C   0.99346702441868 -1.96278105652631 -0.68440569054293
| 24> C   -2.25880406417709 -0.64736544935218 0.59868972403001
| 25> H   0.68483381055346 -1.09873382830437 2.5326220747076
| 26> H   -2.0787498630585 2.49810860462271 1.75075857380453
| 27> H   1.70972402589341 2.14389272254224 1.68540550052188
| 28> H   1.76378098791623 1.02865171943261 3.05911604398869
| 29> H   3.21050258214175 1.34279193035847 2.08789641254898
| 30> H   -0.77996738901735 3.55609872036226 -1.32593122583357
| 31> H   -0.57062207307786 3.90736611935873 0.39806481302593
| 32> H   0.64937534138319 2.98491992448426 -0.49893821731961
| 33> H   0.02509100476854 -2.68755923804473 0.93385943194967
| 34> H   -2.9643960992872 0.35808130404691 2.20365499398542
| 35> H   1.98923609357988 -0.82955172458586 -2.03314213203143
| 36> H   -1.4762184677834 -1.21524798878667 -1.19154434663437
| 37> *
| 38> 
| 39>                          ****END OF INPUT****
================================================================================

                     *******************************
                     * Energy+Gradient Calculation *
                     *******************************

---------------------------------
CARTESIAN COORDINATES (ANGSTROEM)
---------------------------------
  O      2.857800    1.064693   -0.717775
  O     -0.417966    0.841598   -2.050604
  O      0.529527   -2.755032   -1.476283
  O     -2.610168   -1.749526    0.964657
  N      0.714613   -2.005844    0.664410
  N     -2.469278    0.492880    1.340993
  N      1.828281   -0.929825   -1.042655
  N     -1.611961   -0.412226   -0.591838
  C      1.767954    0.079966    1.142277
  C     -1.115949    1.884065   -0.035997
  C      1.048875   -0.983486    1.522587
  C     -1.894661    1.710504    1.035992
  C      2.131269    1.208973    2.051418
  C     -0.418693    3.161188   -0.378428
  C      2.214078    0.150991   -0.250388
  C     -0.998376    0.777411   -0.989872
  C      0.993467   -1.962781   -0.684406
  C     -2.258804   -0.647365    0.598690
  H      0.684834   -1.098734    2.532622
  H     -2.078750    2.498109    1.750759
  H      1.709724    2.143893    1.685406
  H      1.763781    1.028652    3.059116
  H      3.210503    1.342792    2.087896
  H     -0.779967    3.556099   -1.325931
  H     -0.570622    3.907366    0.398065
  H      0.649375    2.984920   -0.498938
  H      0.025091   -2.687559    0.933859
  H     -2.964396    0.358081    2.203655
  H      1.989236   -0.829552   -2.033142
  H     -1.476218   -1.215248   -1.191544

----------------------------
CARTESIAN COORDINATES (A.U.)
----------------------------
  NO LB      ZA    FRAG     MASS         X           Y           Z
   0 O     8.0000    0    15.999    5.400460    2.011978   -1.356398
   1 O     8.0000    0    15.999   -0.789840    1.590391   -3.875081
   2 O     8.0000    0    15.999    1.000661   -5.206257   -2.789771
   3 O     8.0000    0    15.999   -4.932502   -3.306126    1.822938
   4 N     7.0000    0    14.007    1.350423   -3.790495    1.255552
   5 N     7.0000    0    14.007   -4.666260    0.931409    2.534109
   6 N     7.0000    0    14.007    3.454951   -1.757115   -1.970332
   7 N     7.0000    0    14.007   -3.046164   -0.778995   -1.118411
   8 C     6.0000    0    12.011    3.340950    0.151114    2.158590
   9 C     6.0000    0    12.011   -2.108838    3.560366   -0.068025
  10 C     6.0000    0    12.011    1.982087   -1.858520    2.877272
  11 C     6.0000    0    12.011   -3.580390    3.232384    1.957740
  12 C     6.0000    0    12.011    4.027515    2.284628    3.876619
  13 C     6.0000    0    12.011   -0.791215    5.973779   -0.715125
  14 C     6.0000    0    12.011    4.184001    0.285331   -0.473164
  15 C     6.0000    0    12.011   -1.886658    1.469094   -1.870586
  16 C     6.0000    0    12.011    1.877381   -3.709119   -1.293339
  17 C     6.0000    0    12.011   -4.268521   -1.223343    1.131360
  18 H     1.0000    0     1.008    1.294148   -2.076306    4.785962
  19 H     1.0000    0     1.008   -3.928268    4.720741    3.308454
  20 H     1.0000    0     1.008    3.230910    4.051370    3.184955
  21 H     1.0000    0     1.008    3.333063    1.943870    5.780892
  22 H     1.0000    0     1.008    6.066971    2.537509    3.945552
  23 H     1.0000    0     1.008   -1.473925    6.720053   -2.505647
  24 H     1.0000    0     1.008   -1.078319    7.383852    0.752233
  25 H     1.0000    0     1.008    1.227142    5.640681   -0.942857
  26 H     1.0000    0     1.008    0.047415   -5.078751    1.764739
  27 H     1.0000    0     1.008   -5.601897    0.676676    4.164304
  28 H     1.0000    0     1.008    3.759111   -1.567626   -3.842082
  29 H     1.0000    0     1.008   -2.789649   -2.296486   -2.251692

--------------------------------
INTERNAL COORDINATES (ANGSTROEM)
--------------------------------
 O      0   0   0     0.000000000000     0.00000000     0.00000000
 O      1   0   0     3.543564124460     0.00000000     0.00000000
 O      2   1   0     3.763421384470    76.70476803     0.00000000
 O      3   2   1     4.102062282575    70.35762049   115.25147016
 N      3   2   1     2.275545054304    81.33810890    59.77005340
 N      4   3   2     2.278127729027   106.99228117   332.88187956
 N      1   2   3     2.267941817288    58.06982908     0.14406100
 N      2   1   3     2.264001223874   106.26277027    53.23240027
 C      1   2   3     2.370072307850    81.02196320   297.03646992
 C      2   1   3     2.373301254426    85.69522383   113.15130965
 C      9   1   2     1.338895565170   143.12013317    57.92116968
 C     10   2   1     1.336291676569   142.68361001   239.71624463
 C      9   1   2     1.494387262600    92.96705330   238.92087760
 C     10   2   1     1.494813844203    92.50122719    66.60630106
 C      1   2   3     1.211478921006    66.82317002   325.39593126
 C      2   1   3     1.210847102011    96.71657713    84.62346519
 C      3   2   1     1.212424295204    64.62930474    32.80825374
 C      4   3   2     1.213320942774    79.71952652   346.54080262
 H     11   9   1     1.079805372215   122.10907541   180.72241984
 H     12  10   2     1.079398951881   122.40023229   188.18816006
 H     13   9   1     1.088917377443   110.49021003    60.50181840
 H     13   9   1     1.087666251423   110.86990292   181.26235638
 H     13   9   1     1.088109618233   110.75943330   302.31660813
 H     14  10   2     1.088226473893   110.77181269    57.81674081
 H     14  10   2     1.087568321201   110.94452262   179.07106250
 H     14  10   2     1.089202881581   110.15007634   299.96323913
 H      5   3   2     1.006369532027    88.45998526   121.18371762
 H      6   4   3     1.003742063255    88.81272030   205.62470063
 H      7   1   2     1.008477213231    88.89983653    74.56933723
 H      8   2   1     1.011394053782    89.24782685   260.85156994

---------------------------
INTERNAL COORDINATES (A.U.)
---------------------------
 O      0   0   0     0.000000000000     0.00000000     0.00000000
 O      1   0   0     6.696365733219     0.00000000     0.00000000
 O      2   1   0     7.111835743191    76.70476803     0.00000000
 O      3   2   1     7.751774298355    70.35762049   115.25147016
 N      3   2   1     4.300156958033    81.33810890    59.77005340
 N      4   3   2     4.305037505953   106.99228117   332.88187956
 N      1   2   3     4.285788922342    58.06982908     0.14406100
 N      2   1   3     4.278342279985   106.26277027    53.23240027
 C      1   2   3     4.478787579427    81.02196320   297.03646992
 C      2   1   3     4.484889404158    85.69522383   113.15130965
 C      9   1   2     2.530145940093   143.12013317    57.92116968
 C     10   2   1     2.525225303754   142.68361001   239.71624463
 C      9   1   2     2.823982664334    92.96705330   238.92087760
 C     10   2   1     2.824788786737    92.50122719    66.60630106
 C      1   2   3     2.289363377720    66.82317002   325.39593126
 C      2   1   3     2.288169412854    96.71657713    84.62346519
 C      3   2   1     2.291149876049    64.62930474    32.80825374
 C      4   3   2     2.292844294394    79.71952652   346.54080262
 H     11   9   1     2.040536431424   122.10907541   180.72241984
 H     12  10   2     2.039768408297   122.40023229   188.18816006
 H     13   9   1     2.057755625835   110.49021003    60.50181840
 H     13   9   1     2.055391340299   110.86990292   181.26235638
 H     13   9   1     2.056229182147   110.75943330   302.31660813
 H     14  10   2     2.056450007340   110.77181269    57.81674081
 H     14  10   2     2.055206278997   110.94452262   179.07106250
 H     14  10   2     2.058295150466   110.15007634   299.96323913
 H      5   3   2     1.901762805054    88.45998526   121.18371762
 H      6   4   3     1.896797608649    88.81272030   205.62470063
 H      7   1   2     1.905745745307    88.89983653    74.56933723
 H      8   2   1     1.911257775125    89.24782685   260.85156994

---------------------
BASIS SET INFORMATION
---------------------
There are 4 groups of distinct atoms

 Group   1 Type O   : 12s7p3d1f contracted to 6s4p3d1f pattern {621111/4111/111/1}
 Group   2 Type N   : 12s6p3d1f contracted to 6s3p3d1f pattern {621111/411/111/1}
 Group   3 Type C   : 12s6p3d1f contracted to 6s3p3d1f pattern {621111/411/111/1}
 Group   4 Type H   : 5s3p1d contracted to 3s3p1d pattern {311/111/1}

Atom   0O    basis set group =>   1
Atom   1O    basis set group =>   1
Atom   2O    basis set group =>   1
Atom   3O    basis set group =>   1
Atom   4N    basis set group =>   2
Atom   5N    basis set group =>   2
Atom   6N    basis set group =>   2
Atom   7N    basis set group =>   2
Atom   8C    basis set group =>   3
Atom   9C    basis set group =>   3
Atom  10C    basis set group =>   3
Atom  11C    basis set group =>   3
Atom  12C    basis set group =>   3
Atom  13C    basis set group =>   3
Atom  14C    basis set group =>   3
Atom  15C    basis set group =>   3
Atom  16C    basis set group =>   3
Atom  17C    basis set group =>   3
Atom  18H    basis set group =>   4
Atom  19H    basis set group =>   4
Atom  20H    basis set group =>   4
Atom  21H    basis set group =>   4
Atom  22H    basis set group =>   4
Atom  23H    basis set group =>   4
Atom  24H    basis set group =>   4
Atom  25H    basis set group =>   4
Atom  26H    basis set group =>   4
Atom  27H    basis set group =>   4
Atom  28H    basis set group =>   4
Atom  29H    basis set group =>   4
---------------------------------
AUXILIARY/J BASIS SET INFORMATION
---------------------------------
There are 4 groups of distinct atoms

 Group   1 Type O   : 12s5p4d2f1g contracted to 6s4p3d1f1g pattern {711111/2111/211/2/1}
 Group   2 Type N   : 12s5p4d2f1g contracted to 6s4p3d1f1g pattern {711111/2111/211/2/1}
 Group   3 Type C   : 12s5p4d2f1g contracted to 6s4p3d1f1g pattern {711111/2111/211/2/1}
 Group   4 Type H   : 5s2p1d contracted to 3s1p1d pattern {311/2/1}

Atom   0O    basis set group =>   1
Atom   1O    basis set group =>   1
Atom   2O    basis set group =>   1
Atom   3O    basis set group =>   1
Atom   4N    basis set group =>   2
Atom   5N    basis set group =>   2
Atom   6N    basis set group =>   2
Atom   7N    basis set group =>   2
Atom   8C    basis set group =>   3
Atom   9C    basis set group =>   3
Atom  10C    basis set group =>   3
Atom  11C    basis set group =>   3
Atom  12C    basis set group =>   3
Atom  13C    basis set group =>   3
Atom  14C    basis set group =>   3
Atom  15C    basis set group =>   3
Atom  16C    basis set group =>   3
Atom  17C    basis set group =>   3
Atom  18H    basis set group =>   4
Atom  19H    basis set group =>   4
Atom  20H    basis set group =>   4
Atom  21H    basis set group =>   4
Atom  22H    basis set group =>   4
Atom  23H    basis set group =>   4
Atom  24H    basis set group =>   4
Atom  25H    basis set group =>   4
Atom  26H    basis set group =>   4
Atom  27H    basis set group =>   4
Atom  28H    basis set group =>   4
Atom  29H    basis set group =>   4
[1737423621.232899] [ohm:3006371:0]        ib_iface.c:1059 UCX  ERROR ibv_create_cq(cqe=256) failed: Connection timed out
[1737423621.245400] [ohm:3006375:0]        ib_iface.c:1059 UCX  ERROR ibv_create_cq(cqe=256) failed: Connection timed out
[1737423621.256016] [ohm:3006367:0]        ib_iface.c:1059 UCX  ERROR ibv_create_cq(cqe=256) failed: Connection timed out
[1737423621.262885] [ohm:3006365:0]        ib_iface.c:1059 UCX  ERROR ibv_create_cq(cqe=256) failed: Connection timed out
[1737423621.280207] [ohm:3006369:0]        ib_iface.c:1059 UCX  ERROR ibv_create_cq(cqe=256) failed: Connection timed out
[1737423621.296703] [ohm:3006368:0]        ib_iface.c:1059 UCX  ERROR ibv_create_cq(cqe=256) failed: Connection timed out
[1737423621.306693] [ohm:3006372:0]        ib_iface.c:1059 UCX  ERROR ibv_create_cq(cqe=256) failed: Connection timed out
[1737423621.307538] [ohm:3006390:0]        ib_iface.c:1059 UCX  ERROR ibv_create_cq(cqe=256) failed: Connection timed out
[1737423621.313274] [ohm:3006370:0]        ib_iface.c:1059 UCX  ERROR ibv_create_cq(cqe=256) failed: Connection timed out
[1737423621.314383] [ohm:3006380:0]        ib_iface.c:1059 UCX  ERROR ibv_create_cq(cqe=256) failed: Connection timed out
[1737423621.316907] [ohm:3006377:0]        ib_iface.c:1059 UCX  ERROR ibv_create_cq(cqe=256) failed: Connection timed out
[1737423621.320009] [ohm:3006366:0]        ib_iface.c:1059 UCX  ERROR ibv_create_cq(cqe=256) failed: Connection timed out
[1737423621.320548] [ohm:3006389:0]        ib_iface.c:1059 UCX  ERROR ibv_create_cq(cqe=256) failed: Connection timed out
[1737423621.325724] [ohm:3006387:0]        ib_iface.c:1059 UCX  ERROR ibv_create_cq(cqe=256) failed: Connection timed out
[1737423621.326206] [ohm:3006373:0]        ib_iface.c:1059 UCX  ERROR ibv_create_cq(cqe=256) failed: Connection timed out
[1737423621.326834] [ohm:3006399:0]        ib_iface.c:1059 UCX  ERROR ibv_create_cq(cqe=256) failed: Connection timed out
[1737423621.333697] [ohm:3006406:0]        ib_iface.c:1059 UCX  ERROR ibv_create_cq(cqe=256) failed: Connection timed out
[1737423621.337318] [ohm:3006388:0]        ib_iface.c:1059 UCX  ERROR ibv_create_cq(cqe=256) failed: Connection timed out
[1737423621.341002] [ohm:3006376:0]        ib_iface.c:1059 UCX  ERROR ibv_create_cq(cqe=256) failed: Connection timed out
[1737423621.343918] [ohm:3006374:0]        ib_iface.c:1059 UCX  ERROR ibv_create_cq(cqe=256) failed: Connection timed out
[1737423621.346931] [ohm:3006386:0]        ib_iface.c:1059 UCX  ERROR ibv_create_cq(cqe=256) failed: Connection timed out
[1737423621.347381] [ohm:3006385:0]        ib_iface.c:1059 UCX  ERROR ibv_create_cq(cqe=256) failed: Connection timed out
[1737423621.351005] [ohm:3006379:0]        ib_iface.c:1059 UCX  ERROR ibv_create_cq(cqe=256) failed: Connection timed out
[1737423621.359376] [ohm:3006378:0]        ib_iface.c:1059 UCX  ERROR ibv_create_cq(cqe=256) failed: Connection timed out
[1737423621.361746] [ohm:3006383:0]        ib_iface.c:1059 UCX  ERROR ibv_create_cq(cqe=256) failed: Connection timed out
[1737423621.373237] [ohm:3006395:0]        ib_iface.c:1059 UCX  ERROR ibv_create_cq(cqe=256) failed: Connection timed out
[1737423621.377715] [ohm:3006381:0]        ib_iface.c:1059 UCX  ERROR ibv_create_cq(cqe=256) failed: Connection timed out
[1737423621.378456] [ohm:3006382:0]        ib_iface.c:1059 UCX  ERROR ibv_create_cq(cqe=256) failed: Connection timed out
[1737423621.378997] [ohm:3006410:0]        ib_iface.c:1059 UCX  ERROR ibv_create_cq(cqe=256) failed: Connection timed out
[1737423621.379400] [ohm:3006396:0]        ib_iface.c:1059 UCX  ERROR ibv_create_cq(cqe=256) failed: Connection timed out
[1737423621.380102] [ohm:3006384:0]        ib_iface.c:1059 UCX  ERROR ibv_create_cq(cqe=256) failed: Connection timed out
[1737423621.394692] [ohm:3006392:0]        ib_iface.c:1059 UCX  ERROR ibv_create_cq(cqe=256) failed: Connection timed out


           ************************************************************
           *        Program running with 32 parallel MPI-processes    *
           *              working on a common directory               *
           ************************************************************
------------------------------------------------------------------------------
                             ORCA STARTUP CALCULATIONS
                           -- RI-GTO INTEGRALS CHOSEN --
------------------------------------------------------------------------------
------------------------------------------------------------------------------
                   ___                                                        
                  /   \      - P O W E R E D   B Y -                         
                 /     \                                                     
                 |  |  |   _    _      __       _____    __    __             
                 |  |  |  | |  | |    /  \     |  _  \  |  |  /  |          
                  \  \/   | |  | |   /    \    | | | |  |  | /  /          
                 / \  \   | |__| |  /  /\  \   | |_| |  |  |/  /          
                |  |  |   |  __  | /  /__\  \  |    /   |      \           
                |  |  |   | |  | | |   __   |  |    \   |  |\   \          
                \     /   | |  | | |  |  |  |  | |\  \  |  | \   \       
                 \___/    |_|  |_| |__|  |__|  |_| \__\ |__|  \__/        
                                                                              
                      - O R C A' S   B I G   F R I E N D -                    
                                      &                                       
                       - I N T E G R A L  F E E D E R -                       
                                                                              
 v1 FN, 2020, v2 2021, v3 2022-2024                                           
------------------------------------------------------------------------------


----------------------
SHARK INTEGRAL PACKAGE
----------------------

Number of atoms                             ...     30
Number of basis functions                   ...    882
Number of shells                            ...    322
Maximum angular momentum                    ...      3
Integral batch strategy                     ... SHARK/LIBINT Hybrid
RI-J (if used) integral strategy            ... SPLIT-RIJ (Revised 2003 algorithm where possible)
Printlevel                                  ...      1
Contraction scheme used                     ... SEGMENTED contraction
Prescreening option                         ... SCHWARTZ
   Thresh                                   ... 2.500e-11
   Tcut                                     ... 2.500e-12
   Tpresel                                  ... 2.500e-12 
Coulomb Range Separation                    ... NOT USED
Exchange Range Separation                   ... Long Range
   Mu parameter                             ... 3.000e-01
   Scaling (regular/separated)              ... 1.500e-01 8.500e-01
Multipole approximations                    ... NOT USED
Finite Nucleus Model                        ... NOT USED
CABS basis                                  ... NOT available
Auxiliary Coulomb fitting basis             ... AVAILABLE
   # of basis functions in Aux-J            ...   1014
   # of shells in Aux-J                     ...    330
   Maximum angular momentum in Aux-J        ...      4
Auxiliary J/K fitting basis                 ... NOT available
Auxiliary Correlation fitting basis         ... NOT available
Auxiliary 'external' fitting basis          ... NOT available

Checking pre-screening integrals            ... done (  0.1 sec) Dimension = 322
Check shell pair data                       ... done (  0.1 sec)
Shell pair information
Shell pair cut-off parameter TPreSel        ...   2.5e-12
Total number of shell pairs                 ...     52003
Shell pairs after pre-screening             ...     44713
Total number of primitive shell pairs       ...    129718
Primitive shell pairs kept                  ...     82980
          la=0 lb=0:   8645 shell pairs
          la=1 lb=0:  11827 shell pairs
          la=1 lb=1:   4098 shell pairs
          la=2 lb=0:   8053 shell pairs
          la=2 lb=1:   5562 shell pairs
          la=2 lb=2:   1911 shell pairs
          la=3 lb=0:   2018 shell pairs
          la=3 lb=1:   1460 shell pairs
          la=3 lb=2:    995 shell pairs
          la=3 lb=3:    144 shell pairs

Calculating one electron integrals          ... done (  1.6 sec)
Calculating RI/J V-Matrix + Cholesky decomp.... done (  6.3 sec)
Calculating Nuclear repulsion               ... done (  0.0 sec) ENN=   1428.789440903542 Eh

Diagonalization of the overlap matrix:
Smallest eigenvalue                        ... 6.410e-07
Time for diagonalization                   ...    0.177 sec
Threshold for overlap eigenvalues          ... 1.000e-07
Number of eigenvalues below threshold      ... 0

IMPORTANT:
Smallest eigenvalue of S below the DiffSThresh (1.000e-06) while
Thresh>1e-12 and/or TCut>1e-13! In order to avoid SCF convergence issues,
Thresh will be set to at least 1e-12 and TCut to at least 1e-13.
This can be turned off by adding %SCF DiffSThresh -1 END to the input.

Time for construction of square roots      ...    0.448 sec
Total time needed                          ...    1.015 sec

-------------------
DFT GRID GENERATION
-------------------

General Integration Accuracy     IntAcc      ... 4.388
Radial Grid Type                 RadialGrid  ... OptM3 with GC (2021)
Angular Grid (max. ang.)         AngularGrid ... 4 (Lebedev-302)
Angular grid pruning method      GridPruning ... 4 (adaptive)
Weight generation scheme         WeightScheme... mBecke (2022)
Basis function cutoff            BFCut       ... 1.0000e-11
Integration weight cutoff        WCut        ... 1.0000e-14
Partially contracted basis set               ... off
Rotationally invariant grid construction     ... off
Angular grids for H and He will be reduced by one unit
Diffuse basis detected: some atoms will have their outermost
                        angular grid increased by 1.

Total number of grid points                  ...   152423
Total number of batches                      ...     2397
Average number of points per batch           ...       63
Average number of grid points per atom       ...     5081

--------------------
COSX GRID GENERATION
--------------------

GRIDX 1
-------
General Integration Accuracy     IntAcc      ... 3.816
Radial Grid Type                 RadialGrid  ... OptM3 with GC (2021)
Angular Grid (max. ang.)         AngularGrid ... 1 (Lebedev-50)
Angular grid pruning method      GridPruning ... 4 (adaptive)
Weight generation scheme         WeightScheme... mBecke (2022)
Basis function cutoff            BFCut       ... 1.0000e-11
Integration weight cutoff        WCut        ... 1.0000e-14
Partially contracted basis set               ... on
Rotationally invariant grid construction     ... off
Angular grids for H and He will be reduced by one unit
Diffuse basis detected: some atoms will have their outermost
                        angular grid increased by 1.

Total number of grid points                  ...    19102
Total number of batches                      ...      167
Average number of points per batch           ...      114
Average number of grid points per atom       ...      637
UseSFitting                                  ... on

GRIDX 2
-------
General Integration Accuracy     IntAcc      ... 4.020
Radial Grid Type                 RadialGrid  ... OptM3 with GC (2021)
Angular Grid (max. ang.)         AngularGrid ... 2 (Lebedev-110)
Angular grid pruning method      GridPruning ... 4 (adaptive)
Weight generation scheme         WeightScheme... mBecke (2022)
Basis function cutoff            BFCut       ... 1.0000e-11
Integration weight cutoff        WCut        ... 1.0000e-14
Partially contracted basis set               ... on
Rotationally invariant grid construction     ... off
Angular grids for H and He will be reduced by one unit
Diffuse basis detected: some atoms will have their outermost
                        angular grid increased by 1.

Total number of grid points                  ...    46049
Total number of batches                      ...      373
Average number of points per batch           ...      123
Average number of grid points per atom       ...     1535
UseSFitting                                  ... on

GRIDX 3
-------
General Integration Accuracy     IntAcc      ... 4.338
Radial Grid Type                 RadialGrid  ... OptM3 with GC (2021)
Angular Grid (max. ang.)         AngularGrid ... 3 (Lebedev-194)
Angular grid pruning method      GridPruning ... 4 (adaptive)
Weight generation scheme         WeightScheme... mBecke (2022)
Basis function cutoff            BFCut       ... 1.0000e-11
Integration weight cutoff        WCut        ... 1.0000e-14
Partially contracted basis set               ... on
Rotationally invariant grid construction     ... off
Angular grids for H and He will be reduced by one unit
Diffuse basis detected: some atoms will have their outermost
                        angular grid increased by 1.

Total number of grid points                  ...   101462
Total number of batches                      ...      809
Average number of points per batch           ...      125
Average number of grid points per atom       ...     3382
UseSFitting                                  ... on
Initializing property integral containers    ... done (  0.6 sec)

SHARK setup successfully completed in  48.5 seconds

Maximum memory used throughout the entire STARTUP-calculation: 80.8 MB
[1737423671.864490] [ohm:3006566:0]        ib_iface.c:1059 UCX  ERROR ibv_create_cq(cqe=256) failed: Connection timed out
[1737423671.864559] [ohm:3006565:0]        ib_iface.c:1059 UCX  ERROR ibv_create_cq(cqe=256) failed: Connection timed out
[1737423671.883070] [ohm:3006561:0]        ib_iface.c:1059 UCX  ERROR ibv_create_cq(cqe=256) failed: Connection timed out
[1737423671.883744] [ohm:3006569:0]        ib_iface.c:1059 UCX  ERROR ibv_create_cq(cqe=256) failed: Connection timed out
[1737423671.890667] [ohm:3006581:0]        ib_iface.c:1059 UCX  ERROR ibv_create_cq(cqe=256) failed: Connection timed out
[1737423671.893513] [ohm:3006574:0]        ib_iface.c:1059 UCX  ERROR ibv_create_cq(cqe=256) failed: Connection timed out
[1737423671.894418] [ohm:3006570:0]        ib_iface.c:1059 UCX  ERROR ibv_create_cq(cqe=256) failed: Connection timed out
[1737423671.896562] [ohm:3006564:0]        ib_iface.c:1059 UCX  ERROR ibv_create_cq(cqe=256) failed: Connection timed out
[1737423671.909363] [ohm:3006571:0]        ib_iface.c:1059 UCX  ERROR ibv_create_cq(cqe=256) failed: Connection timed out
[1737423671.914024] [ohm:3006573:0]        ib_iface.c:1059 UCX  ERROR ibv_create_cq(cqe=256) failed: Connection timed out
[1737423671.922879] [ohm:3006595:0]        ib_iface.c:1059 UCX  ERROR ibv_create_cq(cqe=256) failed: Connection timed out
[1737423671.930212] [ohm:3006560:0]        ib_iface.c:1059 UCX  ERROR ibv_create_cq(cqe=256) failed: Connection timed out
[1737423671.931745] [ohm:3006587:0]        ib_iface.c:1059 UCX  ERROR ibv_create_cq(cqe=256) failed: Connection timed out
[1737423671.936113] [ohm:3006562:0]        ib_iface.c:1059 UCX  ERROR ibv_create_cq(cqe=256) failed: Connection timed out
[1737423671.936637] [ohm:3006578:0]        ib_iface.c:1059 UCX  ERROR ibv_create_cq(cqe=256) failed: Connection timed out
[1737423671.939530] [ohm:3006584:0]        ib_iface.c:1059 UCX  ERROR ibv_create_cq(cqe=256) failed: Connection timed out
[1737423671.942663] [ohm:3006579:0]        ib_iface.c:1059 UCX  ERROR ibv_create_cq(cqe=256) failed: Connection timed out
[1737423671.943738] [ohm:3006576:0]        ib_iface.c:1059 UCX  ERROR ibv_create_cq(cqe=256) failed: Connection timed out
[1737423671.950594] [ohm:3006568:0]        ib_iface.c:1059 UCX  ERROR ibv_create_cq(cqe=256) failed: Connection timed out
[1737423671.950812] [ohm:3006575:0]        ib_iface.c:1059 UCX  ERROR ibv_create_cq(cqe=256) failed: Connection timed out
[1737423671.952330] [ohm:3006621:0]        ib_iface.c:1059 UCX  ERROR ibv_create_cq(cqe=256) failed: Connection timed out
[1737423671.954267] [ohm:3006567:0]        ib_iface.c:1059 UCX  ERROR ibv_create_cq(cqe=256) failed: Connection timed out
[1737423671.955267] [ohm:3006572:0]        ib_iface.c:1059 UCX  ERROR ibv_create_cq(cqe=256) failed: Connection timed out
[1737423671.972225] [ohm:3006618:0]        ib_iface.c:1059 UCX  ERROR ibv_create_cq(cqe=256) failed: Connection timed out
[1737423671.972758] [ohm:3006612:0]        ib_iface.c:1059 UCX  ERROR ibv_create_cq(cqe=256) failed: Connection timed out
[1737423671.974204] [ohm:3006604:0]        ib_iface.c:1059 UCX  ERROR ibv_create_cq(cqe=256) failed: Connection timed out
[1737423671.978603] [ohm:3006583:0]        ib_iface.c:1059 UCX  ERROR ibv_create_cq(cqe=256) failed: Connection timed out
[1737423671.978843] [ohm:3006589:0]        ib_iface.c:1059 UCX  ERROR ibv_create_cq(cqe=256) failed: Connection timed out
[1737423671.979338] [ohm:3006598:0]        ib_iface.c:1059 UCX  ERROR ibv_create_cq(cqe=256) failed: Connection timed out
[1737423671.980757] [ohm:3006577:0]        ib_iface.c:1059 UCX  ERROR ibv_create_cq(cqe=256) failed: Connection timed out
[1737423671.981115] [ohm:3006580:0]        ib_iface.c:1059 UCX  ERROR ibv_create_cq(cqe=256) failed: Connection timed out
[1737423671.983420] [ohm:3006563:0]        ib_iface.c:1059 UCX  ERROR ibv_create_cq(cqe=256) failed: Connection timed out


           ************************************************************
           *        Program running with 32 parallel MPI-processes    *
           *              working on a common directory               *
           ************************************************************
-------------------------------------------------------------------------------
                                 ORCA GUESS
                   Start orbitals & Density for SCF / CASSCF
-------------------------------------------------------------------------------

------------
SCF SETTINGS
------------
Hamiltonian:
 Density Functional     Method          .... DFT(GTOs)
  Functional kind                       .... Exchange-Correlation
  Functional name                       .... wB97M-V exchange-correlation functional
  Functional family                     .... Hybrid MGGA
  Functional refs                              
    [ 0] N. Mardirossian and M. Head-Gordon.,  J. Chem. Phys. 144, 214110 (2016), doi: 10.1063/1.4952647
  Fraction of HF Exchange (short range) .... 0.1500
  Fraction of HF Exchange (long range)  .... 1.0000
  Range separation parameter mu         .... 0.3000
  Functional external parameters        .... 17
    Parameter  0 _cx00      =  8.500000e-01 : u^00 coefficient for exchange
    Parameter  1 _cx01      =  1.007000e+00 : u^01 coefficient for exchange
    Parameter  2 _cx10      =  2.590000e-01 : u^10 coefficient for exchange
    Parameter  3 _css00     =  4.430000e-01 : u^00 coefficient for same-spin correlation
    Parameter  4 _css04     = -1.437000e+00 : u^04 coefficient for same-spin correlation
    Parameter  5 _css10     = -4.535000e+00 : u^10 coefficient for same-spin correlation
    Parameter  6 _css20     = -3.390000e+00 : u^20 coefficient for same-spin correlation
    Parameter  7 _css43     =  4.278000e+00 : u^43 coefficient for same-spin correlation
    Parameter  8 _cos00     =  1.000000e+00 : u^00 coefficient for opposite-spin correlation
    Parameter  9 _cos10     =  1.358000e+00 : u^10 coefficient for opposite-spin correlation
    Parameter 10 _cos20     =  2.924000e+00 : u^20 coefficient for opposite-spin correlation
    Parameter 11 _cos21     = -8.812000e+00 : u^21 coefficient for opposite-spin correlation
    Parameter 12 _cos60     = -1.390000e+00 : u^60 coefficient for opposite-spin correlation
    Parameter 13 _cos61     =  9.142000e+00 : u^61 coefficient for opposite-spin correlation
    Parameter 14 _alpha     =  1.000000e+00 : fraction of HF exchange
    Parameter 15 _beta      = -8.500000e-01 : fraction of short-range exchange
    Parameter 16 _omega     =  3.000000e-01 : range-separation constant
 Long-range corrected/Screened/Range-Separated Hybrid DFT is turned on
   Amount of maximum screened exact exchange              ....  0.850000
   Range separation parameter mu (erf(mu*r12)/r12)        ....  0.300000
 RI-approximation to the Coulomb term is turned on
   Number of AuxJ basis functions       .... 1014
   RIJ-COSX (HFX calculated with COS-X)).... on


General Settings:
 Integral files         IntName         .... orca
 Hartree-Fock type      HFTyp           .... UHF
 Total Charge           Charge          ....    0
 Multiplicity           Mult            ....    3
 Number of Electrons    NEL             ....  132
 Basis Dimension        Dim             ....  882
 Nuclear Repulsion      ENuc            ....   1428.7894409035 Eh

Convergence Acceleration:
 AO-DIIS                CNVDIIS         .... on
   Start iteration      DIISMaxIt       ....    12
   Startup error        DIISStart       ....  0.200000
   # of expansion vecs  DIISMaxEq       ....     5
   Bias factor          DIISBfac        ....   1.050
   Max. coefficient     DIISMaxC        ....  10.000
 MO-DIIS                CNVKDIIS        .... off
 Trust-Rad. Augm. Hess. CNVTRAH         .... auto
   Auto Start mean grad. ratio tolernc. ....  1.125000
   Auto Start start iteration           ....    50
   Auto Start num. interpolation iter.  ....    10
   Max. Number of Micro iterations      ....    24
   Max. Number of Macro iterations      .... Maxiter - #DIIS iter
   Number of Davidson start vectors     ....     2
   Converg. threshold    (grad. norm)   ....   1.000e-05
   Grad. Scal. Fac. for Micro threshold ....   0.100
   Minimum threshold for Micro iter.    ....   1.000e-02
   NR start threshold (gradient norm)   ....   1.000e-04
   Initial trust radius                 ....   0.400
   Minimum AH scaling param. (alpha)    ....   1.000
   Maximum AH scaling param. (alpha)    .... 1000.000
   Quad. conv. algorithm                .... NR
   White noise on init. David. guess    .... on
   Maximum white noise                  ....   0.010
   Pseudo random numbers                .... off
   Inactive MOs                         .... canonical
   Orbital update algorithm             .... Taylor
   Preconditioner                       .... Diag
   Full preconditioner red. dimension   ....   250
 SOSCF                  CNVSOSCF        .... on
   Start iteration      SOSCFMaxIt      ....   150
   Startup grad/error   SOSCFStart      ....  0.003300
   Hessian update       SOSCFHessUp     .... L-BFGS
 Level Shifting         CNVShift        .... on
   Level shift para.    LevelShift      ....    0.2500
   Turn off err/grad.   ShiftErr        ....    0.0010
 Zerner damping         CNVZerner       .... off
 Static damping         CNVDamp         .... on
   Fraction old density DampFac         ....    0.7000
   Max. Damping (<1)    DampMax         ....    0.9800
   Min. Damping (>=0)   DampMin         ....    0.0000
   Turn off err/grad.   DampErr         ....    0.1000

SCF Procedure:
 Maximum # iterations   MaxIter         ....   125
 SCF integral mode      SCFMode         .... Direct
   Integral package                     .... SHARK and LIBINT hybrid scheme
 Reset frequency        DirectResetFreq ....    20
 Integral Threshold     Thresh          ....  1.000e-12 Eh
 Primitive CutOff       TCut            ....  1.000e-13 Eh

Convergence Tolerance:
 Convergence Check Mode ConvCheckMode   .... Total+1el-Energy
 Convergence forced     ConvForced      .... 1
 Energy Change          TolE            ....  1.000e-08 Eh
 1-El. energy change                    ....  1.000e-05 Eh
 Orbital Gradient       TolG            ....  1.000e-05
 Orbital Rotation angle TolX            ....  1.000e-05
 DIIS Error             TolErr          ....  5.000e-07

------------------------------
INITIAL GUESS: MODEL POTENTIAL
------------------------------
Loading Hartree-Fock densities                     ... done
Calculating cut-offs                               ... done
Initializing the effective Hamiltonian             ... done
Setting up the integral package (SHARK)            ... done
Starting the Coulomb interaction                   ... done (   2.1 sec)
Making the grid                                    ... done (   6.9 sec)
Mapping shells                                     ... done
Starting the XC term evaluation                    ... done (   0.7 sec)
  promolecular density results
     # of electrons  =    131.997271471
     EX              =   -113.584736512
     EC              =     -4.472256668
     EX+EC           =   -118.056993180
Transforming the Hamiltonian                       ... done (   1.8 sec)
Diagonalizing the Hamiltonian                      ... done (   1.3 sec)
Back transforming the eigenvectors                 ... done (   0.3 sec)
Now organizing SCF variables                       ... done
                      ------------------
                      INITIAL GUESS DONE (  16.2 sec)
                      ------------------
             **** ENERGY FILE WAS UPDATED (orca.en.tmp) ****
Finished Guess after  41.5 sec
Maximum memory used throughout the entire GUESS-calculation: 73.2 MB
[1737423714.112001] [ohm:3006736:0]        ib_iface.c:1059 UCX  ERROR ibv_create_cq(cqe=256) failed: Connection timed out
[1737423714.135837] [ohm:3006761:0]        ib_iface.c:1059 UCX  ERROR ibv_create_cq(cqe=256) failed: Connection timed out
[1737423714.142217] [ohm:3006740:0]        ib_iface.c:1059 UCX  ERROR ibv_create_cq(cqe=256) failed: Connection timed out
[1737423714.145332] [ohm:3006741:0]        ib_iface.c:1059 UCX  ERROR ibv_create_cq(cqe=256) failed: Connection timed out
[1737423714.159975] [ohm:3006743:0]        ib_iface.c:1059 UCX  ERROR ibv_create_cq(cqe=256) failed: Connection timed out
[1737423714.177290] [ohm:3006745:0]        ib_iface.c:1059 UCX  ERROR ibv_create_cq(cqe=256) failed: Connection timed out
[1737423714.180091] [ohm:3006759:0]        ib_iface.c:1059 UCX  ERROR ibv_create_cq(cqe=256) failed: Connection timed out
[1737423714.182198] [ohm:3006754:0]        ib_iface.c:1059 UCX  ERROR ibv_create_cq(cqe=256) failed: Connection timed out
[1737423714.183451] [ohm:3006749:0]        ib_iface.c:1059 UCX  ERROR ibv_create_cq(cqe=256) failed: Connection timed out
[1737423714.187180] [ohm:3006744:0]        ib_iface.c:1059 UCX  ERROR ibv_create_cq(cqe=256) failed: Connection timed out
[1737423714.193010] [ohm:3006752:0]        ib_iface.c:1059 UCX  ERROR ibv_create_cq(cqe=256) failed: Connection timed out
[1737423714.193319] [ohm:3006746:0]        ib_iface.c:1059 UCX  ERROR ibv_create_cq(cqe=256) failed: Connection timed out
[1737423714.200921] [ohm:3006768:0]        ib_iface.c:1059 UCX  ERROR ibv_create_cq(cqe=256) failed: Connection timed out
[1737423714.211742] [ohm:3006748:0]        ib_iface.c:1059 UCX  ERROR ibv_create_cq(cqe=256) failed: Connection timed out
[1737423714.215158] [ohm:3006757:0]        ib_iface.c:1059 UCX  ERROR ibv_create_cq(cqe=256) failed: Connection timed out
[1737423714.217899] [ohm:3006738:0]        ib_iface.c:1059 UCX  ERROR ibv_create_cq(cqe=256) failed: Connection timed out
[1737423714.222441] [ohm:3006766:0]        ib_iface.c:1059 UCX  ERROR ibv_create_cq(cqe=256) failed: Connection timed out
[1737423714.237684] [ohm:3006753:0]        ib_iface.c:1059 UCX  ERROR ibv_create_cq(cqe=256) failed: Connection timed out
[1737423714.237670] [ohm:3006750:0]        ib_iface.c:1059 UCX  ERROR ibv_create_cq(cqe=256) failed: Connection timed out
[1737423714.237977] [ohm:3006747:0]        ib_iface.c:1059 UCX  ERROR ibv_create_cq(cqe=256) failed: Connection timed out
[1737423714.238583] [ohm:3006784:0]        ib_iface.c:1059 UCX  ERROR ibv_create_cq(cqe=256) failed: Connection timed out
[1737423714.243059] [ohm:3006758:0]        ib_iface.c:1059 UCX  ERROR ibv_create_cq(cqe=256) failed: Connection timed out
[1737423714.245512] [ohm:3006739:0]        ib_iface.c:1059 UCX  ERROR ibv_create_cq(cqe=256) failed: Connection timed out
[1737423714.245862] [ohm:3006763:0]        ib_iface.c:1059 UCX  ERROR ibv_create_cq(cqe=256) failed: Connection timed out
[1737423714.246947] [ohm:3006777:0]        ib_iface.c:1059 UCX  ERROR ibv_create_cq(cqe=256) failed: Connection timed out
[1737423714.250902] [ohm:3006737:0]        ib_iface.c:1059 UCX  ERROR ibv_create_cq(cqe=256) failed: Connection timed out
[1737423714.252040] [ohm:3006755:0]        ib_iface.c:1059 UCX  ERROR ibv_create_cq(cqe=256) failed: Connection timed out
[1737423714.252431] [ohm:3006796:0]        ib_iface.c:1059 UCX  ERROR ibv_create_cq(cqe=256) failed: Connection timed out
[1737423714.256155] [ohm:3006751:0]        ib_iface.c:1059 UCX  ERROR ibv_create_cq(cqe=256) failed: Connection timed out
[1737423714.256750] [ohm:3006769:0]        ib_iface.c:1059 UCX  ERROR ibv_create_cq(cqe=256) failed: Connection timed out
[1737423714.263001] [ohm:3006742:0]        ib_iface.c:1059 UCX  ERROR ibv_create_cq(cqe=256) failed: Connection timed out
[1737423714.266513] [ohm:3006756:0]        ib_iface.c:1059 UCX  ERROR ibv_create_cq(cqe=256) failed: Connection timed out


           ************************************************************
           *        Program running with 32 parallel MPI-processes    *
           *              working on a common directory               *
           ************************************************************

-------------------------------------------------------------------------------------------
                                      ORCA LEAN-SCF
                              memory conserving SCF solver
-------------------------------------------------------------------------------------------

----------------------------------------D-I-I-S--------------------------------------------
Iteration    Energy (Eh)           Delta-E    RMSDP     MaxDP     DIISErr   Damp  Time(sec)
-------------------------------------------------------------------------------------------
               ***  Starting incremental Fock matrix formation  ***
    1    -908.0733803145678849     0.00e+00  1.37e-03  2.63e-01  1.44e-01  0.700  54.5
    2    -908.3394378657633297    -2.66e-01  1.14e-03  1.69e-01  6.79e-02  0.700  49.6
                               ***Turning on AO-DIIS***
    3    -908.4591495871216011    -1.20e-01  8.52e-04  1.03e-01  2.67e-02  0.700  40.6
    4    -908.5320933934901859    -7.29e-02  2.09e-03  2.23e-01  1.91e-02  0.000  49.0
    5    -908.6944440095028312    -1.62e-01  3.29e-04  4.59e-02  4.08e-03  0.000  46.9
                              *** Initializing SOSCF ***
---------------------------------------S-O-S-C-F--------------------------------------
Iteration    Energy (Eh)           Delta-E    RMSDP     MaxDP     MaxGrad    Time(sec)
--------------------------------------------------------------------------------------
    6    -908.6956101941839279    -1.17e-03  2.61e-04  3.32e-02  2.24e-03    43.2
               *** Restarting incremental Fock matrix formation ***
    7    -908.6963522320695574    -7.42e-04  5.22e-04  5.99e-02  8.49e-03    42.2
               *** Scaled step length from 0.202924 to 0.200000 ***
Curvature condition for BFGS not met. Restarting diagonal Hessian.
    8    -908.6985463803059702    -2.19e-03  3.03e-03  5.34e-01  1.10e-02    54.2
    9    -908.6944661563595673     4.08e-03  2.43e-03  5.09e-01  3.71e-03    44.7
   10    -908.6950477413472527    -5.82e-04  1.00e-03  1.63e-01  3.96e-03    42.5
   11    -908.6953981458761973    -3.50e-04  3.98e-04  4.79e-02  2.25e-03    42.6
   12    -908.6954677485193770    -6.96e-05  2.64e-04  3.19e-02  2.24e-03    43.4
   13    -908.6955657524797516    -9.80e-05  9.53e-04  9.27e-02  2.17e-03    43.8
Curvature condition for BFGS not met. Restarting diagonal Hessian.
   14    -908.6963396824651227    -7.74e-04  1.19e-03  1.40e-01  7.30e-03    44.9
   15    -908.6950189578667505     1.32e-03  1.36e-03  1.86e-01  1.82e-02    35.9
   16    -908.6945687155582618     4.50e-04  6.13e-04  1.13e-01  2.86e-02    41.7
               *** Scaled step length from 0.620793 to 0.200000 ***
   17    -908.7011816550859749    -6.61e-03  1.04e-03  1.54e-01  1.85e-02    43.8
               *** Scaled step length from 4.338181 to 0.200000 ***
Curvature condition for BFGS not met. Restarting diagonal Hessian.
   18    -908.7113472440603346    -1.02e-02  3.67e-03  9.81e-01  2.51e-02    40.7
   19    -908.7209938680982759    -9.65e-03  3.90e-03  1.07e+00  2.53e-02    41.6
               *** Scaled step length from 0.319193 to 0.200000 ***
   20    -908.7304873647251497    -9.49e-03  2.31e-03  3.10e-01  1.62e-02    43.0
   21    -908.7368299364486575    -6.34e-03  1.38e-03  1.72e-01  3.35e-03    45.8
   22    -908.7376402360939665    -8.10e-04  7.96e-04  1.14e-01  1.65e-03    44.1
   23    -908.7378317448117286    -1.92e-04  1.35e-04  1.68e-02  1.13e-03    44.1
   24    -908.7379081867645709    -7.64e-05  1.13e-04  1.53e-02  6.12e-04    43.2
   25    -908.7379259565402663    -1.78e-05  5.99e-05  8.86e-03  4.23e-04    42.9
   26    -908.7379361443433936    -1.02e-05  3.31e-05  4.10e-03  9.89e-05    44.4
               *** Restarting incremental Fock matrix formation ***
   27    -908.7379375172729397    -1.37e-06  1.77e-05  2.24e-03  7.99e-05    45.9
   28    -908.7379378537400498    -3.36e-07  5.81e-06  8.72e-04  3.19e-05    41.3
   29    -908.7379380115901313    -1.58e-07  4.63e-06  6.79e-04  2.57e-05    37.5
   30    -908.7379380428417335    -3.13e-08  1.30e-06  1.72e-04  1.14e-05    41.0
   31    -908.7379380177933399     2.50e-08  1.21e-06  2.94e-04  6.82e-06    37.2
   32    -908.7379380774962101    -5.97e-08  9.70e-07  2.22e-04  2.79e-06    31.3
   33    -908.7379381071939406    -2.97e-08  8.81e-07  2.00e-04  1.28e-06    27.6
                  *** Gradient check signals convergence ***

               *****************************************************
               *                     SUCCESS                       *
               *           SCF CONVERGED AFTER  33 CYCLES          *
               *****************************************************

Recomputing exchange energy using gridx3       ... done (   27.939 sec)
Old exchange energy                            :    -35.039122442 Eh
New exchange energy                            :    -35.039118075 Eh
Exchange energy change after final integration :      0.000004368 Eh
Total energy after final integration           :   -908.737933739 Eh
             **** ENERGY FILE WAS UPDATED (orca.en.tmp) ****

----------------
TOTAL SCF ENERGY
----------------

Total Energy       :       -908.73793373931994 Eh          -24728.01633 eV

Components:
Nuclear Repulsion  :       1428.78944090354230 Eh           38879.33727 eV
Electronic Energy  :      -2337.52737901073624 Eh          -63607.35372 eV
One Electron Energy:      -4075.13399532886342 Eh         -110890.03355 eV
Two Electron Energy:       1737.60661631812718 Eh           47282.67984 eV

Virial components:
Potential Energy   :      -1814.97557277384840 Eh          -49387.99617 eV
Kinetic Energy     :        906.23763903452846 Eh           24659.97985 eV
Virial Ratio       :          2.00275898351282

DFT components:
N(Alpha)           :       66.999906014719 electrons
N(Beta)            :       64.999909570060 electrons
N(Total)           :      131.999815584778 electrons
E(XC)              :      -86.310437287713 Eh       

---------------
SCF CONVERGENCE
---------------

  Last Energy change         ...    2.9698e-08  Tolerance :   1.0000e-08
  Last MAX-Density change    ...    2.0010e-04  Tolerance :   1.0000e-07
  Last RMS-Density change    ...    8.8057e-07  Tolerance :   5.0000e-09
  Last DIIS Error            ...    2.2412e-03  Tolerance :   5.0000e-07
  Last Orbital Gradient      ...    1.2799e-06  Tolerance :   1.0000e-05
  Last Orbital Rotation      ...    6.9700e-06  Tolerance :   1.0000e-05


----------------------
UHF SPIN CONTAMINATION
----------------------

Warning: in a DFT calculation there is little theoretical justification to 
         calculate <S**2> as in Hartree-Fock theory. We will do it anyways
         but you should keep in mind that the values have only limited relevance

Expectation value of <S**2>     :     2.010246
Ideal value S*(S+1) for S=1.0   :     2.000000
Deviation                       :     0.010246

----------------
ORBITAL ENERGIES
----------------
                 SPIN UP ORBITALS
  NO   OCC          E(Eh)            E(eV) 
   0   1.0000     -19.330708      -526.0153 
   1   1.0000     -19.328449      -525.9538 
   2   1.0000     -19.323153      -525.8097 
   3   1.0000     -19.315833      -525.6105 
   4   1.0000     -14.591757      -397.0619 
   5   1.0000     -14.583912      -396.8484 
   6   1.0000     -14.569870      -396.4663 
   7   1.0000     -14.546157      -395.8211 
   8   1.0000     -10.514589      -286.1165 
   9   1.0000     -10.507743      -285.9302 
  10   1.0000     -10.478945      -285.1466 
  11   1.0000     -10.453431      -284.4523 
  12   1.0000     -10.433793      -283.9180 
  13   1.0000     -10.405100      -283.1372 
  14   1.0000     -10.396006      -282.8897 
  15   1.0000     -10.381859      -282.5047 
  16   1.0000     -10.368344      -282.1370 
  17   1.0000     -10.354636      -281.7640 
  18   1.0000      -1.227849       -33.4115 
  19   1.0000      -1.223248       -33.2863 
  20   1.0000      -1.194091       -32.4929 
  21   1.0000      -1.186400       -32.2836 
  22   1.0000      -1.123103       -30.5612 
  23   1.0000      -1.122808       -30.5532 
  24   1.0000      -1.070262       -29.1233 
  25   1.0000      -1.057862       -28.7859 
  26   1.0000      -0.972789       -26.4709 
  27   1.0000      -0.957645       -26.0589 
  28   1.0000      -0.855362       -23.2756 
  29   1.0000      -0.848382       -23.0856 
  30   1.0000      -0.810762       -22.0620 
  31   1.0000      -0.807003       -21.9597 
  32   1.0000      -0.794336       -21.6150 
  33   1.0000      -0.786120       -21.3914 
  34   1.0000      -0.698825       -19.0160 
  35   1.0000      -0.696129       -18.9426 
  36   1.0000      -0.692277       -18.8378 
  37   1.0000      -0.688315       -18.7300 
  38   1.0000      -0.645078       -17.5535 
  39   1.0000      -0.634868       -17.2756 
  40   1.0000      -0.626505       -17.0481 
  41   1.0000      -0.603890       -16.4327 
  42   1.0000      -0.598044       -16.2736 
  43   1.0000      -0.591624       -16.0989 
  44   1.0000      -0.570488       -15.5238 
  45   1.0000      -0.568258       -15.4631 
  46   1.0000      -0.566886       -15.4258 
  47   1.0000      -0.552116       -15.0238 
  48   1.0000      -0.549282       -14.9467 
  49   1.0000      -0.546393       -14.8681 
  50   1.0000      -0.528635       -14.3849 
  51   1.0000      -0.525790       -14.3075 
  52   1.0000      -0.517700       -14.0873 
  53   1.0000      -0.515868       -14.0375 
  54   1.0000      -0.507108       -13.7991 
  55   1.0000      -0.501286       -13.6407 
  56   1.0000      -0.492886       -13.4121 
  57   1.0000      -0.479080       -13.0364 
  58   1.0000      -0.420987       -11.4556 
  59   1.0000      -0.418162       -11.3788 
  60   1.0000      -0.406661       -11.0658 
  61   1.0000      -0.398152       -10.8343 
  62   1.0000      -0.388452       -10.5703 
  63   1.0000      -0.385204       -10.4819 
  64   1.0000      -0.382994       -10.4218 
  65   1.0000      -0.348125        -9.4730 
  66   1.0000      -0.207316        -5.6413 
  67   0.0000       0.011797         0.3210 
  68   0.0000       0.020335         0.5533 
  69   0.0000       0.033202         0.9035 
  70   0.0000       0.037160         1.0112 
  71   0.0000       0.044554         1.2124 
  72   0.0000       0.056942         1.5495 
  73   0.0000       0.057593         1.5672 
  74   0.0000       0.066874         1.8197 
  75   0.0000       0.067747         1.8435 
  76   0.0000       0.071259         1.9391 
  77   0.0000       0.073646         2.0040 

                 SPIN DOWN ORBITALS
  NO   OCC          E(Eh)            E(eV) 
   0   1.0000     -19.328840      -525.9645 
   1   1.0000     -19.328437      -525.9535 
   2   1.0000     -19.323168      -525.8101 
   3   1.0000     -19.309460      -525.4371 
   4   1.0000     -14.586449      -396.9175 
   5   1.0000     -14.583783      -396.8449 
   6   1.0000     -14.569887      -396.4668 
   7   1.0000     -14.545242      -395.7961 
   8   1.0000     -10.514591      -286.1166 
   9   1.0000     -10.508114      -285.9403 
  10   1.0000     -10.478934      -285.1463 
  11   1.0000     -10.453159      -284.4449 
  12   1.0000     -10.433666      -283.9145 
  13   1.0000     -10.395601      -282.8787 
  14   1.0000     -10.385854      -282.6134 
  15   1.0000     -10.381873      -282.5051 
  16   1.0000     -10.368809      -282.1496 
  17   1.0000     -10.354628      -281.7637 
  18   1.0000      -1.227298       -33.3965 
  19   1.0000      -1.219407       -33.1817 
  20   1.0000      -1.194049       -32.4917 
  21   1.0000      -1.176954       -32.0266 
  22   1.0000      -1.122720       -30.5508 
  23   1.0000      -1.111966       -30.2581 
  24   1.0000      -1.070188       -29.1213 
  25   1.0000      -1.052329       -28.6353 
  26   1.0000      -0.957865       -26.0648 
  27   1.0000      -0.948437       -25.8083 
  28   1.0000      -0.848314       -23.0838 
  29   1.0000      -0.844127       -22.9699 
  30   1.0000      -0.810657       -22.0591 
  31   1.0000      -0.796510       -21.6741 
  32   1.0000      -0.793493       -21.5920 
  33   1.0000      -0.779345       -21.2071 
  34   1.0000      -0.696001       -18.9391 
  35   1.0000      -0.692354       -18.8399 
  36   1.0000      -0.686901       -18.6915 
  37   1.0000      -0.680124       -18.5071 
  38   1.0000      -0.643748       -17.5173 
  39   1.0000      -0.627100       -17.0643 
  40   1.0000      -0.620263       -16.8782 
  41   1.0000      -0.598005       -16.2725 
  42   1.0000      -0.591845       -16.1049 
  43   1.0000      -0.583396       -15.8750 
  44   1.0000      -0.568177       -15.4609 
  45   1.0000      -0.561328       -15.2745 
  46   1.0000      -0.555713       -15.1217 
  47   1.0000      -0.551204       -14.9990 
  48   1.0000      -0.541193       -14.7266 
  49   1.0000      -0.539404       -14.6779 
  50   1.0000      -0.520071       -14.1518 
  51   1.0000      -0.518219       -14.1014 
  52   1.0000      -0.516645       -14.0586 
  53   1.0000      -0.503636       -13.7046 
  54   1.0000      -0.501774       -13.6540 
  55   1.0000      -0.497991       -13.5510 
  56   1.0000      -0.478352       -13.0166 
  57   1.0000      -0.446547       -12.1512 
  58   1.0000      -0.420223       -11.4348 
  59   1.0000      -0.413205       -11.2439 
  60   1.0000      -0.403156       -10.9704 
  61   1.0000      -0.388018       -10.5585 
  62   1.0000      -0.376605       -10.2479 
  63   1.0000      -0.373988       -10.1767 
  64   1.0000      -0.347849        -9.4655 
  65   0.0000      -0.104781        -2.8512 
  66   0.0000       0.010789         0.2936 
  67   0.0000       0.020536         0.5588 
  68   0.0000       0.030668         0.8345 
  69   0.0000       0.036261         0.9867 
  70   0.0000       0.043884         1.1941 
  71   0.0000       0.056458         1.5363 
  72   0.0000       0.057676         1.5694 
  73   0.0000       0.063998         1.7415 
  74   0.0000       0.067803         1.8450 
  75   0.0000       0.069161         1.8820 
*Only the first 10 virtual orbitals were printed.

                    ********************************
                    * MULLIKEN POPULATION ANALYSIS *
                    ********************************

--------------------------------------------
MULLIKEN ATOMIC CHARGES AND SPIN POPULATIONS
--------------------------------------------
   0 O :   -0.669870    0.234523
   1 O :   -0.650064    0.000406
   2 O :   -0.623239    0.069842
   3 O :   -0.664439    0.000423
   4 N :    0.002659    0.224123
   5 N :   -0.044737    0.014574
   6 N :   -0.008459    0.043908
   7 N :    0.002572    0.001710
   8 C :    0.818478    0.232855
   9 C :    0.450817    0.027480
  10 C :   -0.234212    0.978530
  11 C :    0.092005    0.000415
  12 C :   -1.260363    0.001438
  13 C :   -1.402843   -0.008135
  14 C :    0.493046    0.189920
  15 C :    0.676258   -0.019985
  16 C :    0.359328   -0.043457
  17 C :    0.444549    0.000838
  18 H :    0.131475    0.018269
  19 H :    0.140231   -0.002395
  20 H :    0.195989    0.021103
  21 H :    0.340574    0.008422
  22 H :    0.317001    0.021167
  23 H :    0.353925    0.000212
  24 H :    0.327128    0.001407
  25 H :    0.222630    0.001871
  26 H :    0.080951   -0.020954
  27 H :    0.022989    0.001309
  28 H :    0.024410   -0.001682
  29 H :    0.061213    0.001862
Sum of atomic charges         :   -0.0000000
Sum of atomic spin populations:    2.0000000

-----------------------------------------------------
MULLIKEN REDUCED ORBITAL CHARGES AND SPIN POPULATIONS
-----------------------------------------------------
CHARGE
  0 O s       :     4.083767  s :     4.083767
      pz      :     1.734214  p :     4.556023
      px      :     1.382148
      py      :     1.439661
      dz2     :     0.002692  d :     0.028165
      dxz     :     0.001071
      dyz     :     0.006615
      dx2y2   :     0.012663
      dxy     :     0.005123
      f0      :     0.000180  f :     0.001916
      f+1     :     0.000143
      f-1     :     0.000301
      f+2     :     0.000258
      f-2     :     0.000331
      f+3     :     0.000291
      f-3     :     0.000412

  1 O s       :     4.073250  s :     4.073250
      pz      :     1.326424  p :     4.544620
      px      :     1.422762
      py      :     1.795434
      dz2     :     0.012734  d :     0.030258
      dxz     :     0.009215
      dyz     :     0.003316
      dx2y2   :     0.003339
      dxy     :     0.001655
      f0      :     0.000565  f :     0.001937
      f+1     :     0.000447
      f-1     :     0.000307
      f+2     :     0.000279
      f-2     :     0.000241
      f+3     :     0.000053
      f-3     :     0.000044

  2 O s       :     4.058745  s :     4.058745
      pz      :     1.571913  p :     4.534809
      px      :     1.507550
      py      :     1.455347
      dz2     :     0.003284  d :     0.027759
      dxz     :     0.007530
      dyz     :     0.005908
      dx2y2   :     0.006417
      dxy     :     0.004620
      f0      :     0.000227  f :     0.001926
      f+1     :     0.000184
      f-1     :     0.000394
      f+2     :     0.000435
      f-2     :     0.000390
      f+3     :     0.000123
      f-3     :     0.000173

  3 O s       :     4.067147  s :     4.067147
      pz      :     1.691433  p :     4.568369
      px      :     1.529090
      py      :     1.347846
      dz2     :     0.003260  d :     0.026997
      dxz     :    -0.000074
      dyz     :     0.006800
      dx2y2   :     0.007269
      dxy     :     0.009744
      f0      :     0.000188  f :     0.001925
      f+1     :     0.000055
      f-1     :     0.000356
      f+2     :     0.000304
      f-2     :     0.000199
      f+3     :     0.000411
      f-3     :     0.000413

  4 N s       :     3.499829  s :     3.499829
      pz      :     0.954094  p :     3.410571
      px      :     1.291336
      py      :     1.165141
      dz2     :     0.011351  d :     0.083150
      dxz     :     0.029345
      dyz     :     0.017724
      dx2y2   :     0.012149
      dxy     :     0.012581
      f0      :     0.000754  f :     0.003791
      f+1     :     0.000588
      f-1     :     0.000847
      f+2     :     0.000388
      f-2     :     0.000513
      f+3     :     0.000341
      f-3     :     0.000360

  5 N s       :     3.485218  s :     3.485218
      pz      :     1.121711  p :     3.486171
      px      :     1.426043
      py      :     0.938417
      dz2     :     0.007357  d :     0.069540
      dxz     :     0.000353
      dyz     :     0.020117
      dx2y2   :     0.014514
      dxy     :     0.027198
      f0      :     0.000297  f :     0.003808
      f+1     :     0.000238
      f-1     :     0.000608
      f+2     :     0.000619
      f-2     :     0.000591
      f+3     :     0.000706
      f-3     :     0.000749

  6 N s       :     3.517323  s :     3.517323
      pz      :     1.006892  p :     3.435509
      px      :     1.370222
      py      :     1.058396
      dz2     :    -0.001858  d :     0.051919
      dxz     :     0.005366
      dyz     :     0.022574
      dx2y2   :     0.015215
      dxy     :     0.010623
      f0      :     0.000268  f :     0.003708
      f+1     :     0.000204
      f-1     :     0.000511
      f+2     :     0.000340
      f-2     :     0.000693
      f+3     :     0.000827
      f-3     :     0.000865

  7 N s       :     3.453936  s :     3.453936
      pz      :     1.059594  p :     3.455402
      px      :     1.395307
      py      :     1.000502
      dz2     :     0.028269  d :     0.084376
      dxz     :     0.014167
      dyz     :     0.004848
      dx2y2   :     0.018732
      dxy     :     0.018360
      f0      :     0.000538  f :     0.003714
      f+1     :     0.000645
      f-1     :     0.000464
      f+2     :     0.000528
      f-2     :     0.000630
      f+3     :     0.000429
      f-3     :     0.000481

  8 C s       :     3.424338  s :     3.424338
      pz      :     0.538992  p :     1.808422
      px      :     0.702561
      py      :     0.566869
      dz2     :    -0.074622  d :    -0.060713
      dxz     :     0.008242
      dyz     :    -0.042166
      dx2y2   :     0.059637
      dxy     :    -0.011804
      f0      :     0.001455  f :     0.009476
      f+1     :     0.001110
      f-1     :     0.001901
      f+2     :     0.000988
      f-2     :     0.001383
      f+3     :     0.000920
      f-3     :     0.001719

  9 C s       :     3.490935  s :     3.490935
      pz      :     0.708782  p :     2.117758
      px      :     0.803007
      py      :     0.605968
      dz2     :     0.016319  d :    -0.068655
      dxz     :     0.014303
      dyz     :    -0.100223
      dx2y2   :    -0.006277
      dxy     :     0.007222
      f0      :     0.001699  f :     0.009145
      f+1     :     0.000869
      f-1     :     0.001363
      f+2     :     0.001443
      f-2     :     0.001781
      f+3     :     0.000828
      f-3     :     0.001162

 10 C s       :     3.568492  s :     3.568492
      pz      :     1.063882  p :     2.698539
      px      :     1.024661
      py      :     0.609996
      dz2     :    -0.033961  d :    -0.043509
      dxz     :    -0.013596
      dyz     :    -0.023536
      dx2y2   :     0.023357
      dxy     :     0.004226
      f0      :     0.001072  f :     0.010691
      f+1     :     0.000827
      f-1     :     0.001999
      f+2     :     0.001391
      f-2     :     0.002158
      f+3     :     0.001149
      f-3     :     0.002094

 11 C s       :     3.373276  s :     3.373276
      pz      :     0.917232  p :     2.442185
      px      :     0.710482
      py      :     0.814471
      dz2     :     0.014298  d :     0.081760
      dxz     :    -0.015730
      dyz     :     0.059096
      dx2y2   :     0.008577
      dxy     :     0.015518
      f0      :     0.001872  f :     0.010775
      f+1     :     0.000911
      f-1     :     0.001253
      f+2     :     0.001427
      f-2     :     0.001750
      f+3     :     0.001413
      f-3     :     0.002148

 12 C s       :     3.696529  s :     3.696529
      pz      :     1.169697  p :     3.482047
      px      :     1.319142
      py      :     0.993209
      dz2     :     0.029940  d :     0.079101
      dxz     :     0.014462
      dyz     :     0.010258
      dx2y2   :     0.015112
      dxy     :     0.009329
      f0      :     0.000320  f :     0.002686
      f+1     :     0.000169
      f-1     :     0.000654
      f+2     :     0.000490
      f-2     :     0.000380
      f+3     :     0.000413
      f-3     :     0.000259

 13 C s       :     3.756961  s :     3.756961
      pz      :     1.368680  p :     3.548336
      px      :     1.165591
      py      :     1.014065
      dz2     :     0.026550  d :     0.094922
      dxz     :     0.012924
      dyz     :     0.031045
      dx2y2   :     0.021966
      dxy     :     0.002436
      f0      :     0.000216  f :     0.002625
      f+1     :     0.000141
      f-1     :     0.000503
      f+2     :     0.000281
      f-2     :     0.000283
      f+3     :     0.000535
      f-3     :     0.000667

 14 C s       :     3.340575  s :     3.340575
      pz      :     0.672638  p :     1.984154
      px      :     0.730822
      py      :     0.580695
      dz2     :     0.055137  d :     0.160442
      dxz     :     0.044757
      dyz     :     0.003750
      dx2y2   :     0.052679
      dxy     :     0.004120
      f0      :     0.001882  f :     0.021783
      f+1     :     0.002290
      f-1     :     0.005342
      f+2     :     0.002834
      f-2     :     0.003514
      f+3     :     0.002416
      f-3     :     0.003505

 15 C s       :     3.222539  s :     3.222539
      pz      :     0.554832  p :     1.868852
      px      :     0.657470
      py      :     0.656550
      dz2     :     0.037318  d :     0.210630
      dxz     :     0.026159
      dyz     :     0.085864
      dx2y2   :     0.030412
      dxy     :     0.030877
      f0      :     0.004286  f :     0.021722
      f+1     :     0.002458
      f-1     :     0.004683
      f+2     :     0.002477
      f-2     :     0.003871
      f+3     :     0.001542
      f-3     :     0.002404

 16 C s       :     3.315641  s :     3.315641
      pz      :     0.675254  p :     2.061569
      px      :     0.694810
      py      :     0.691505
      dz2     :     0.068995  d :     0.238009
      dxz     :     0.046064
      dyz     :     0.016970
      dx2y2   :     0.071749
      dxy     :     0.034231
      f0      :     0.004089  f :     0.025454
      f+1     :     0.003877
      f-1     :     0.005960
      f+2     :     0.002941
      f-2     :     0.003137
      f+3     :     0.002283
      f-3     :     0.003168

 17 C s       :     3.258604  s :     3.258604
      pz      :     0.718662  p :     2.030477
      px      :     0.706548
      py      :     0.605267
      dz2     :     0.051637  d :     0.240811
      dxz     :     0.024222
      dyz     :     0.069752
      dx2y2   :     0.029235
      dxy     :     0.065966
      f0      :     0.003188  f :     0.025560
      f+1     :     0.001595
      f-1     :     0.006084
      f+2     :     0.003702
      f-2     :     0.003804
      f+3     :     0.003382
      f-3     :     0.003805

 18 H s       :     0.815595  s :     0.815595
      pz      :     0.007367  p :     0.050209
[...]
                          DFT DISPERSION CORRECTION                            
                                                                               
                              DFTD3 V3.1  Rev 1                                
                          USING Becke-Johnson damping                          
-------------------------------------------------------------------------------
The WB97M functional is recognized
Active option DFTDOPT                   ...         4   

molecular C6(AA) [au] = 9911.786427 


            DFT-D V3
 parameters
 s6 scaling factor         :     1.0000 
 a1 scaling factor         :     0.5660 
 s8 scaling factor         :     0.3908 
 a2 scaling factor         :     3.1280 
 ad hoc parameters k1-k3   :    16.0000     1.3333    -4.0000 

 Edisp/kcal,au: -35.584841570468  -0.056708048636 
 E6   /kcal   : -28.617093608 
 E8   /kcal   :  -6.967747963 
 % E8         :  19.580663157 

-------------------------   ----------------
Dispersion correction           -0.056708049
-------------------------   ----------------


-------------------------   --------------------
FINAL SINGLE POINT ENERGY      -908.769764603551
-------------------------   --------------------

[1737425767.593017] [ohm:3010649:0]        ib_iface.c:1059 UCX  ERROR ibv_create_cq(cqe=256) failed: Connection timed out
[1737425767.597353] [ohm:3010656:0]        ib_iface.c:1059 UCX  ERROR ibv_create_cq(cqe=256) failed: Connection timed out
[1737425767.598720] [ohm:3010651:0]        ib_iface.c:1059 UCX  ERROR ibv_create_cq(cqe=256) failed: Connection timed out
[1737425767.604696] [ohm:3010657:0]        ib_iface.c:1059 UCX  ERROR ibv_create_cq(cqe=256) failed: Connection timed out
[1737425767.623113] [ohm:3010653:0]        ib_iface.c:1059 UCX  ERROR ibv_create_cq(cqe=256) failed: Connection timed out
[1737425767.630311] [ohm:3010669:0]        ib_iface.c:1059 UCX  ERROR ibv_create_cq(cqe=256) failed: Connection timed out
[1737425767.645150] [ohm:3010659:0]        ib_iface.c:1059 UCX  ERROR ibv_create_cq(cqe=256) failed: Connection timed out
[1737425767.646192] [ohm:3010676:0]        ib_iface.c:1059 UCX  ERROR ibv_create_cq(cqe=256) failed: Connection timed out
[1737425767.646421] [ohm:3010666:0]        ib_iface.c:1059 UCX  ERROR ibv_create_cq(cqe=256) failed: Connection timed out
[1737425767.652951] [ohm:3010681:0]        ib_iface.c:1059 UCX  ERROR ibv_create_cq(cqe=256) failed: Connection timed out
[1737425767.656651] [ohm:3010654:0]        ib_iface.c:1059 UCX  ERROR ibv_create_cq(cqe=256) failed: Connection timed out
[1737425767.660940] [ohm:3010655:0]        ib_iface.c:1059 UCX  ERROR ibv_create_cq(cqe=256) failed: Connection timed out
[1737425767.665872] [ohm:3010690:0]        ib_iface.c:1059 UCX  ERROR ibv_create_cq(cqe=256) failed: Connection timed out
[1737425767.666838] [ohm:3010661:0]        ib_iface.c:1059 UCX  ERROR ibv_create_cq(cqe=256) failed: Connection timed out
[1737425767.674798] [ohm:3010665:0]        ib_iface.c:1059 UCX  ERROR ibv_create_cq(cqe=256) failed: Connection timed out
[1737425767.678108] [ohm:3010671:0]        ib_iface.c:1059 UCX  ERROR ibv_create_cq(cqe=256) failed: Connection timed out
[1737425767.681102] [ohm:3010672:0]        ib_iface.c:1059 UCX  ERROR ibv_create_cq(cqe=256) failed: Connection timed out
[1737425767.684882] [ohm:3010670:0]        ib_iface.c:1059 UCX  ERROR ibv_create_cq(cqe=256) failed: Connection timed out
[1737425767.694258] [ohm:3010667:0]        ib_iface.c:1059 UCX  ERROR ibv_create_cq(cqe=256) failed: Connection timed out
[1737425767.695467] [ohm:3010664:0]        ib_iface.c:1059 UCX  ERROR ibv_create_cq(cqe=256) failed: Connection timed out
[1737425767.695734] [ohm:3010663:0]        ib_iface.c:1059 UCX  ERROR ibv_create_cq(cqe=256) failed: Connection timed out
[1737425767.698636] [ohm:3010650:0]        ib_iface.c:1059 UCX  ERROR ibv_create_cq(cqe=256) failed: Connection timed out
[1737425767.700017] [ohm:3010652:0]        ib_iface.c:1059 UCX  ERROR ibv_create_cq(cqe=256) failed: Connection timed out
[1737425767.701971] [ohm:3010708:0]        ib_iface.c:1059 UCX  ERROR ibv_create_cq(cqe=256) failed: Connection timed out
[1737425767.705465] [ohm:3010668:0]        ib_iface.c:1059 UCX  ERROR ibv_create_cq(cqe=256) failed: Connection timed out
[1737425767.705457] [ohm:3010711:0]        ib_iface.c:1059 UCX  ERROR ibv_create_cq(cqe=256) failed: Connection timed out
[1737425767.706808] [ohm:3010658:0]        ib_iface.c:1059 UCX  ERROR ibv_create_cq(cqe=256) failed: Connection timed out
[1737425767.709817] [ohm:3010660:0]        ib_iface.c:1059 UCX  ERROR ibv_create_cq(cqe=256) failed: Connection timed out
[1737425767.716344] [ohm:3010674:0]        ib_iface.c:1059 UCX  ERROR ibv_create_cq(cqe=256) failed: Connection timed out
[1737425767.718234] [ohm:3010701:0]        ib_iface.c:1059 UCX  ERROR ibv_create_cq(cqe=256) failed: Connection timed out
[1737425767.720637] [ohm:3010694:0]        ib_iface.c:1059 UCX  ERROR ibv_create_cq(cqe=256) failed: Connection timed out
[1737425767.724915] [ohm:3010662:0]        ib_iface.c:1059 UCX  ERROR ibv_create_cq(cqe=256) failed: Connection timed out


           ************************************************************
           *        Program running with 32 parallel MPI-processes    *
           *              working on a common directory               *
           ************************************************************

------------------------------------------------------------------------------
                              ORCA PROPERTY CALCULATIONS
------------------------------------------------------------------------------

GBWName                                 ... orca.gbw
Number of atoms                         ...     30
Number of basis functions               ...    882
Max core memory                         ...   1024 MB

Electric properties:
Dipole moment                           ... YES
Quadrupole moment                       ...  NO
Static polarizability (Dipole/Dipole)   ...  NO
Static polarizability (Dipole/Quad.)    ...  NO
Static polarizability (Quad./Quad.)     ...  NO
Static polarizability (Velocity)        ...  NO

Atomic electric properties:
Dipole moment                           ...  NO
Quadrupole moment                       ...  NO
Static polarizability                   ...  NO

Choice of electric origin               ... Center of mass
Position of electric origin             ...     0.030157    -0.036429     0.079294

General magnetic properties:
Magnetizability                         ...  NO

EPR properties:
g-Tensor (aka g-matrix)                 ...  NO
Zero-Field splitting spin-orbit         ...  NO
Zero-field splitting spin-spin          ...  NO
Hyperfine couplings                     ...  NO (   0 nuclei)
Quadrupole couplings                    ...  NO (   0 nuclei)
Contact density                         ...  NO (   0 nuclei)

NMR properties:
Chemical shifts                         ...  NO (   0 nuclei)
Spin-rotation constants                 ...  NO (   0 nuclei)
Spin-spin couplings                     ...  NO (   0 nuclei,    0 pairs)

Choice of magnetic origin               ... GIAO
Position of magnetic origin             ...     0.000000     0.000000     0.000000

Properties with geometric perturbations:
SCF Hessian                             ...  NO
IR spectrum                             ...  NO
VCD spectrum                            ...  NO
X-ray spectroscopy properties:
SCF XES/XAS/RIXS spectra                ...  NO


-------------
DIPOLE MOMENT
-------------

Method             : SCF
Type of density    : Electron Density
Multiplicity       :   3
Irrep              :   0
Energy             :  -908.7379337393199421 Eh
Relativity type    : 
Basis              : AO
                                X                 Y                 Z
Electronic contribution:     -2.689963590     -10.291865712      -6.013915713
Nuclear contribution   :      1.844777470      11.412073585       8.485929894
                        -----------------------------------------
Total Dipole Moment    :     -0.845186121       1.120207872       2.472014182
                        -----------------------------------------
Magnitude (a.u.)       :      2.842544524
Magnitude (Debye)      :      7.225173986



--------------------
Rotational spectrum 
--------------------
 
Rotational constants in cm-1:             0.017711             0.015033             0.012004 
Rotational constants in MHz :           530.962211           450.674135           359.862734 

Dipole components along the rotational axes: 
x,y,z [a.u.] :     1.441286     1.080014     2.199164 
x,y,z [Debye]:     3.663459     2.745178     5.589830 

 

-------------
DIPOLE MOMENT
-------------

Method             : TDA/CIS
Type of density    : Electron Density
Level              : Relaxed density
State              :   2
Multiplicity       :   3
Irrep              :   0
Energy             :     0.0000000000000000 Eh
Relativity type    : 
Basis              : AO
                                X                 Y                 Z
Electronic contribution:     -2.725866397     -10.385365647      -6.007386023
Nuclear contribution   :      1.844777470      11.412073585       8.485929894
                        -----------------------------------------
Total Dipole Moment    :     -0.881088927       1.026707938       2.478543871
                        -----------------------------------------
Magnitude (a.u.)       :      2.823761075
Magnitude (Debye)      :      7.177430252



--------------------
Rotational spectrum 
--------------------
 
Rotational constants in cm-1:             0.017711             0.015033             0.012004 
Rotational constants in MHz :           530.962211           450.674135           359.862734 

Dipole components along the rotational axes: 
x,y,z [a.u.] :     1.457490     0.981600     2.210387 
x,y,z [Debye]:     3.704646     2.495029     5.618357 

 

Dipole moment calculation done in   1.7 sec 

Maximum memory used throughout the entire PROP-calculation: 82.3 MB
[1737425772.605589] [ohm:3010822:0]        ib_iface.c:1059 UCX  ERROR ibv_create_cq(cqe=256) failed: Connection timed out
[1737425772.613300] [ohm:3010824:0]        ib_iface.c:1059 UCX  ERROR ibv_create_cq(cqe=256) failed: Connection timed out
[1737425772.619907] [ohm:3010819:0]        ib_iface.c:1059 UCX  ERROR ibv_create_cq(cqe=256) failed: Connection timed out
[1737425772.624504] [ohm:3010833:0]        ib_iface.c:1059 UCX  ERROR ibv_create_cq(cqe=256) failed: Connection timed out
[1737425772.637467] [ohm:3010830:0]        ib_iface.c:1059 UCX  ERROR ibv_create_cq(cqe=256) failed: Connection timed out
[1737425772.639253] [ohm:3010818:0]        ib_iface.c:1059 UCX  ERROR ibv_create_cq(cqe=256) failed: Connection timed out
[1737425772.643573] [ohm:3010820:0]        ib_iface.c:1059 UCX  ERROR ibv_create_cq(cqe=256) failed: Connection timed out
[1737425772.643839] [ohm:3010835:0]        ib_iface.c:1059 UCX  ERROR ibv_create_cq(cqe=256) failed: Connection timed out
[1737425772.644532] [ohm:3010829:0]        ib_iface.c:1059 UCX  ERROR ibv_create_cq(cqe=256) failed: Connection timed out
[1737425772.657681] [ohm:3010823:0]        ib_iface.c:1059 UCX  ERROR ibv_create_cq(cqe=256) failed: Connection timed out
[1737425772.661161] [ohm:3010836:0]        ib_iface.c:1059 UCX  ERROR ibv_create_cq(cqe=256) failed: Connection timed out
[1737425772.661222] [ohm:3010828:0]        ib_iface.c:1059 UCX  ERROR ibv_create_cq(cqe=256) failed: Connection timed out
[1737425772.662647] [ohm:3010826:0]        ib_iface.c:1059 UCX  ERROR ibv_create_cq(cqe=256) failed: Connection timed out
[1737425772.663462] [ohm:3010842:0]        ib_iface.c:1059 UCX  ERROR ibv_create_cq(cqe=256) failed: Connection timed out
[1737425772.668735] [ohm:3010821:0]        ib_iface.c:1059 UCX  ERROR ibv_create_cq(cqe=256) failed: Connection timed out
[1737425772.668968] [ohm:3010838:0]        ib_iface.c:1059 UCX  ERROR ibv_create_cq(cqe=256) failed: Connection timed out
[1737425772.672410] [ohm:3010827:0]        ib_iface.c:1059 UCX  ERROR ibv_create_cq(cqe=256) failed: Connection timed out
[1737425772.679404] [ohm:3010854:0]        ib_iface.c:1059 UCX  ERROR ibv_create_cq(cqe=256) failed: Connection timed out
[1737425772.683302] [ohm:3010849:0]        ib_iface.c:1059 UCX  ERROR ibv_create_cq(cqe=256) failed: Connection timed out
[1737425772.688995] [ohm:3010840:0]        ib_iface.c:1059 UCX  ERROR ibv_create_cq(cqe=256) failed: Connection timed out
[1737425772.690472] [ohm:3010863:0]        ib_iface.c:1059 UCX  ERROR ibv_create_cq(cqe=256) failed: Connection timed out
[1737425772.696556] [ohm:3010843:0]        ib_iface.c:1059 UCX  ERROR ibv_create_cq(cqe=256) failed: Connection timed out
[1737425772.702166] [ohm:3010834:0]        ib_iface.c:1059 UCX  ERROR ibv_create_cq(cqe=256) failed: Connection timed out
[1737425772.705045] [ohm:3010839:0]        ib_iface.c:1059 UCX  ERROR ibv_create_cq(cqe=256) failed: Connection timed out
[1737425772.712059] [ohm:3010831:0]        ib_iface.c:1059 UCX  ERROR ibv_create_cq(cqe=256) failed: Connection timed out
[1737425772.712065] [ohm:3010837:0]        ib_iface.c:1059 UCX  ERROR ibv_create_cq(cqe=256) failed: Connection timed out
[1737425772.720259] [ohm:3010825:0]        ib_iface.c:1059 UCX  ERROR ibv_create_cq(cqe=256) failed: Connection timed out
[1737425772.722249] [ohm:3010841:0]        ib_iface.c:1059 UCX  ERROR ibv_create_cq(cqe=256) failed: Connection timed out
[1737425772.726890] [ohm:3010832:0]        ib_iface.c:1059 UCX  ERROR ibv_create_cq(cqe=256) failed: Connection timed out
[1737425772.730861] [ohm:3010867:0]        ib_iface.c:1059 UCX  ERROR ibv_create_cq(cqe=256) failed: Connection timed out
[1737425772.731315] [ohm:3010866:0]        ib_iface.c:1059 UCX  ERROR ibv_create_cq(cqe=256) failed: Connection timed out
[1737425772.742840] [ohm:3010857:0]        ib_iface.c:1059 UCX  ERROR ibv_create_cq(cqe=256) failed: Connection timed out

--------------------------------
SUGGESTED CITATIONS FOR THIS RUN
--------------------------------

Below you find a list of papers that are relevant to this ORCA run
We neither can nor want to force you to cite these papers, but we appreciate if you do
You receive ORCA, which is the product of decades of hard work by many enthusiastic individuals, for free
The only thing we kindly ask in return is that you cite our papers,
We deeply appreciate it, if you show your appreciation for ORCA by not just citing the generic ORCA reference.

Please note that relegating all ORCA citations to the supporting information does *not* help us.
SI sections are not indexed - citations you put there will not count into any citation statistics
But we need these citations in order to attract the funding resources that allow us to do what we are doing

Therefore, if you are a happy ORCA user, please consider citing a few of the papers listed below in the main body of your paper

In addition to the list printed below, the program has created the file orca.bibtex that contains the list in bibtex format
You can import this file easily into all common literature databanks and citation aid programs


List of essential papers. We consider these as the minimum necessary citations

  1. Neese,F.
     Software update: the ORCA program system, version 5.0
     WIRES Comput. Molec. Sci., 2022 12(1)e1606
     doi.org/10.1002/wcms.1606

List of papers to cite with high priority. The work reported in these papers was absolutely
necessary for this run to complete.
Our perspective: the developers of density functionals and basis sets usually get cited in chemistry papers
Good! But without the algorithms to do something with them, the functionals or basis sets would not do anything.
Hence, in our opinion, the algorithm design and method developments papers are equally worthy of getting cited

  1. Neese,F.; Olbrich,G.
     Efficient use of the resolution of the identity approximation in time-dependent density functional calculations with hybrid density functionals
     Chem. Phys. Lett., 2002 362 170-178
     doi.org/10.1016/s0009-2614(02)01053-9
  2. Neese,F.
     An improvement of the resolution of the identity approximation for the formation of the Coulomb matrix
     J. Comp. Chem., 2003 24(14)1740-1747
     doi.org/10.1002/jcc.10318
  3. Neese,F.; Wennmohs,F.; Hansen,A.; Becker,U.
     Efficient, approximate and parallel Hartree-Fock and hybrid DFT calculations. A 'chain-of-spheres' algorithm for the Hartree-Fock exchange
     Chem. Phys., 2009 356(1-3)98-109
     doi.org/10.1016/j.chemphys.2008.10.036
  4. Petrenko,T.; Kossmann,S.; Neese,F.
     Efficient time-dependent density functional theory approximations for hybrid density functionals: Analytical gradients and parallelization
     J. Chem. Phys., 2011 134 054116
     doi.org/10.1063/1.3533441
  5. Helmich-Paris,B.; de Souza,B.; Neese,F.; Izsák,R.
     An improved chain of spheres for exchange algorithm
     J. Chem. Phys., 2021 155 104109
     doi.org/doi: 10.1063/5.0058766.
  6. Neese,F.
     The SHARK Integral Generation and Digestion System
     J. Comp. Chem., 2022  1-16
     doi.org/10.1002/jcc.26942
  7. Lehtola,S.; Steigemann,C.; Oliveira,M.; Marques,M.
     Recent developments in Libxc - A comprehensive library of functionals for density functional theory
     Software X, 2018 7 
     doi.org/10.1016/j.softx.2017.11.002
  8. Grimme,S.; Antony,J.; Ehrlich,S.; Krieg,H.
     A consistent and accurate ab initio parametrization of density functional dispersion correction (DFT-D) for the 94 elements H-Pu
     J. Chem. Phys., 2010 132 154104-XXXX
     doi.org/10.1063/1.3382344
  9. Grimme,S.; Ehrlich,S.; Goerigk,L.
     Effect of the damping function in dispersion corrected density functional theory
     J. Comput. Chem., 2011 32(7)1456-1465
     doi.org/10.1002/jcc.21759

List of suggested additional citations. These are papers that are important in the 'surrounding' of 
of this run, or papers that preceded the highly important papers. If you like your results we are grateful for a citation.

  1. Izsak,R.; Neese,F.
     An overlap fitted chain of spheres exchange method
     J. Chem. Phys., 2011 135 144105
     doi.org/10.1063/1.3646921
  2. Izsak,R.; Hansen,A.; Neese,F.
     The resolution of identity and chain of spheres approximations for the LPNO-CCSD singles Fock term
     Molec. Phys., 2012 110 2413-2417
     doi.org/10.1080/00268976.2012.687466
  3. Neese,F.
     The ORCA program system
     WIRES Comput. Molec. Sci., 2012 2(1)73-78
     doi.org/10.1002/wcms.81
  4. Izsak,R.; Neese,F.; Klopper,W.
     Robust fitting techniques in the chain of spheres approximation to the Fock exchange: The role of the complementary space
     J. Chem. Phys., 2013 139 
     doi.org/10.1063/1.4819264
  5. Neese,F.
     Software update: the ORCA program system, version 4.0
     WIRES Comput. Molec. Sci., 2018 8(1)1-6
     doi.org/10.1002/wcms.1327
  6. Neese,F.; Wennmohs,F.; Becker,U.; Riplinger,C.
     The ORCA quantum chemistry program package
     J. Chem. Phys., 2020 152 Art. No. L224108
     doi.org/10.1063/5.0004608

List of optional additional citations

  1. Neese,F.
     Approximate second-order SCF convergence for spin unrestricted wavefunctions
     Chem. Phys. Lett., 2000 325(1-3)93-98
     doi.org/10.1016/s0009-2614(00)00662-x

Timings for individual modules:

Sum of individual times          ...     2151.308 sec (=  35.855 min)
Startup calculation              ...       50.544 sec (=   0.842 min)   2.3 %
SCF iterations                   ...     1552.615 sec (=  25.877 min)  72.2 %
Property integrals               ...       20.067 sec (=   0.334 min)   0.9 %
Property calculations            ...        5.020 sec (=   0.084 min)   0.2 %
CIS module                       ...      523.061 sec (=   8.718 min)  24.3 %
                             ****ORCA TERMINATED NORMALLY****
TOTAL RUN TIME: 0 days 0 hours 35 minutes 53 seconds 953 msec
