30
Properties=species:S:1:pos:R:3:momenta:R:3:forces:R:3 Coordinates=T from=T ORCA-job=T orca=T E=T -908.746433001189=T energy=-24726.26137291828 free_energy=-24726.26137291828 stress="7.160650535651951e-07 7.253327264463388e-07 -5.351099943641471e-07 7.253327264463388e-07 -1.526823749330214e-06 4.779172697725665e-07 -5.351099943641471e-07 4.779172697725665e-07 -2.123060843885982e-06" pbc="F F F"
O        2.14471586       0.14308317      -1.17733601      -0.09119759      -0.07564813      -0.06034531      -0.00939226       0.12073470      -0.03006268
O       -0.47780384       2.48121817      -2.46697187      -0.27317660      -0.31145850      -0.11393074      -0.72485390      -0.60353440      -0.96123066
O        0.44928279      -3.70171275       0.45229594       0.03858692      -0.11844866      -0.05235849       0.02092132       0.10815142       0.00240268
O       -2.41389170      -1.25968630      -1.08935676       0.13600760       0.07853499       0.12308100      -0.07544695      -0.07167697      -0.06205903
N        0.44553937      -1.89670025       1.82921971       0.06271895       0.22167853      -0.15830168       0.00665155      -0.18150657       0.14691552
N       -1.46895588      -0.17887011       0.64207721      -0.03221502      -0.06439914      -0.04404897       0.01013798      -0.01675933       0.08551747
N        1.10672220      -1.69029912      -0.38544341       0.28183479       0.17817584       0.08786075      -0.01919972      -0.07952760      -0.02473768
N       -1.05835097       0.45392839      -1.62049102      -0.02147223      -0.08377784      -0.00948048       0.07240794       0.22913689       0.18815505
C        1.05821986       0.37481088       0.93503904       0.01827936      -0.03316688       0.20290763       0.63169030      -0.98251742       0.28222330
C       -0.05389627       2.36223473      -0.32564169      -0.58150764       0.02553194       0.16660089      -2.30822493      -0.39628139       1.21672898
C        0.56330570      -0.50114911       2.05142831      -0.15043801       0.06591236       0.07907531      -0.09379908      -0.04671627       0.31879154
C       -0.39592188       0.43235620       1.35803545      -0.07417167      -0.02018444       0.09593503      -0.04836758      -0.10428065       0.27101342
C        2.02271677       1.46059656       1.35269079      -0.14286883       0.11087020      -0.21898394      -0.02911533       0.00139572       0.04299206
C       -0.95827484       3.29378699       0.35596840       0.25860315       0.24776362      -0.16357976       1.03958944       1.06816933      -0.29951775
C        1.48272357      -0.36511478      -0.30597352      -0.10378518      -0.07397878       0.16505785      -0.05677426      -0.02078519       0.08673374
C       -0.57604855       1.74097720      -1.50141809       0.50138218       0.05929829      -0.58515732       1.74788046       0.70987303      -1.19940983
C        0.63965872      -2.52052815       0.63489020      -0.07426127       0.19667056       0.11936442      -0.00898671      -0.10959621      -0.02112236
C       -1.68244223      -0.38076091      -0.69933729       0.01755719      -0.14728022       0.07750908       0.04975655       0.02900742       0.19514378
H        0.89029570      -0.23662942       3.05116671       0.00200863       0.00137838       0.02974534      -0.02675813      -0.05445304      -0.12977681
H       -0.64931915       1.32632997       1.91117802       0.06389209       0.01705427       0.00410486       0.00601359      -0.05815305      -0.07586678
H        2.33344830       2.04909400       0.49381042       0.01488021       0.00445322      -0.05788611       0.02035804       0.03347098       0.06425527
H        1.56246660       2.10896108       2.09587780       0.05866138      -0.07757001       0.04260749      -0.00207961       0.04048509      -0.04008782
H        2.90097083       0.99436729       1.81162748       0.02986301      -0.02600232      -0.05424687      -0.08294820       0.12099127      -0.14305297
H       -1.98388740       2.92850493       0.52368502       0.05155740      -0.08271074       0.08003216       0.31138270      -0.38009329       0.02712758
H       -0.55367443       3.71503482       1.27223694      -0.02466020      -0.01833021       0.04029616      -0.05938900       0.00625401       0.14582842
H       -1.03319024       4.10553216      -0.37462138      -0.06891088       0.04151825       0.07066037      -0.36281344       0.47080311       0.24649438
H        0.06501803      -2.48835887       2.54935099       0.05561229      -0.01255843       0.01990178       0.03335205       0.05548182      -0.05606827
H       -1.97340815      -0.88269675       1.16736556       0.00860376      -0.01307500       0.03630223       0.08938974       0.10681677      -0.10869279
H        1.35894332      -2.18238651      -1.22994443       0.01841070      -0.02971239       0.01063970       0.00768446       0.06083683       0.02045316
H       -1.27581166       0.20496622      -2.56712636       0.02020553      -0.06053878       0.06663762      -0.13906698      -0.05572703      -0.18909092
