7
Properties=species:S:1:pos:R:3:REF_forces:R:3 REF_energy=-4188.407439065545 pbc="F F F"
O        1.52508393       1.00398060      -0.04607336      -1.17775608      -0.53582302      -0.49619341
C        0.94979012      -0.01012710       0.23440689       1.41575024       0.32712257       0.82116199
C       -0.30714875      -0.67352274      -0.23620211      -0.32333747       0.42515829      -0.53504741
H        1.41868061      -0.64289398       1.02408301       0.01986397      -0.25017567       0.18847856
H       -0.03953863      -1.66651528      -0.59684178       0.01028826       0.00337914       0.01006801
H       -0.83299590      -0.12161479      -1.01138735       0.05354545       0.03994958       0.01069223
H       -0.95172601      -0.80948063       0.63201469       0.01318206      -0.00095082       0.00474426
7
Properties=species:S:1:pos:R:3:REF_forces:R:3 REF_energy=-4184.618760133495 pbc="F F F"
O        0.78313930       1.00838831      -0.00002023      -2.45686794      -0.55195450      -0.00020916
C        0.77207897      -0.33037504      -0.00007832       3.08071724      -1.36242673      -0.00244619
C       -0.64287093      -0.59806762       0.00002149      -0.84469604       2.30497698       0.00301706
H        1.26309306      -0.77159934       0.88096863       0.08733536      -0.13260213       0.06829487
H        1.26293324      -0.77153213      -0.88129176       0.08717794      -0.13177768      -0.06738911
H       -1.20409560      -0.53525869      -0.92299413       0.02380860      -0.06311491       0.05408766
H       -1.20341693      -0.53414018       0.92339432       0.02218298      -0.06397521      -0.05537124
7
Properties=species:S:1:pos:R:3:REF_forces:R:3 REF_energy=-4188.460563202768 pbc="F F F"
O        1.09370341       1.16601131      -0.05929421       0.37083798      -0.85326354       0.63051848
C        0.89609788       0.03278340       0.29743536      -0.38702067       1.67454279      -0.99815279
C       -0.30745705      -0.70682732      -0.21894309      -0.12449320      -0.64748943       0.19511857
H        1.57550886      -0.48411569       0.99674409       0.04310938      -0.19934557       0.11707211
H        0.00376609      -1.61364521      -0.73985064       0.02723083       0.01049195       0.01245930
H       -0.86436123      -0.06088013      -0.88869643       0.04862754       0.02008096       0.02618436
H       -0.93869450      -1.02409746       0.61260493       0.02495819       0.01116241       0.01415214
7
Properties=species:S:1:pos:R:3:REF_forces:R:3 REF_energy=-4188.502365792844 pbc="F F F"
O        1.29947039       1.07735796      -0.09698666      -0.23327695      -0.83682618       0.33287782
C        0.92515318      -0.00225371       0.27643177       0.34676976       1.29002760      -0.51635478
C       -0.31745736      -0.67890319      -0.22089545      -0.24252911      -0.27780646      -0.00748233
H        1.50669228      -0.56244393       1.03335211       0.02759718      -0.21144828       0.14519022
H       -0.05519202      -1.64373724      -0.65677260       0.02158859       0.00846669       0.01240280
H       -0.82162570      -0.05923788      -0.95574605       0.05401064       0.02756086       0.02157332
H       -0.98113278      -0.88176277       0.62061688       0.02281059       0.00607312       0.01009027
7
Properties=species:S:1:pos:R:3:REF_forces:R:3 REF_energy=-4188.291964081213 pbc="F F F"
O        1.59917800       0.97826921       0.00742806      -1.48967345      -0.32387160      -0.86841271
C        0.95795030      -0.01165531       0.22210113       1.75759868      -0.13950540       1.39193210
C       -0.30215611      -0.67333130      -0.24668702      -0.35148533       0.69590662      -0.74372208
H        1.38827843      -0.68479605       1.00612657       0.01520167      -0.27342547       0.19908140
H       -0.02296244      -1.66497634      -0.60125293       0.00555993       0.00379678       0.00949829
H       -0.84887995      -0.13808027      -1.02004779       0.05321770       0.04377607       0.00623544
H       -0.93118930      -0.80930383       0.63233196       0.01051527      -0.00336510       0.00511783
7
Properties=species:S:1:pos:R:3:REF_forces:R:3 REF_energy=-4188.222210837715 pbc="F F F"
O        1.20489537       0.79487104       0.67379040       1.21285682      -1.40966311       0.61101774
C        0.93562707      -0.36234600       0.44875564      -1.17491413       3.10581683      -0.48660951
C       -0.37642517      -0.46106285      -0.31751191      -0.14951589      -1.49268935      -0.14929972
H        1.56066145      -1.21710541       0.74138247       0.00433504      -0.20054207      -0.01484563
H       -0.19768592      -0.06533326      -1.31551704       0.04999369       0.02487761       0.02448000
H       -0.78414153      -1.46742577      -0.41257312       0.00925640      -0.02842747       0.00331289
H       -1.09188828       0.18384129       0.18167356       0.04908297       0.01191482       0.01849180
7
Properties=species:S:1:pos:R:3:REF_forces:R:3 REF_energy=-4186.274399106852 pbc="F F F"
O        0.28540066       0.90279038      -0.00029389      -2.66362214      -1.79159850      -0.00088491
C        0.72925228      -0.37686315      -0.00004029       2.45343152      -1.09531116      -0.00034455
C       -0.67969328      -0.52268498      -0.00005732      -0.01126022       3.14795688       0.00251426
H        1.26752564      -0.69210632       0.89679512       0.11531830      -0.07145792       0.03630408
H        1.26767141      -0.69235044      -0.89670110       0.11503459      -0.07169329      -0.03631595
H       -1.22288537      -0.58183172      -0.92782346      -0.00254154      -0.06053689       0.02821598
H       -1.22231783      -0.58073804       0.92812094      -0.00430585      -0.06255802      -0.02955123
7
Properties=species:S:1:pos:R:3:REF_forces:R:3 REF_energy=-4186.163523271092 pbc="F F F"
O        0.31205912       0.91214557      -0.00031729      -2.72854021      -1.76051339      -0.00125953
C        0.73103005      -0.37331078      -0.00006503       2.53702509      -1.14038548      -0.00050237
C       -0.67658511      -0.53014319      -0.00007905      -0.04378663       3.17841331       0.00354796
H        1.26821775      -0.69598667       0.89556247       0.11879939      -0.07857081       0.03931236
H        1.26841615      -0.69628447      -0.89546641       0.11840721      -0.07850555      -0.03931130
H       -1.22084359      -0.57658368      -0.92801462      -0.00090553      -0.06370083       0.03075690
H       -1.22008294      -0.57536145       0.92837993      -0.00329276      -0.06588360      -0.03247147
7
Properties=species:S:1:pos:R:3:REF_forces:R:3 REF_energy=-4184.296886524123 pbc="F F F"
O        0.92873379       1.01247996       0.01318576      -2.19088562      -0.22406592       0.04535930
C        0.78511620      -0.32065191       0.00070195       3.04982939      -1.44444017      -0.13390014
C       -0.63696583      -0.60068718       0.00050488      -1.10496644       1.94740870       0.05637667
H        1.25614862      -0.80574375       0.87225921       0.05842490      -0.07874133       0.08914605
H        1.25176294      -0.78471728      -0.88389544       0.07259119      -0.10411332      -0.05509856
H       -1.20267786      -0.55866431      -0.92279530       0.06504604      -0.04986750       0.06625864
H       -1.20333358      -0.51201761       0.92003894       0.04925905      -0.04725059      -0.06750713
7
Properties=species:S:1:pos:R:3:REF_forces:R:3 REF_energy=-4188.434071307396 pbc="F F F"
O        1.12393374       1.13064429       0.09719327       0.50883918      -0.82873349      -0.78610045
C        0.90254996       0.01642031      -0.30555038      -0.51508772       1.75954423       1.26002118
C       -0.31679895      -0.69488608       0.21907427      -0.12465863      -0.76244096      -0.29343845
H       -0.03108143      -1.62725419       0.70904980       0.02824647       0.01252642      -0.01403621
H        1.55707680      -0.48814739      -1.03536242       0.03202251      -0.19215013      -0.12008399
H       -0.98176071      -0.96523738      -0.60291907       0.02663256       0.01095266      -0.01521278
H       -0.82883423      -0.04399183       0.91851453       0.04770028       0.01587858      -0.02712951
7
Properties=species:S:1:pos:R:3:REF_forces:R:3 REF_energy=-4188.504793951433 pbc="F F F"
O        1.34054420       1.06321883      -0.08648489      -0.40239645      -0.81090118       0.21066254
C        0.92808822      -0.00585333       0.27497041       0.53474434       1.15864972      -0.32592523
C       -0.31540488      -0.67604618      -0.22624010      -0.25676711      -0.16036972      -0.08418467
H        1.48524257      -0.57764389       1.04307849       0.02528603      -0.21671328       0.15291247
H       -0.05374470      -1.64774297      -0.64635567       0.02007922       0.00476466       0.01157218
H       -0.81305788      -0.06542562      -0.97343682       0.05322505       0.02922879       0.02049022
H       -0.98441811      -0.86326116       0.61446859       0.02075776       0.00448545       0.00900474
7
Properties=species:S:1:pos:R:3:REF_forces:R:3 REF_energy=-4188.494289711653 pbc="F F F"
O        1.25384958       1.09380336      -0.09841657      -0.05061930      -0.85397589       0.44399856
C        0.92176426       0.00123016       0.27936528       0.14085500       1.41944016      -0.69268498
C       -0.31919889      -0.68195634      -0.21671483      -0.21789205      -0.39321315       0.06423347
H        1.53000999      -0.54998293       1.02012721       0.02990141      -0.20793645       0.13656754
H       -0.05483411      -1.63608646      -0.67476694       0.02316394       0.01044123       0.01321460
H       -0.83186893      -0.04986541      -0.93446129       0.05216881       0.02411916       0.02387730
H       -0.97572386      -0.90719163       0.62486713       0.02432176       0.00790994       0.01138032
7
Properties=species:S:1:pos:R:3:REF_forces:R:3 REF_energy=-4186.798627475881 pbc="F F F"
O        0.15883014       0.85288596      -0.00010104      -2.16292460      -1.88643479      -0.00050672
C        0.72415586      -0.39746727       0.00003152       1.82439688      -0.73502004      -0.00089646
C       -0.69744200      -0.48396327      -0.00005835       0.20021201       2.74187592       0.00183404
H        1.26401744      -0.67483984       0.90395818       0.09019807      -0.03492528       0.01758430
H        1.26402819      -0.67488351      -0.90388220       0.09050405      -0.03525820      -0.01731756
H       -1.23553192      -0.61102380      -0.92503285      -0.01539827      -0.02252713       0.00998911
H       -1.23537558      -0.61048257       0.92508474      -0.01633539      -0.02377746      -0.01064382
7
Properties=species:S:1:pos:R:3:REF_forces:R:3 REF_energy=-4185.829100352156 pbc="F F F"
O        0.39528840       0.93858810      -0.00035003      -2.84158482      -1.60694082      -0.00240761
C        0.73740114      -0.36344695      -0.00016963       2.73402409      -1.23823344      -0.00108676
C       -0.66801227      -0.55104849      -0.00019090      -0.14528717       3.18256409       0.00729756
H        1.26976140      -0.70852442       0.89217361       0.12585752      -0.10021264       0.04685648
H        1.27021746      -0.70896950      -0.89207428       0.12503308      -0.09861437      -0.04702123
H       -1.21555899      -0.56246400      -0.92792600       0.00190723      -0.06874574       0.03601955
H       -1.21397830      -0.56086896       0.92853722      -0.00280230      -0.07180908      -0.03940670
7
Properties=species:S:1:pos:R:3:REF_forces:R:3 REF_energy=-4188.335280336692 pbc="F F F"
O        1.58091242       0.98113111      -0.04220413      -1.40111385      -0.40211423      -0.72012588
C        0.95978638      -0.01204022       0.21296972       1.66498074       0.02385639       1.18486128
C       -0.30799406      -0.67325245      -0.23336576      -0.34400754       0.60324381      -0.67939001
H        1.40979477      -0.66563685       1.00050778       0.01958881      -0.26279701       0.19837297
H       -0.04156554      -1.67009522      -0.58340090       0.00784893       0.00273923       0.00930628
H       -0.85477551      -0.13767203      -1.00612376       0.05000638       0.04148935       0.00797461
H       -0.93121809      -0.79771858       0.65161706       0.00888507      -0.00133202       0.00358461
7
Properties=species:S:1:pos:R:3:REF_forces:R:3 REF_energy=-4188.2442686632585 pbc="F F F"
O        1.63724074       0.95451622      -0.00258523      -1.58953106      -0.23184957      -0.98057761
C        0.96627013      -0.01641844       0.20778282       1.86540179      -0.30576869       1.57521681
C       -0.30491291      -0.67123148      -0.24312365      -0.35051766       0.78388226      -0.81997035
H        1.38187171      -0.69566395       0.99654242       0.01060737      -0.27948229       0.20543209
H       -0.03436890      -1.66989258      -0.58359186       0.00563392      -0.00065633       0.00755310
H       -0.85683883      -0.14614021      -1.02003705       0.04882132       0.04277112       0.00510274
H       -0.92453451      -0.78829589       0.64501256       0.00766503      -0.00273358       0.00480407
7
Properties=species:S:1:pos:R:3:REF_forces:R:3 REF_energy=-4184.98437526488 pbc="F F F"
O        0.64461189       0.99327038      -0.00031022      -2.68279182      -0.92411097      -0.00006418
C        0.75944814      -0.34069788      -0.00011400       3.03241155      -1.32769620       0.00008542
C       -0.64965963      -0.58928815       0.00011216      -0.58575118       2.66787952      -0.00004681
H        1.26835008      -0.74868280       0.88445259       0.11004665      -0.13992984       0.06124914
H        1.26816755      -0.74915186      -0.88456854       0.11009550      -0.13903462      -0.06138596
H       -1.20573926      -0.53835581      -0.92479328       0.00827849      -0.06877450       0.04716183
H       -1.20538006      -0.53819639       0.92522130       0.00782385      -0.06867810      -0.04717907
7
Properties=species:S:1:pos:R:3:REF_forces:R:3 REF_energy=-4188.265176566595 pbc="F F F"
O        0.99433311       1.12154756       0.24028484       1.28984814      -0.55060239      -1.30818587
C        0.88314560       0.05116573      -0.31162431      -1.43241942       1.90304104       2.23682532
C       -0.32982422      -0.71542421       0.18131463       0.00914784      -1.21477903      -0.76435908
H       -0.00283402      -1.50865883       0.85687794       0.04557508       0.02414399      -0.00056549
H        1.58638309      -0.33597842      -1.06228703       0.02751518      -0.16393280      -0.11400170
H       -0.88362065      -1.20137661      -0.62345121       0.02265852       0.00294213      -0.02029928
H       -0.96092647      -0.01954951       0.71888513       0.04286704       0.00830559      -0.02466781
7
Properties=species:S:1:pos:R:3:REF_forces:R:3 REF_energy=-4188.361739476413 pbc="F F F"
O        0.99561363       1.17158908       0.09278465       0.94372839      -0.74907749      -0.98799172
C        0.88721284       0.03957795      -0.31268700      -1.08853929       1.94483465       1.59594098
C       -0.31212664      -0.71314042       0.21424687      -0.00407543      -1.03785697      -0.43794918
H       -0.00082019      -1.61485350       0.74494215       0.03271851       0.01373199      -0.01226492
H        1.59893175      -0.42391059      -1.01275287       0.03763310      -0.18296992      -0.10498248
H       -0.95356492      -1.04268030      -0.60525531       0.02771680       0.01514353      -0.01858051
H       -0.85852113      -0.05510233       0.87872151       0.04476267       0.01088580      -0.02743749
7
Properties=species:S:1:pos:R:3:REF_forces:R:3 REF_energy=-4188.501649011847 pbc="F F F"
O        1.36622190       1.06012830      -0.07110629      -0.54912892      -0.77947953       0.08476483
C        0.92747069      -0.00320995       0.27408686       0.69744322       1.02896114      -0.13049262
C       -0.31069340      -0.67782300      -0.23224804      -0.26785809      -0.05941528      -0.15914365
H        1.46653134      -0.58353476       1.05029573       0.02504045      -0.22164007       0.16010366
H       -0.04013066      -1.65230444      -0.64003915       0.01698449       0.00754787       0.01189959
H       -0.80938994      -0.07914776      -0.98871231       0.05359822       0.03188526       0.01791403
H       -0.98200980      -0.85946288       0.60772320       0.01976454       0.00340909       0.00719714
7
Properties=species:S:1:pos:R:3:REF_forces:R:3 REF_energy=-4186.052091631753 pbc="F F F"
O        0.33924172       0.92124285      -0.00033195      -2.77989392      -1.71942955      -0.00162721
C        0.73299369      -0.36990222      -0.00009463       2.61095001      -1.17881868      -0.00064615
C       -0.67360618      -0.53738733      -0.00010950      -0.07623604       3.19422601       0.00466719
H        1.26883982      -0.70001346       0.89438458       0.12164496      -0.08576205       0.04190376
H        1.26910218      -0.70036752      -0.89428656       0.12110393      -0.08513806      -0.04193948
H       -1.21894499      -0.57158971      -0.92808867       0.00020749      -0.06600064       0.03264033
H       -1.21795024      -0.57024241       0.92852672      -0.00279059      -0.06849919      -0.03491601
7
Properties=species:S:1:pos:R:3:REF_forces:R:3 REF_energy=-4185.082729223935 pbc="F F F"
O        0.61133788       0.98802597      -0.00029199      -2.72771514      -1.01934834       0.00014404
C        0.75643432      -0.34337963      -0.00009415       3.00933625      -1.32266685       0.00008185
C       -0.65156945      -0.58604926       0.00011758      -0.52218321       2.75592160      -0.00003360
H        1.26918196      -0.74326261       0.88534299       0.11481319      -0.13777540       0.05948479
H        1.26894717      -0.74369238      -0.88547304       0.11509195      -0.13707130      -0.05962414
H       -1.20644480      -0.54008441      -0.92527077       0.00648512      -0.06922995       0.04545538
H       -1.20614440      -0.53981206       0.92566938       0.00619403      -0.06927197      -0.04549433
7
Properties=species:S:1:pos:R:3:REF_forces:R:3 REF_energy=-4188.493157399622 pbc="F F F"
O        1.41341493       1.03735600      -0.08494232      -0.69570352      -0.73289992      -0.02642582
C        0.93702648      -0.00929147       0.25966412       0.86541884       0.88533857       0.05466366
C       -0.31354732      -0.67334190      -0.22805748      -0.28222370       0.04302012      -0.24052743
H        1.45915341      -0.59853384       1.04247326       0.02286622      -0.22535452       0.16666380
H       -0.05554388      -1.65850747      -0.61770062       0.01531920       0.00790758       0.01248611
H       -0.81366775      -0.08611426      -0.99296091       0.05363388       0.03246811       0.01732820
H       -0.97869758      -0.83033229       0.62152395       0.01891071       0.00285446       0.00769217
7
Properties=species:S:1:pos:R:3:REF_forces:R:3 REF_energy=-4184.888833478079 pbc="F F F"
O        0.67843200       0.99794166      -0.00020129      -2.63235900      -0.82807726      -0.00018822
C        0.76253753      -0.33805614      -0.00010035       3.05178200      -1.33433428      -0.00008939
C       -0.64783849      -0.59213739       0.00010821      -0.65110577       2.57803304       0.00048342
H        1.26737367      -0.75430047       0.88354806       0.10488535      -0.14066152       0.06277860
H        1.26713083      -0.75459988      -0.88375679       0.10492261      -0.13973423      -0.06273395
H       -1.20511130      -0.53715099      -0.92436370       0.01078507      -0.06805664       0.04937545
H       -1.20475881      -0.53665948       0.92476586       0.01032057      -0.06839997      -0.04955717
7
Properties=species:S:1:pos:R:3:REF_forces:R:3 REF_energy=-4184.452375302123 pbc="F F F"
O        0.85520434       1.01197196       0.00013675      -2.32831355      -0.38465333      -0.00033975
C        0.77862477      -0.32551116      -0.00012302       3.08027973      -1.39451345      -0.00183565
C       -0.63965445      -0.60017735      -0.00002466      -0.98316731       2.12708175       0.00366567
H        1.25903540      -0.78348979       0.87939711       0.07659590      -0.11685005       0.06986110
H        1.25908001      -0.78307701      -0.87982576       0.07593841      -0.11647308      -0.06975303
H       -1.20396523      -0.53538638      -0.92196088       0.04082013      -0.05743070       0.05785902
H       -1.20300393      -0.53365407       0.92240046       0.03838478      -0.05853451      -0.05944953
7
Properties=species:S:1:pos:R:3:REF_forces:R:3 REF_energy=-4187.14554874766 pbc="F F F"
O        0.06360989       0.81062803      -0.00004813      -1.52727127      -2.11043221      -0.00604555
C        0.72680097      -0.41964347       0.00006286       0.91705485      -0.15133480       0.00369522
C       -0.71488250      -0.45432904      -0.00007957       0.54949654       2.07668780       0.00369781
H        1.26323638      -0.66282153       0.91154314       0.05426832       0.00988818      -0.01112448
H        1.26311261      -0.66313440      -0.91143065       0.05590714       0.01110963       0.01017777
H       -1.24941468      -0.63615353      -0.92082018      -0.02260164       0.08201499       0.00863673
H       -1.24923592      -0.63623585       0.92077254      -0.02416759       0.08165617      -0.00919519
7
Properties=species:S:1:pos:R:3:REF_forces:R:3 REF_energy=-4186.384122659218 pbc="F F F"
O        0.25917297       0.89325751      -0.00017198      -2.58717877      -1.81485824      -0.00209510
C        0.72771820      -0.38035759       0.00002451       2.35535902      -1.04904376      -0.00241836
C       -0.68301514      -0.51500549      -0.00018846       0.02623223       3.09986425       0.00640930
H        1.26692517      -0.68843502       0.89798394       0.10995657      -0.06314166       0.03455957
H        1.26699830      -0.68876628      -0.89781581       0.11042080      -0.06191118      -0.03382788
H       -1.22530753      -0.58734226      -0.92754643      -0.00339578      -0.05586317       0.02449067
H       -1.22456329      -0.58638368       0.92771423      -0.00643931      -0.05787633      -0.02711427
7
Properties=species:S:1:pos:R:3:REF_forces:R:3 REF_energy=-4188.373708725569 pbc="F F F"
O        1.55386569       0.99019043      -0.08950711      -1.30533329      -0.47517233      -0.57368588
C        0.96037902      -0.00969780       0.20310575       1.56493359       0.18728475       0.96637487
C       -0.31302190      -0.67501126      -0.21906828      -0.34807988       0.50769348      -0.60564278
H        1.43679405      -0.64484121       0.98822552       0.02402532      -0.25443663       0.19617949
H       -0.05563337      -1.67443311      -0.56893424       0.00941456       0.00385399       0.00960595
H       -0.86621068      -0.13935285      -0.98690735       0.05338160       0.04142187       0.00728680
H       -0.92726312      -0.79423186       0.67308571       0.01200677      -0.00121947       0.00448976
7
Properties=species:S:1:pos:R:3:REF_forces:R:3 REF_energy=-4185.392232455858 pbc="F F F"
O        0.51511210       0.96927539      -0.00030660      -2.83001255      -1.29537947       0.00042850
C        0.74783832      -0.35167133      -0.00004131       2.91679802      -1.30543716      -0.00075024
C       -0.65785217      -0.57368118       0.00011480      -0.34450649       2.99332822       0.00001381
H        1.27053414      -0.72761725       0.88818554       0.12511187      -0.12471425       0.05392594
H        1.27021650      -0.72805486      -0.88827775       0.12571753      -0.12434383      -0.05376148
H       -1.20935960      -0.54718561      -0.92660695       0.00452587      -0.07052399       0.04152868
H       -1.20918060      -0.54686415       0.92693227       0.00422561      -0.07041664      -0.04145358
7
Properties=species:S:1:pos:R:3:REF_forces:R:3 REF_energy=-4186.597365976978 pbc="F F F"
O        0.20822915       0.87343013      -0.00013093      -2.40021889      -1.85404136      -0.00124624
C        0.72532194      -0.38842773       0.00003469       2.12662235      -0.91490352      -0.00149013
C       -0.68990280      -0.49947431      -0.00010740       0.09751776       2.95322303       0.00358111
H        1.26536939      -0.68140458       0.90080794       0.10117724      -0.04924801       0.02666897
H        1.26539664      -0.68153142      -0.90069973       0.10151778      -0.04916687      -0.02614247
H       -1.23004774      -0.59891472      -0.92653012      -0.00882639      -0.04349329       0.01784325
H       -1.22968353      -0.59814696       0.92662554      -0.01052639      -0.04518758      -0.01915374
7
Properties=species:S:1:pos:R:3:REF_forces:R:3 REF_energy=-4188.008239664712 pbc="F F F"
O        1.74273372       0.89401049       0.04555394      -1.87435734       0.16635831      -1.44732432
C        0.98245231      -0.02327729       0.18300422       2.21759887      -1.00707841       2.31278556
C       -0.30324555      -0.67005472      -0.25101717      -0.38959432       1.11608047      -1.09727769
H        1.34175716      -0.74586932       0.96984088      -0.00268221      -0.30044938       0.21758992
H       -0.03000541      -1.67293152      -0.57448991       0.00334585      -0.00341306       0.00640223
H       -0.87962407      -0.16881069      -1.02731951       0.04702256       0.04481323      -0.00054373
H       -0.89934586      -0.76940958       0.65442755       0.00438804      -0.00523360       0.00503660
7
Properties=species:S:1:pos:R:3:REF_forces:R:3 REF_energy=-4185.718833970408 pbc="F F F"
O        0.42452842       0.94673581      -0.00029255      -2.85479842      -1.53892395       0.00065801
C        0.73998724      -0.36048110      -0.00002537       2.78718960      -1.25937707      -0.00040068
C       -0.66509647      -0.55730394       0.00009972      -0.19838845       3.15497454      -0.00042880
H        1.27034736      -0.71315991       0.89121114       0.12800367      -0.10724421       0.04804662
H        1.27008559      -0.71360031      -0.89124942       0.12859765      -0.10697305      -0.04787552
H       -1.21345302      -0.55748936      -0.92761140       0.00370685      -0.07126781       0.03724971
H       -1.21335549      -0.55718285       0.92786788       0.00372154      -0.07104629      -0.03729940
7
Properties=species:S:1:pos:R:3:REF_forces:R:3 REF_energy=-4184.234207035744 pbc="F F F"
O        0.96210627       1.00112642       0.19300622      -1.76549363      -0.02228367       0.27637171
C        0.78320076      -0.30464029       0.01305738       2.96188865      -1.33379014      -0.95039725
C       -0.63304606      -0.58407970       0.00753684      -1.12973851       1.50477968       0.44144978
H        1.27263918      -0.96328225       0.77020993      -0.12981331       0.02457822       0.20668012
H        1.21848750      -0.65167243      -0.94498597      -0.08028124      -0.08120617       0.01488978
H       -1.18012301      -0.87427542      -0.88219566       0.15920497      -0.02214547       0.06358580
H       -1.20818753      -0.20497689       0.84337126      -0.01542583      -0.07038738      -0.05341340
7
Properties=species:S:1:pos:R:3:REF_forces:R:3 REF_energy=-4185.286748507123 pbc="F F F"
O        0.54657423       0.97599933      -0.00032475      -2.80248139      -1.20472139       0.00025562
C        0.75062312      -0.34886690      -0.00006333       2.95164350      -1.31285235      -0.00036017
C       -0.65565627      -0.57824862       0.00011919      -0.40072648       2.91999893      -0.00002767
H        1.27025807      -0.73269950       0.88721299       0.12249099      -0.12987005       0.05625683
H        1.26997809      -0.73315723      -0.88730774       0.12302070      -0.12951248      -0.05630195
H       -1.20826796      -0.54444288      -0.92616416       0.00463560      -0.07004279       0.04240190
H       -1.20803864      -0.54418589       0.92652781       0.00443474      -0.06983789      -0.04239598
7
Properties=species:S:1:pos:R:3:REF_forces:R:3 REF_energy=-4188.479298626516 pbc="F F F"
O        1.43230255       1.03879524      -0.05707504      -0.82058274      -0.69529750      -0.15236829
C        0.93827620      -0.00869269       0.25748974       1.00846041       0.75515154       0.25434836
C       -0.31064078      -0.67334496      -0.23258309      -0.29525769       0.14570022      -0.31147986
H        1.45315251      -0.61756727       1.03170717       0.02545556      -0.23371038       0.16888247
H       -0.04493914      -1.65275530      -0.63099602       0.01492840       0.00582329       0.01210616
H       -0.82344379      -0.08662090      -0.98976405       0.05386778       0.03565895       0.01600236
H       -0.96706496      -0.84278411       0.62122129       0.01724265       0.00201323       0.00666803
7
Properties=species:S:1:pos:R:3:REF_forces:R:3 REF_energy=-4187.255588771574 pbc="F F F"
O        0.01728045       0.78982862      -0.00004412      -0.32444165      -2.24794542      -0.00019837
C        0.73135627      -0.43375712       0.00012084      -0.01562072       0.62096897      -0.00073496
C       -0.72512804      -0.44055773      -0.00012167       0.33691815       0.91975150       0.00020914
H        1.26436275      -0.65744896       0.91616796       0.00233987       0.14830578      -0.07068016
H        1.26416078      -0.65751627      -0.91605575       0.00412540       0.14313766       0.06572217
H       -1.25804466      -0.64937612      -0.91827072       0.00018564       0.20376838       0.07522701
H       -1.25781995      -0.64929747       0.91820347      -0.00297123       0.19516283      -0.06939817
7
Properties=species:S:1:pos:R:3:REF_forces:R:3 REF_energy=-4188.191968278801 pbc="F F F"
O        1.65840654       0.94637072       0.01128961      -1.67247255      -0.14386673      -1.10000285
C        0.96848417      -0.01530710       0.20220733       1.96621242      -0.47066342       1.75807182