
                                 *****************
                                 * O   R   C   A *
                                 *****************

                                            #,                                       
                                            ###                                      
                                            ####                                     
                                            #####                                    
                                            ######                                   
                                           ########,                                 
                                     ,,################,,,,,                         
                               ,,#################################,,                 
                          ,,##########################################,,             
                       ,#########################################, ''#####,          
                    ,#############################################,,   '####,        
                  ,##################################################,,,,####,       
                ,###########''''           ''''###############################       
              ,#####''   ,,,,##########,,,,          '''####'''          '####       
            ,##' ,,,,###########################,,,                        '##       
           ' ,,###''''                  '''############,,,                           
         ,,##''                                '''############,,,,        ,,,,,,###''
      ,#''                                            '''#######################'''  
     '                                                          ''''####''''         
             ,#######,   #######,   ,#######,      ##                                
            ,#'     '#,  ##    ##  ,#'     '#,    #''#        ,####,   ,####,        
            ##       ##  ##   ,#'  ##            #'  '#       #'       #'  '#        
            ##       ##  #######   ##           ,######,      #####,   #    #        
            '#,     ,#'  ##    ##  '#,     ,#' ,#      #,     #,   #   #,  ,#        
             '#######'   ##     ##  '#######'  #'      '#     '####' # '####'        



                #########################################################
                #                        -***-                          #
                #          Department of theory and spectroscopy        #
                #                                                       #
                #                      Frank Neese                      #
                #                                                       #
                #     Directorship, Architecture, Infrastructure        #
                #                    SHARK, DRIVERS                     #
                #        Core code/Algorithms in most modules           #
                #                                                       #
                #        Max Planck Institute fuer Kohlenforschung      #
                #                Kaiser Wilhelm Platz 1                 #
                #                 D-45470 Muelheim/Ruhr                 #
                #                      Germany                          #
                #                                                       #
                #                  All rights reserved                  #
                #                        -***-                          #
                #########################################################


                         Program Version 6.0.0  -   RELEASE  -


 With contributions from (in alphabetic order):
   Daniel Aravena         : Magnetic Suceptibility
   Michael Atanasov       : Ab Initio Ligand Field Theory (pilot matlab implementation)
   Alexander A. Auer      : GIAO ZORA, VPT2 properties, NMR spectrum
   Ute Becker             : All parallelization in ORCA, NUMFREQ, NUMCALC
   Giovanni Bistoni       : ED, misc. LED, open-shell LED, HFLD
   Martin Brehm           : Molecular dynamics
   Dmytro Bykov           : pre 5.0 version of the SCF Hessian
   Marcos Casanova-Páez   : Triplet and SCS-CIS(D). UHF-(DLPNO)-IP/EA/STEOM-CCSD. UHF-CVS-IP/STEOM-CCSD
   Vijay G. Chilkuri      : MRCI spin determinant printing, contributions to CSF-ICE
   Pauline Colinet        : FMM embedding
   Dipayan Datta          : RHF DLPNO-CCSD density
   Achintya Kumar Dutta   : EOM-CC, STEOM-CC
   Nicolas Foglia         : Exact transition moments, OPA infrastructure, MCD improvements
   Dmitry Ganyushin       : Spin-Orbit,Spin-Spin,Magnetic field MRCI
   Miquel Garcia          : C-PCM and meta-GGA Hessian, CCSD/C-PCM, Gaussian charge scheme
   Tiago L. C. Gouveia    : GS-ROHF, GS-ROCIS
   Yang Guo               : DLPNO-NEVPT2, F12-NEVPT2, CIM, IAO-localization
   Andreas Hansen         : Spin unrestricted coupled pair/coupled cluster methods
   Ingolf Harden          : AUTO-CI MPn and infrastructure 
   Benjamin Helmich-Paris : MC-RPA, TRAH-(SCF,CASSCF), AVAS, COSX integrals, SCF dyn. polar.
   Lee Huntington         : MR-EOM, pCC
   Robert Izsak           : Overlap fitted RIJCOSX, COSX-SCS-MP3, EOM
   Riya Kayal             : Wick's Theorem for AUTO-CI, AUTO-CI UHF-CCSDT
   Emily Kempfer          : AUTO-CI, RHF CISDT and CCSDT
   Christian Kollmar      : KDIIS, OOCD, Brueckner-CCSD(T), CCSD density, CASPT2, CASPT2-K, improved NEVPT2
   Axel Koslowski         : Symmetry handling
   Simone Kossmann        : Meta GGA functionals, TD-DFT gradient, OOMP2, (MP2 Hessian; deprecated post 5.0)
   Lucas Lang             : DCDCAS
   Marvin Lechner         : AUTO-CI (C++ implementation), FIC-MRCC
   Spencer Leger          : CASSCF response
   Dagmar Lenk            : GEPOL surface, SMD, ORCA-2-JSON
   Dimitrios Liakos       : Extrapolation schemes; Compound Job, initial MDCI parallelization
   Dimitrios Manganas     : Further ROCIS development; embedding schemes. LFT, Crystal Embedding
   Dimitrios Pantazis     : SARC Basis sets
   Anastasios Papadopoulos: AUTO-CI, single reference methods and gradients
   Taras Petrenko         : pre 6.0 DFT Hessian and TD-DFT gradient, (ASA, deprecated), ECA, 1-Electron XAS/XES, NRVS
   Peter Pinski           : DLPNO-MP2, DLPNO-MP2 Gradient
   Christoph Reimann      : Effective Core Potentials
   Marius Retegan         : Local ZFS, SOC
   Christoph Riplinger    : Optimizer, TS searches, QM/MM, DLPNO-CCSD(T), (RO)-DLPNO pert. Triples
   Michael Roemelt        : Original ROCIS implementation
   Masaaki Saitow         : Open-shell DLPNO-CCSD energy and density
   Barbara Sandhoefer     : DKH picture change effects
   Kantharuban Sivalingam : CASSCF convergence/infrastructure, NEVPT2 and variants, FIC-MRCI
   Bernardo de Souza      : ESD, SOC TD-DFT
   Georgi Stoychev        : AutoAux, RI-MP2 NMR, DLPNO-MP2 response, X2C
   Van Anh Tran           : RI-MP2 g-tensors
   Willem Van den Heuvel  : Paramagnetic NMR
   Zikuan Wang            : NOTCH, Electric field optimization 
   Frank Wennmohs         : Technical directorship and infrastructure
   Hang Xu                : AUTO-CI-Response properties 


 We gratefully acknowledge several colleagues who have allowed us to
 interface, adapt or use parts of their codes:
   Stefan Grimme, W. Hujo, H. Kruse, P. Pracht,  : VdW corrections, initial TS optimization,
                  C. Bannwarth, S. Ehlert,         DFT functionals, gCP, sTDA/sTD-DF
                  L. Wittmann, M. Mueller
   Ed Valeev, F. Pavosevic, A. Kumar             : LibInt (2-el integral package), F12 methods
   Garnet Chan, S. Sharma, J. Yang, R. Olivares  : DMRG
   Ulf Ekstrom                                   : XCFun DFT Library
   Mihaly Kallay                                 : mrcc  (arbitrary order and MRCC methods)
   Frank Weinhold                                : gennbo (NPA and NBO analysis)
   Simon Mueller                                 : openCOSMO-RS
   Christopher J. Cramer and Donald G. Truhlar   : smd solvation model
   Lars Goerigk                                  : TD-DFT with DH, B97 family of functionals
   V. Asgeirsson, H. Jonsson                     : NEB implementation
   FAccTs GmbH                                   : IRC, NEB, NEB-TS, DLPNO-Multilevel, CI-OPT
                                                   MM, QMMM, 2- and 3-layer-ONIOM, Crystal-QMMM,
                                                   LR-CPCM, SF, NACMEs, symmetry and pop. for TD-DFT,
                                                   nearIR, NL-DFT gradient (VV10), updates on ESD,
                                                   ML-optimized integration grids, MBIS, APM,
                                                   GOAT, DOCKER, SOLVATOR, interface openCOSMO-RS
   S Lehtola, MJT Oliveira, MAL Marques          : LibXC Library
   Liviu Ungur et al                             : ANISO software


 Your calculation uses the libint2 library for the computation of 2-el integrals
 For citations please refer to: http://libint.valeyev.net

 Your ORCA version has been built with support for libXC version: 6.2.2
 For citations please refer to: https://libxc.gitlab.io

 This ORCA versions uses:
   CBLAS   interface :  Fast vector & matrix operations
   LAPACKE interface :  Fast linear algebra routines
   SCALAPACK package :  Parallel linear algebra routines
   Shared memory     :  Shared parallel matrices
   BLAS/LAPACK       :  OpenBLAS 0.3.27  USE64BITINT DYNAMIC_ARCH NO_AFFINITY Zen SINGLE_THREADED
        Core in use  :  Zen
   Copyright (c) 2011-2014, The OpenBLAS Project


Your calculation utilizes the atom-pairwise dispersion correction
with the Becke-Johnson damping scheme (D3BJ)


Warning: RI is on but no J-basis has been assigned. Assigning Def2/J (nothing to worry about!)
================================================================================

----- Orbital basis set information -----
Your calculation utilizes the basis: def2-TZVPPD
   F. Weigend and R. Ahlrichs, Phys. Chem. Chem. Phys. 7, 3297 (2005).
   D. Rappoport and F. Furche, J. Chem. Phys. 133, 134105 (2010)
   D. Rappoport, J. Chem. Phys. 155, 124102 (2021).

----- AuxJ basis set information -----
Your calculation utilizes the auxiliary basis: def2/J
   F. Weigend, Phys. Chem. Chem. Phys. 8, 1057 (2006).

================================================================================
                                        WARNINGS
                       Please study these warnings very carefully!
================================================================================

Using LibXC functional ID 531 : wB97M-V exchange-correlation functional
[ 1]  N. Mardirossian and M. Head-Gordon.,  J. Chem. Phys. 144, 214110 (2016)
Using LibXC functional ID 531 : wB97M-V exchange-correlation functional
[ 1]  N. Mardirossian and M. Head-Gordon.,  J. Chem. Phys. 144, 214110 (2016)

WARNING: B97M-V or wB97M-V functional requested.
  ===> : libXC variant has now been activated.
         Any manually given DFX/HFX/RangeSep scaling parameters are IGNORED!

Your calculation utilizes LibXC
 by S Lehtola, C Steigemann, MJT Oliveira & MAL Marques
Please cite in your paper:
 S Lehtola, C Steigemann, MJT Oliveira & MAL Marques, SoftwareX, 7, (2018), 1.
   


WARNING: your system is open-shell and RHF/RKS was chosen
  ===> : WILL SWITCH to UHF/UKS

INFO   : Checking CIS options ...

WARNING: CIS/ROCIS methods need fully converged wavefunctions
  ===> : Setting SCFConvForced true
         You can overwrite this default with %scf ConvForced false 


================================================================================
                                       INPUT FILE
================================================================================
NAME = orca.inp
|  1> ! Engrad wB97M-D3BJ def2-TZVPPD 
|  2> %pal nprocs 8 end%pal nprocs 16 end 
|  3> %tddft nroots 2 Iroot 1
|  4>  sf true 
|  5> end 
|  6> *xyz 0 3 
|  7> O   0.7477311673326 1.00554621485707 -0.00016843647075
|  8> C   0.76885136360066 -0.33289691933958 -0.00010218058732
|  9> C   -0.64444537872364 -0.59649605621392 6.170741637e-05
| 10> H   1.26471237335618 -0.76567670530167 0.88184190703671
| 11> H   1.26454649706453 -0.76589695223121 -0.88206148830526
| 12> H   -1.20430852846194 -0.53543131198183 -0.92342633657398
| 13> H   -1.20376409174294 -0.53485585146542 0.92385482748424
| 14> *
| 15> 
| 16>                          ****END OF INPUT****
================================================================================

                     *******************************
                     * Energy+Gradient Calculation *
                     *******************************

---------------------------------
CARTESIAN COORDINATES (ANGSTROEM)
---------------------------------
  O      0.747731    1.005546   -0.000168
  C      0.768851   -0.332897   -0.000102
  C     -0.644445   -0.596496    0.000062
  H      1.264712   -0.765677    0.881842
  H      1.264546   -0.765897   -0.882061
  H     -1.204309   -0.535431   -0.923426
  H     -1.203764   -0.534856    0.923855

----------------------------
CARTESIAN COORDINATES (A.U.)
----------------------------
  NO LB      ZA    FRAG     MASS         X           Y           Z
   0 O     8.0000    0    15.999    1.413007    1.900207   -0.000318
   1 C     6.0000    0    12.011    1.452919   -0.629084   -0.000193
   2 C     6.0000    0    12.011   -1.217825   -1.127214    0.000117
   3 H     1.0000    0     1.008    2.389960   -1.446919    1.666440
   4 H     1.0000    0     1.008    2.389647   -1.447335   -1.666855
   5 H     1.0000    0     1.008   -2.275813   -1.011819   -1.745023
   6 H     1.0000    0     1.008   -2.274784   -1.010731    1.745833

--------------------------------
INTERNAL COORDINATES (ANGSTROEM)
--------------------------------
 O      0   0   0     0.000000000000     0.00000000     0.00000000
 C      1   0   0     1.338609760370     0.00000000     0.00000000
 C      2   1   0     1.437669020910    99.66101785     0.00000000
 H      2   1   3     1.100455295697   113.60152872   241.00050185
 H      2   1   3     1.100479402031   113.60838357   119.00174771
 H      3   2   1     1.081668071460   119.89218649    80.00817928
 H      3   2   1     1.081679558030   119.86556006   280.01438526

---------------------------
INTERNAL COORDINATES (A.U.)
---------------------------
 O      0   0   0     0.000000000000     0.00000000     0.00000000
 C      1   0   0     2.529605847294     0.00000000     0.00000000
 C      2   1   0     2.716800720743    99.66101785     0.00000000
 H      2   1   3     2.079559131491   113.60152872   241.00050185
 H      2   1   3     2.079604685860   113.60838357   119.00174771
 H      3   2   1     2.044056422866   119.89218649    80.00817928
 H      3   2   1     2.044078129337   119.86556006   280.01438526

---------------------
BASIS SET INFORMATION
---------------------
There are 3 groups of distinct atoms

 Group   1 Type O   : 12s7p3d1f contracted to 6s4p3d1f pattern {621111/4111/111/1}
 Group   2 Type C   : 12s6p3d1f contracted to 6s3p3d1f pattern {621111/411/111/1}
 Group   3 Type H   : 5s3p1d contracted to 3s3p1d pattern {311/111/1}

Atom   0O    basis set group =>   1
Atom   1C    basis set group =>   2
Atom   2C    basis set group =>   2
Atom   3H    basis set group =>   3
Atom   4H    basis set group =>   3
Atom   5H    basis set group =>   3
Atom   6H    basis set group =>   3
---------------------------------
AUXILIARY/J BASIS SET INFORMATION
---------------------------------
There are 3 groups of distinct atoms

 Group   1 Type O   : 12s5p4d2f1g contracted to 6s4p3d1f1g pattern {711111/2111/211/2/1}
 Group   2 Type C   : 12s5p4d2f1g contracted to 6s4p3d1f1g pattern {711111/2111/211/2/1}
 Group   3 Type H   : 5s2p1d contracted to 3s1p1d pattern {311/2/1}

Atom   0O    basis set group =>   1
Atom   1C    basis set group =>   2
Atom   2C    basis set group =>   2
Atom   3H    basis set group =>   3
Atom   4H    basis set group =>   3
Atom   5H    basis set group =>   3
Atom   6H    basis set group =>   3
[1739830275.308444] [ohm:3840179:0]        ib_iface.c:1059 UCX  ERROR ibv_create_cq(cqe=256) failed: Connection timed out
[1739830275.327889] [ohm:3840189:0]        ib_iface.c:1059 UCX  ERROR ibv_create_cq(cqe=256) failed: Connection timed out
[1739830275.327885] [ohm:3840180:0]        ib_iface.c:1059 UCX  ERROR ibv_create_cq(cqe=256) failed: Connection timed out
[1739830275.327886] [ohm:3840182:0]        ib_iface.c:1059 UCX  ERROR ibv_create_cq(cqe=256) failed: Connection timed out
[1739830275.328816] [ohm:3840184:0]        ib_iface.c:1059 UCX  ERROR ibv_create_cq(cqe=256) failed: Connection timed out
[1739830275.328807] [ohm:3840186:0]        ib_iface.c:1059 UCX  ERROR ibv_create_cq(cqe=256) failed: Connection timed out
[1739830275.330661] [ohm:3840185:0]        ib_iface.c:1059 UCX  ERROR ibv_create_cq(cqe=256) failed: Connection timed out
[1739830275.330659] [ohm:3840187:0]        ib_iface.c:1059 UCX  ERROR ibv_create_cq(cqe=256) failed: Connection timed out
[1739830275.330669] [ohm:3840181:0]        ib_iface.c:1059 UCX  ERROR ibv_create_cq(cqe=256) failed: Connection timed out
[1739830275.330718] [ohm:3840183:0]        ib_iface.c:1059 UCX  ERROR ibv_create_cq(cqe=256) failed: Connection timed out
[1739830275.330917] [ohm:3840192:0]        ib_iface.c:1059 UCX  ERROR ibv_create_cq(cqe=256) failed: Connection timed out
[1739830275.333992] [ohm:3840199:0]        ib_iface.c:1059 UCX  ERROR ibv_create_cq(cqe=256) failed: Connection timed out
[1739830275.337705] [ohm:3840191:0]        ib_iface.c:1059 UCX  ERROR ibv_create_cq(cqe=256) failed: Connection timed out
[1739830275.338337] [ohm:3840207:0]        ib_iface.c:1059 UCX  ERROR ibv_create_cq(cqe=256) failed: Connection timed out
[1739830275.340026] [ohm:3840194:0]        ib_iface.c:1059 UCX  ERROR ibv_create_cq(cqe=256) failed: Connection timed out
[1739830275.343171] [ohm:3840204:0]        ib_iface.c:1059 UCX  ERROR ibv_create_cq(cqe=256) failed: Connection timed out


           ************************************************************
           *        Program running with 16 parallel MPI-processes    *
           *              working on a common directory               *
           ************************************************************
------------------------------------------------------------------------------
                             ORCA STARTUP CALCULATIONS
                           -- RI-GTO INTEGRALS CHOSEN --
------------------------------------------------------------------------------
------------------------------------------------------------------------------
                   ___                                                        
                  /   \      - P O W E R E D   B Y -                         
                 /     \                                                     
                 |  |  |   _    _      __       _____    __    __             
                 |  |  |  | |  | |    /  \     |  _  \  |  |  /  |          
                  \  \/   | |  | |   /    \    | | | |  |  | /  /          
                 / \  \   | |__| |  /  /\  \   | |_| |  |  |/  /          
                |  |  |   |  __  | /  /__\  \  |    /   |      \           
                |  |  |   | |  | | |   __   |  |    \   |  |\   \          
                \     /   | |  | | |  |  |  |  | |\  \  |  | \   \       
                 \___/    |_|  |_| |__|  |__|  |_| \__\ |__|  \__/        
                                                                              
                      - O R C A' S   B I G   F R I E N D -                    
                                      &                                       
                       - I N T E G R A L  F E E D E R -                       
                                                                              
 v1 FN, 2020, v2 2021, v3 2022-2024                                           
------------------------------------------------------------------------------


----------------------
SHARK INTEGRAL PACKAGE
----------------------

Number of atoms                             ...      7
Number of basis functions                   ...    182
Number of shells                            ...     68
Maximum angular momentum                    ...      3
Integral batch strategy                     ... SHARK/LIBINT Hybrid
RI-J (if used) integral strategy            ... SPLIT-RIJ (Revised 2003 algorithm where possible)
Printlevel                                  ...      1
Contraction scheme used                     ... SEGMENTED contraction
Prescreening option                         ... SCHWARTZ
   Thresh                                   ... 2.500e-11
   Tcut                                     ... 2.500e-12
   Tpresel                                  ... 2.500e-12 
Coulomb Range Separation                    ... NOT USED
Exchange Range Separation                   ... Long Range
   Mu parameter                             ... 3.000e-01
   Scaling (regular/separated)              ... 1.500e-01 8.500e-01
Multipole approximations                    ... NOT USED
Finite Nucleus Model                        ... NOT USED
CABS basis                                  ... NOT available
Auxiliary Coulomb fitting basis             ... AVAILABLE
   # of basis functions in Aux-J            ...    191
   # of shells in Aux-J                     ...     65
   Maximum angular momentum in Aux-J        ...      4
Auxiliary J/K fitting basis                 ... NOT available
Auxiliary Correlation fitting basis         ... NOT available
Auxiliary 'external' fitting basis          ... NOT available

Checking pre-screening integrals            ... done (  0.0 sec) Dimension = 68
Check shell pair data                       ... done (  0.0 sec)
Shell pair information
Shell pair cut-off parameter TPreSel        ...   2.5e-12
Total number of shell pairs                 ...      2346
Shell pairs after pre-screening             ...      2335
Total number of primitive shell pairs       ...      5434
Primitive shell pairs kept                  ...      4859
          la=0 lb=0:    457 shell pairs
          la=1 lb=0:    658 shell pairs
          la=1 lb=1:    253 shell pairs
          la=2 lb=0:    389 shell pairs
          la=2 lb=1:    286 shell pairs
          la=2 lb=2:     91 shell pairs
          la=3 lb=0:     90 shell pairs
          la=3 lb=1:     66 shell pairs
          la=3 lb=2:     39 shell pairs
          la=3 lb=3:      6 shell pairs

Calculating one electron integrals          ... done (  0.0 sec)
Calculating RI/J V-Matrix + Cholesky decomp.... done (  0.0 sec)
Calculating Nuclear repulsion               ... done (  0.0 sec) ENN=     70.437521807923 Eh

Diagonalization of the overlap matrix:
Smallest eigenvalue                        ... 1.586e-05
Time for diagonalization                   ...    0.003 sec
Threshold for overlap eigenvalues          ... 1.000e-07
Number of eigenvalues below threshold      ... 0
Time for construction of square roots      ...    0.001 sec
Total time needed                          ...    0.005 sec

-------------------
DFT GRID GENERATION
-------------------

General Integration Accuracy     IntAcc      ... 4.388
Radial Grid Type                 RadialGrid  ... OptM3 with GC (2021)
Angular Grid (max. ang.)         AngularGrid ... 4 (Lebedev-302)
Angular grid pruning method      GridPruning ... 4 (adaptive)
Weight generation scheme         WeightScheme... mBecke (2022)
Basis function cutoff            BFCut       ... 1.0000e-11
Integration weight cutoff        WCut        ... 1.0000e-14
Partially contracted basis set               ... off
Rotationally invariant grid construction     ... off
Angular grids for H and He will be reduced by one unit
Diffuse basis detected: some atoms will have their outermost
                        angular grid increased by 1.

Total number of grid points                  ...    33074
Total number of batches                      ...      520
Average number of points per batch           ...       63
Average number of grid points per atom       ...     4725

--------------------
COSX GRID GENERATION
--------------------

GRIDX 1
-------
General Integration Accuracy     IntAcc      ... 3.816
Radial Grid Type                 RadialGrid  ... OptM3 with GC (2021)
Angular Grid (max. ang.)         AngularGrid ... 1 (Lebedev-50)
Angular grid pruning method      GridPruning ... 4 (adaptive)
Weight generation scheme         WeightScheme... mBecke (2022)
Basis function cutoff            BFCut       ... 1.0000e-11
Integration weight cutoff        WCut        ... 1.0000e-14
Partially contracted basis set               ... on
Rotationally invariant grid construction     ... off
Angular grids for H and He will be reduced by one unit
Diffuse basis detected: some atoms will have their outermost
                        angular grid increased by 1.

Total number of grid points                  ...     4159
Total number of batches                      ...       36
Average number of points per batch           ...      115
Average number of grid points per atom       ...      594
UseSFitting                                  ... on

GRIDX 2
-------
General Integration Accuracy     IntAcc      ... 4.020
Radial Grid Type                 RadialGrid  ... OptM3 with GC (2021)
Angular Grid (max. ang.)         AngularGrid ... 2 (Lebedev-110)
Angular grid pruning method      GridPruning ... 4 (adaptive)
Weight generation scheme         WeightScheme... mBecke (2022)
Basis function cutoff            BFCut       ... 1.0000e-11
Integration weight cutoff        WCut        ... 1.0000e-14
Partially contracted basis set               ... on
Rotationally invariant grid construction     ... off
Angular grids for H and He will be reduced by one unit
Diffuse basis detected: some atoms will have their outermost
                        angular grid increased by 1.

Total number of grid points                  ...    10205
Total number of batches                      ...       84
Average number of points per batch           ...      121
Average number of grid points per atom       ...     1458
UseSFitting                                  ... on

GRIDX 3
-------
General Integration Accuracy     IntAcc      ... 4.338
Radial Grid Type                 RadialGrid  ... OptM3 with GC (2021)
Angular Grid (max. ang.)         AngularGrid ... 3 (Lebedev-194)
Angular grid pruning method      GridPruning ... 4 (adaptive)
Weight generation scheme         WeightScheme... mBecke (2022)
Basis function cutoff            BFCut       ... 1.0000e-11
Integration weight cutoff        WCut        ... 1.0000e-14
Partially contracted basis set               ... on
Rotationally invariant grid construction     ... off
Angular grids for H and He will be reduced by one unit
Diffuse basis detected: some atoms will have their outermost
                        angular grid increased by 1.

Total number of grid points                  ...    23015
Total number of batches                      ...      184
Average number of points per batch           ...      125
Average number of grid points per atom       ...     3288
UseSFitting                                  ... on
Initializing property integral containers    ... done (  0.0 sec)

SHARK setup successfully completed in   0.3 seconds

Maximum memory used throughout the entire STARTUP-calculation: 13.8 MB
[1739830276.294559] [ohm:3840266:0]        ib_iface.c:1059 UCX  ERROR ibv_create_cq(cqe=256) failed: Connection timed out
[1739830276.294637] [ohm:3840264:0]        ib_iface.c:1059 UCX  ERROR ibv_create_cq(cqe=256) failed: Connection timed out
[1739830276.294666] [ohm:3840268:0]        ib_iface.c:1059 UCX  ERROR ibv_create_cq(cqe=256) failed: Connection timed out
[1739830276.304887] [ohm:3840273:0]        ib_iface.c:1059 UCX  ERROR ibv_create_cq(cqe=256) failed: Connection timed out
[1739830276.306794] [ohm:3840270:0]        ib_iface.c:1059 UCX  ERROR ibv_create_cq(cqe=256) failed: Connection timed out
[1739830276.307562] [ohm:3840263:0]        ib_iface.c:1059 UCX  ERROR ibv_create_cq(cqe=256) failed: Connection timed out
[1739830276.307661] [ohm:3840265:0]        ib_iface.c:1059 UCX  ERROR ibv_create_cq(cqe=256) failed: Connection timed out
[1739830276.307651] [ohm:3840267:0]        ib_iface.c:1059 UCX  ERROR ibv_create_cq(cqe=256) failed: Connection timed out
[1739830276.307653] [ohm:3840271:0]        ib_iface.c:1059 UCX  ERROR ibv_create_cq(cqe=256) failed: Connection timed out
[1739830276.308106] [ohm:3840269:0]        ib_iface.c:1059 UCX  ERROR ibv_create_cq(cqe=256) failed: Connection timed out
[1739830276.329285] [ohm:3840275:0]        ib_iface.c:1059 UCX  ERROR ibv_create_cq(cqe=256) failed: Connection timed out
[1739830276.334943] [ohm:3840285:0]        ib_iface.c:1059 UCX  ERROR ibv_create_cq(cqe=256) failed: Connection timed out
[1739830276.335101] [ohm:3840276:0]        ib_iface.c:1059 UCX  ERROR ibv_create_cq(cqe=256) failed: Connection timed out
[1739830276.338794] [ohm:3840292:0]        ib_iface.c:1059 UCX  ERROR ibv_create_cq(cqe=256) failed: Connection timed out
[1739830276.341111] [ohm:3840279:0]        ib_iface.c:1059 UCX  ERROR ibv_create_cq(cqe=256) failed: Connection timed out
[1739830276.341113] [ohm:3840289:0]        ib_iface.c:1059 UCX  ERROR ibv_create_cq(cqe=256) failed: Connection timed out


           ************************************************************
           *        Program running with 16 parallel MPI-processes    *
           *              working on a common directory               *
           ************************************************************
-------------------------------------------------------------------------------
                                 ORCA GUESS
                   Start orbitals & Density for SCF / CASSCF
-------------------------------------------------------------------------------

------------
SCF SETTINGS
------------
Hamiltonian:
 Density Functional     Method          .... DFT(GTOs)
  Functional kind                       .... Exchange-Correlation
  Functional name                       .... wB97M-V exchange-correlation functional
  Functional family                     .... Hybrid MGGA
  Functional refs                              
    [ 0] N. Mardirossian and M. Head-Gordon.,  J. Chem. Phys. 144, 214110 (2016), doi: 10.1063/1.4952647
  Fraction of HF Exchange (short range) .... 0.1500
  Fraction of HF Exchange (long range)  .... 1.0000
  Range separation parameter mu         .... 0.3000
  Functional external parameters        .... 17
    Parameter  0 _cx00      =  8.500000e-01 : u^00 coefficient for exchange
    Parameter  1 _cx01      =  1.007000e+00 : u^01 coefficient for exchange
    Parameter  2 _cx10      =  2.590000e-01 : u^10 coefficient for exchange
    Parameter  3 _css00     =  4.430000e-01 : u^00 coefficient for same-spin correlation
    Parameter  4 _css04     = -1.437000e+00 : u^04 coefficient for same-spin correlation
    Parameter  5 _css10     = -4.535000e+00 : u^10 coefficient for same-spin correlation
    Parameter  6 _css20     = -3.390000e+00 : u^20 coefficient for same-spin correlation
    Parameter  7 _css43     =  4.278000e+00 : u^43 coefficient for same-spin correlation
    Parameter  8 _cos00     =  1.000000e+00 : u^00 coefficient for opposite-spin correlation
    Parameter  9 _cos10     =  1.358000e+00 : u^10 coefficient for opposite-spin correlation
    Parameter 10 _cos20     =  2.924000e+00 : u^20 coefficient for opposite-spin correlation
    Parameter 11 _cos21     = -8.812000e+00 : u^21 coefficient for opposite-spin correlation
    Parameter 12 _cos60     = -1.390000e+00 : u^60 coefficient for opposite-spin correlation
    Parameter 13 _cos61     =  9.142000e+00 : u^61 coefficient for opposite-spin correlation
    Parameter 14 _alpha     =  1.000000e+00 : fraction of HF exchange
    Parameter 15 _beta      = -8.500000e-01 : fraction of short-range exchange
    Parameter 16 _omega     =  3.000000e-01 : range-separation constant
 Long-range corrected/Screened/Range-Separated Hybrid DFT is turned on
   Amount of maximum screened exact exchange              ....  0.850000
   Range separation parameter mu (erf(mu*r12)/r12)        ....  0.300000
 RI-approximation to the Coulomb term is turned on
   Number of AuxJ basis functions       .... 191
   RIJ-COSX (HFX calculated with COS-X)).... on


General Settings:
 Integral files         IntName         .... orca
 Hartree-Fock type      HFTyp           .... UHF
 Total Charge           Charge          ....    0
 Multiplicity           Mult            ....    3
 Number of Electrons    NEL             ....   24
 Basis Dimension        Dim             ....  182
 Nuclear Repulsion      ENuc            ....     70.4375218079 Eh

Convergence Acceleration:
 AO-DIIS                CNVDIIS         .... on
   Start iteration      DIISMaxIt       ....    12
   Startup error        DIISStart       ....  0.200000
   # of expansion vecs  DIISMaxEq       ....     5
   Bias factor          DIISBfac        ....   1.050
   Max. coefficient     DIISMaxC        ....  10.000
 MO-DIIS                CNVKDIIS        .... off
 Trust-Rad. Augm. Hess. CNVTRAH         .... auto
   Auto Start mean grad. ratio tolernc. ....  1.125000
   Auto Start start iteration           ....    50
   Auto Start num. interpolation iter.  ....    10
   Max. Number of Micro iterations      ....    24
   Max. Number of Macro iterations      .... Maxiter - #DIIS iter
   Number of Davidson start vectors     ....     2
   Converg. threshold    (grad. norm)   ....   1.000e-05
   Grad. Scal. Fac. for Micro threshold ....   0.100
   Minimum threshold for Micro iter.    ....   1.000e-02
   NR start threshold (gradient norm)   ....   1.000e-04
   Initial trust radius                 ....   0.400
   Minimum AH scaling param. (alpha)    ....   1.000
   Maximum AH scaling param. (alpha)    .... 1000.000
   Quad. conv. algorithm                .... NR
   White noise on init. David. guess    .... on
   Maximum white noise                  ....   0.010
   Pseudo random numbers                .... off
   Inactive MOs                         .... canonical
   Orbital update algorithm             .... Taylor
   Preconditioner                       .... Diag
   Full preconditioner red. dimension   ....   250
 SOSCF                  CNVSOSCF        .... on
   Start iteration      SOSCFMaxIt      ....   150
   Startup grad/error   SOSCFStart      ....  0.003300
   Hessian update       SOSCFHessUp     .... L-BFGS
 Level Shifting         CNVShift        .... on
   Level shift para.    LevelShift      ....    0.2500
   Turn off err/grad.   ShiftErr        ....    0.0010
 Zerner damping         CNVZerner       .... off
 Static damping         CNVDamp         .... on
   Fraction old density DampFac         ....    0.7000
   Max. Damping (<1)    DampMax         ....    0.9800
   Min. Damping (>=0)   DampMin         ....    0.0000
   Turn off err/grad.   DampErr         ....    0.1000

SCF Procedure:
 Maximum # iterations   MaxIter         ....   125
 SCF integral mode      SCFMode         .... Direct
   Integral package                     .... SHARK and LIBINT hybrid scheme
 Reset frequency        DirectResetFreq ....    20
 Integral Threshold     Thresh          ....  2.500e-11 Eh
 Primitive CutOff       TCut            ....  2.500e-12 Eh

Convergence Tolerance:
 Convergence Check Mode ConvCheckMode   .... Total+1el-Energy
 Convergence forced     ConvForced      .... 1
 Energy Change          TolE            ....  1.000e-08 Eh
 1-El. energy change                    ....  1.000e-05 Eh
 Orbital Gradient       TolG            ....  1.000e-05
 Orbital Rotation angle TolX            ....  1.000e-05
 DIIS Error             TolErr          ....  5.000e-07

------------------------------
INITIAL GUESS: MODEL POTENTIAL
------------------------------
Loading Hartree-Fock densities                     ... done
Calculating cut-offs                               ... done
Initializing the effective Hamiltonian             ... done
Setting up the integral package (SHARK)            ... done
Starting the Coulomb interaction                   ... done (   0.0 sec)
Making the grid                                    ... done (   0.0 sec)
Mapping shells                                     ... done
Starting the XC term evaluation                    ... done (   0.0 sec)
  promolecular density results
     # of electrons  =     23.999392867
     EX              =    -19.490301754
     EC              =     -0.770547414
     EX+EC           =    -20.260849168
Transforming the Hamiltonian                       ... done (   0.0 sec)
Diagonalizing the Hamiltonian                      ... done (   0.0 sec)
Back transforming the eigenvectors                 ... done (   0.0 sec)
Now organizing SCF variables                       ... done
                      ------------------
                      INITIAL GUESS DONE (   0.1 sec)
                      ------------------
             **** ENERGY FILE WAS UPDATED (orca.en.tmp) ****
Finished Guess after   0.5 sec
Maximum memory used throughout the entire GUESS-calculation: 9.7 MB
[1739830277.095954] [ohm:3840371:0]        ib_iface.c:1059 UCX  ERROR ibv_create_cq(cqe=256) failed: Connection timed out
[1739830277.095970] [ohm:3840368:0]        ib_iface.c:1059 UCX  ERROR ibv_create_cq(cqe=256) failed: Connection timed out
[1739830277.098001] [ohm:3840362:0]        ib_iface.c:1059 UCX  ERROR ibv_create_cq(cqe=256) failed: Connection timed out
[1739830277.098001] [ohm:3840364:0]        ib_iface.c:1059 UCX  ERROR ibv_create_cq(cqe=256) failed: Connection timed out
[1739830277.101317] [ohm:3840383:0]        ib_iface.c:1059 UCX  ERROR ibv_create_cq(cqe=256) failed: Connection timed out
[1739830277.101335] [ohm:3840366:0]        ib_iface.c:1059 UCX  ERROR ibv_create_cq(cqe=256) failed: Connection timed out
[1739830277.102808] [ohm:3840374:0]        ib_iface.c:1059 UCX  ERROR ibv_create_cq(cqe=256) failed: Connection timed out
[1739830277.105161] [ohm:3840361:0]        ib_iface.c:1059 UCX  ERROR ibv_create_cq(cqe=256) failed: Connection timed out
[1739830277.105161] [ohm:3840363:0]        ib_iface.c:1059 UCX  ERROR ibv_create_cq(cqe=256) failed: Connection timed out
[1739830277.105182] [ohm:3840365:0]        ib_iface.c:1059 UCX  ERROR ibv_create_cq(cqe=256) failed: Connection timed out
[1739830277.105245] [ohm:3840367:0]        ib_iface.c:1059 UCX  ERROR ibv_create_cq(cqe=256) failed: Connection timed out
[1739830277.105274] [ohm:3840373:0]        ib_iface.c:1059 UCX  ERROR ibv_create_cq(cqe=256) failed: Connection timed out
[1739830277.105313] [ohm:3840377:0]        ib_iface.c:1059 UCX  ERROR ibv_create_cq(cqe=256) failed: Connection timed out
[1739830277.105335] [ohm:3840369:0]        ib_iface.c:1059 UCX  ERROR ibv_create_cq(cqe=256) failed: Connection timed out
[1739830277.114888] [ohm:3840390:0]        ib_iface.c:1059 UCX  ERROR ibv_create_cq(cqe=256) failed: Connection timed out
[1739830277.115182] [ohm:3840388:0]        ib_iface.c:1059 UCX  ERROR ibv_create_cq(cqe=256) failed: Connection timed out


           ************************************************************
           *        Program running with 16 parallel MPI-processes    *
           *              working on a common directory               *
           ************************************************************

-------------------------------------------------------------------------------------------
                                      ORCA LEAN-SCF
                              memory conserving SCF solver
-------------------------------------------------------------------------------------------

----------------------------------------D-I-I-S--------------------------------------------
Iteration    Energy (Eh)           Delta-E    RMSDP     MaxDP     DIISErr   Damp  Time(sec)
-------------------------------------------------------------------------------------------
               ***  Starting incremental Fock matrix formation  ***
    1    -153.6870516862861109     0.00e+00  9.17e-04  2.42e-02  8.54e-02  0.700   0.4
    2    -153.7168086843731771    -2.98e-02  8.31e-04  2.02e-02  5.35e-02  0.700   0.3
                               ***Turning on AO-DIIS***
    3    -153.7334850047126906    -1.67e-02  6.80e-04  1.87e-02  3.46e-02  0.700   0.3
    4    -153.7439343123364210    -1.04e-02  1.71e-03  4.73e-02  2.85e-02  0.000   0.3
    5    -153.7687967666312261    -2.49e-02  2.16e-04  1.01e-02  1.10e-02  0.000   0.3
    6    -153.7696861588210027    -8.89e-04  1.58e-04  7.08e-03  6.58e-03  0.000   0.3
    7    -153.7702111824950748    -5.25e-04  9.43e-05  3.63e-03  4.86e-03  0.000   0.3
                              *** Initializing SOSCF ***
---------------------------------------S-O-S-C-F--------------------------------------
Iteration    Energy (Eh)           Delta-E    RMSDP     MaxDP     MaxGrad    Time(sec)
--------------------------------------------------------------------------------------
    8    -153.7704358625033478    -2.25e-04  6.27e-05  2.07e-03  2.01e-03     0.3
               *** Restarting incremental Fock matrix formation ***
    9    -153.7705182657115870    -8.24e-05  3.43e-05  1.31e-03  1.78e-03     0.4
   10    -153.7705389845018544    -2.07e-05  5.11e-05  1.77e-03  9.09e-04     0.3
   11    -153.7705488304599726    -9.85e-06  1.85e-05  7.89e-04  2.81e-04     0.3
   12    -153.7705508835315982    -2.05e-06  4.05e-06  1.81e-04  9.72e-05     0.3
   13    -153.7705509693906833    -8.59e-08  1.68e-06  8.15e-05  2.14e-05     0.3
   14    -153.7705509885455513    -1.92e-08  5.02e-07  1.76e-05  1.10e-05     0.3
   15    -153.7705509894163924    -8.71e-10  5.42e-07  2.85e-05  3.11e-06     0.3
                 **** Energy Check signals convergence ****

               *****************************************************
               *                     SUCCESS                       *
               *           SCF CONVERGED AFTER  15 CYCLES          *
               *****************************************************

Recomputing exchange energy using gridx3       ... done (    0.432 sec)
Old exchange energy                            :     -6.204609612 Eh
New exchange energy                            :     -6.204614357 Eh
Exchange energy change after final integration :     -0.000004745 Eh
Total energy after final integration           :   -153.770555734 Eh
             **** ENERGY FILE WAS UPDATED (orca.en.tmp) ****

----------------
TOTAL SCF ENERGY
----------------

Total Energy       :       -153.77055573442635 Eh           -4184.30955 eV

Components:
Nuclear Repulsion  :         70.43752180792272 Eh            1916.70241 eV
Electronic Energy  :       -224.20807279733907 Eh           -6101.01183 eV
One Electron Energy:       -347.34079325207665 Eh           -9451.62350 eV
Two Electron Energy:        123.13272045473757 Eh            3350.61167 eV

Virial components:
Potential Energy   :       -307.28321913440908 Eh           -8361.60149 eV
Kinetic Energy     :        153.51266339998273 Eh            4177.29194 eV
Virial Ratio       :          2.00167994176332

DFT components:
N(Alpha)           :       13.000003916675 electrons
N(Beta)            :       10.999994643903 electrons
N(Total)           :       23.999998560578 electrons
E(XC)              :      -14.733213536408 Eh       

---------------
SCF CONVERGENCE
---------------

  Last Energy change         ...    8.7084e-10  Tolerance :   1.0000e-08
  Last MAX-Density change    ...    2.8546e-05  Tolerance :   1.0000e-07
  Last RMS-Density change    ...    5.4247e-07  Tolerance :   5.0000e-09
  Last DIIS Error            ...    2.0061e-03  Tolerance :   5.0000e-07
  Last Orbital Gradient      ...    3.1125e-06  Tolerance :   1.0000e-05
  Last Orbital Rotation      ...    1.2981e-05  Tolerance :   1.0000e-05


----------------------
UHF SPIN CONTAMINATION
----------------------

Warning: in a DFT calculation there is little theoretical justification to 
         calculate <S**2> as in Hartree-Fock theory. We will do it anyways
         but you should keep in mind that the values have only limited relevance

Expectation value of <S**2>     :     2.008279
Ideal value S*(S+1) for S=1.0   :     2.000000
Deviation                       :     0.008279

----------------
ORBITAL ENERGIES
----------------
                 SPIN UP ORBITALS
  NO   OCC          E(Eh)            E(eV) 
   0   1.0000     -19.397102      -527.8220 
   1   1.0000     -10.406931      -283.1870 
   2   1.0000     -10.349103      -281.6134 
   3   1.0000      -1.196145       -32.5488 
   4   1.0000      -0.873722       -23.7752 
   5   1.0000      -0.736100       -20.0303 
   6   1.0000      -0.636286       -17.3142 
   7   1.0000      -0.596230       -16.2242 
   8   1.0000      -0.554805       -15.0970 
   9   1.0000      -0.513540       -13.9741 
  10   1.0000      -0.441029       -12.0010 
  11   1.0000      -0.425619       -11.5817 
  12   1.0000      -0.304990        -8.2992 
  13   0.0000       0.041197         1.1210 
  14   0.0000       0.063408         1.7254 
  15   0.0000       0.073655         2.0043 
  16   0.0000       0.086820         2.3625 
  17   0.0000       0.117365         3.1937 
  18   0.0000       0.128927         3.5083 
  19   0.0000       0.135082         3.6758 
  20   0.0000       0.138087         3.7575 
  21   0.0000       0.165173         4.4946 
  22   0.0000       0.193779         5.2730 
  23   0.0000       0.207628         5.6498 

                 SPIN DOWN ORBITALS
  NO   OCC          E(Eh)            E(eV) 
   0   1.0000     -19.370927      -527.1097 
   1   1.0000     -10.408230      -283.2223 
   2   1.0000     -10.336289      -281.2647 
   3   1.0000      -1.139327       -31.0027 
   4   1.0000      -0.839933       -22.8557 
   5   1.0000      -0.712776       -19.3956 
   6   1.0000      -0.596816       -16.2402 
   7   1.0000      -0.562305       -15.3011 
   8   1.0000      -0.532810       -14.4985 
   9   1.0000      -0.477060       -12.9815 
  10   1.0000      -0.384652       -10.4669 
  11   0.0000      -0.067011        -1.8235 
  12   0.0000       0.013471         0.3666 
  13   0.0000       0.040052         1.0899 
  14   0.0000       0.064116         1.7447 
  15   0.0000       0.073051         1.9878 
  16   0.0000       0.091724         2.4959 
  17   0.0000       0.116878         3.1804 
  18   0.0000       0.133388         3.6297 
  19   0.0000       0.136000         3.7007 
  20   0.0000       0.144273         3.9259 
  21   0.0000       0.172198         4.6858 
*Only the first 10 virtual orbitals were printed.

                    ********************************
                    * MULLIKEN POPULATION ANALYSIS *
                    ********************************

--------------------------------------------
MULLIKEN ATOMIC CHARGES AND SPIN POPULATIONS
--------------------------------------------
   0 O :   -0.310393    0.967664
   1 C :    0.041912   -0.013353
   2 C :   -0.615381    0.860940
   3 H :    0.201030    0.066401
   4 H :    0.201084    0.066358
   5 H :    0.240889    0.025999
   6 H :    0.240859    0.025991
Sum of atomic charges         :   -0.0000000
Sum of atomic spin populations:    2.0000000

-----------------------------------------------------
MULLIKEN REDUCED ORBITAL CHARGES AND SPIN POPULATIONS
-----------------------------------------------------
CHARGE
  0 O s       :     4.009996  s :     4.009996
      pz      :     1.069379  p :     4.279744
      px      :     1.878177
      py      :     1.332187
      dz2     :     0.003157  d :     0.019266
      dxz     :    -0.001238
      dyz     :     0.006576
      dx2y2   :     0.007363
      dxy     :     0.003408
      f0      :     0.000137  f :     0.001387
      f+1     :     0.000039
      f-1     :     0.000150
      f+2     :     0.000231
      f-2     :     0.000011
      f+3     :     0.000356
      f-3     :     0.000463

  1 C s       :     3.174355  s :     3.174355
      pz      :     1.118272  p :     2.623658
      px      :     0.888235
      py      :     0.617152
      dz2     :     0.004565  d :     0.148369
      dxz     :     0.014473
      dyz     :     0.051167
      dx2y2   :     0.015373
      dxy     :     0.062790
      f0      :     0.001078  f :     0.011706
      f+1     :     0.000655
      f-1     :     0.000995
      f+2     :     0.001874
      f-2     :     0.000079
      f+3     :     0.004414
      f-3     :     0.002610

  2 C s       :     3.578151  s :     3.578151
      pz      :     1.131972  p :     3.012298
      px      :     0.922037
      py      :     0.958289
      dz2     :     0.009666  d :     0.020592
      dxz     :    -0.000704
      dyz     :    -0.000945
      dx2y2   :     0.002305
      dxy     :     0.010271
      f0      :     0.000569  f :     0.004342
      f+1     :     0.000618
      f-1     :     0.000105
      f+2     :     0.000836
      f-2     :     0.000084
      f+3     :     0.001176
      f-3     :     0.000953

  3 H s       :     0.758706  s :     0.758706
      pz      :     0.018583  p :     0.037700
      px      :     0.008884
      py      :     0.010233
      dz2     :     0.000747  d :     0.002564
      dxz     :     0.000524
      dyz     :     0.000561
      dx2y2   :     0.000479
      dxy     :     0.000252

  4 H s       :     0.758661  s :     0.758661
      pz      :     0.018580  p :     0.037691
      px      :     0.008878
      py      :     0.010233
      dz2     :     0.000747  d :     0.002563
      dxz     :     0.000524
      dyz     :     0.000561
      dx2y2   :     0.000479
      dxy     :     0.000252

  5 H s       :     0.705088  s :     0.705088
      pz      :     0.012389  p :     0.051776
      px      :     0.011528
      py      :     0.027859
      dz2     :     0.000627  d :     0.002247
      dxz     :     0.000499
      dyz     :     0.000633
      dx2y2   :     0.000229
      dxy     :     0.000259

  6 H s       :     0.705119  s :     0.705119
      pz      :     0.012391  p :     0.051775
      px      :     0.011529
      py      :     0.027855
      dz2     :     0.000628  d :     0.002248
      dxz     :     0.000500
      dyz     :     0.000633
      dx2y2   :     0.000229
      dxy     :     0.000258


SPIN
  0 O s       :     0.008861  s :     0.008861
      pz      :     0.858950  p :     0.962842
      px      :     0.047554
      py      :     0.056338
      dz2     :     0.000975  d :    -0.003868
      dxz     :     0.000011
      dyz     :    -0.005476
      dx2y2   :     0.000118
      dxy     :     0.000503
      f0      :    -0.000050  f :    -0.000170
      f+1     :     0.000013
      f-1     :    -0.000143
      f+2     :    -0.000009
      f-2     :     0.000001
      f+3     :     0.000004
      f-3     :     0.000014

  1 C s       :    -0.001567  s :    -0.001567
      pz      :     0.005183  p :    -0.082524
      px      :    -0.024752
      py      :    -0.062955
      dz2     :     0.003644  d :     0.066850
      dxz     :     0.004744
      dyz     :     0.051301
      dx2y2   :     0.012780
      dxy     :    -0.005620
      f0      :     0.000696  f :     0.003888
      f+1     :     0.000021
      f-1     :     0.000020
      f+2     :     0.001119
      f-2     :     0.000011
      f+3     :     0.000926
      f-3     :     0.001096

  2 C s       :    -0.004742  s :    -0.004742
      pz      :     0.011890  p :     0.880204
      px      :     0.026663
      py      :     0.841652
      dz2     :    -0.000050  d :    -0.013608
      dxz     :    -0.008733
      dyz     :    -0.001008
      dx2y2   :    -0.003455
      dxy     :    -0.000362
      f0      :    -0.000108  f :    -0.000915
      f+1     :    -0.000211
      f-1     :     0.000064
      f+2     :    -0.000210
      f-2     :     0.000009
      f+3     :    -0.000401
      f-3     :    -0.000057

  3 H s       :     0.055692  s :     0.055692
      pz      :     0.004834  p :     0.010699
      px      :     0.001681
      py      :     0.004184
      dz2     :    -0.000008  d :     0.000010
      dxz     :     0.000015
      dyz     :     0.000001
      dx2y2   :     0.000005
      dxy     :    -0.000003

  4 H s       :     0.055657  s :     0.055657
      pz      :     0.004832  p :     0.010692
      px      :     0.001676
      py      :     0.004184
      dz2     :    -0.000008  d :     0.000010
      dxz     :     0.000015
      dyz     :     0.000001
      dx2y2   :     0.000005
      dxy     :    -0.000003

  5 H s       :    -0.002632  s :    -0.002632
      pz      :    -0.000096  p :     0.027613
      px      :     0.001537
      py      :     0.026173
      dz2     :     0.000100  d :     0.001018
      dxz     :     0.000050
      dyz     :     0.000604
      dx2y2   :     0.000033
      dxy     :     0.000231

  6 H s       :    -0.002631  s :    -0.002631
      pz      :    -0.000100  p :     0.027605
      px      :     0.001535
      py      :     0.026170
      dz2     :     0.000100  d :     0.001018
      dxz     :     0.000050
      dyz     :     0.000604
      dx2y2   :     0.000033
      dxy     :     0.000230



                     *******************************
                     * LOEWDIN POPULATION ANALYSIS *
                     *******************************

-------------------------------------------
LOEWDIN ATOMIC CHARGES AND SPIN POPULATIONS
-------------------------------------------
   0 O :    0.089673    0.916427
   1 C :   -0.279701    0.196004
   2 C :    0.205713    0.634137
   3 H :    0.041941    0.049774
   4 H :    0.041948    0.049750
   5 H :   -0.049791    0.076962
   6 H :   -0.049783    0.076946

----------------------------------------------------
LOEWDIN REDUCED ORBITAL CHARGES AND SPIN POPULATIONS
----------------------------------------------------
CHARGE
  0 O s       :     3.448837  s :     3.448837
      pz      :     1.000169  p :     4.166215
      px      :     1.701156
      py      :     1.464890
      dz2     :     0.026257  d :     0.290481
      dxz     :     0.008496
      dyz     :     0.081550
      dx2y2   :     0.070037
      dxy     :     0.104141
      f0      :     0.000563  f :     0.004795
      f+1     :     0.000182
      f-1     :     0.000516
      f+2     :     0.000837
      f-2     :     0.000025
      f+3     :     0.001633
      f-3     :     0.001039

  1 C s       :     2.645968  s :     2.645968
      pz      :     0.894106  p :     2.609310
      px      :     0.928130
      py      :     0.787074
      dz2     :     0.104173  d :     0.926642
      dxz     :     0.169439
      dyz     :     0.117394
      dx2y2   :     0.257898
      dxy     :     0.277738
      f0      :     0.007504  f :     0.097781
      f+1     :     0.006571
      f-1     :     0.011588
      f+2     :     0.013040
      f-2     :     0.004380
      f+3     :     0.031637
      f-3     :     0.023061

  2 C s       :     2.722304  s :     2.722304
      pz      :     0.958986  p :     2.599133
      px      :     0.936448
      py      :     0.703699
      dz2     :     0.070448  d :     0.445345
      dxz     :     0.195882
      dyz     :     0.007029
      dx2y2   :     0.093686
      dxy     :     0.078301
      f0      :     0.003512  f :     0.027504
      f+1     :     0.005551
      f-1     :     0.001200
      f+2     :     0.005068
      f-2     :     0.000742
      f+3     :     0.005401
      f-3     :     0.006031

  3 H s       :     0.675353  s :     0.675353
      pz      :     0.109383  p :     0.253343
      px      :     0.081290
      py      :     0.062670
      dz2     :     0.008902  d :     0.029363
      dxz     :     0.007171
      dyz     :     0.006563
      dx2y2   :     0.003764
      dxy     :     0.002963

  4 H s       :     0.675366  s :     0.675366
      pz      :     0.109377  p :     0.253327
      px      :     0.081278
      py      :     0.062672
      dz2     :     0.008900  d :     0.029360
      dxz     :     0.007170
      dyz     :     0.006563
      dx2y2   :     0.003763
      dxy     :     0.002963

  5 H s       :     0.726757  s :     0.726757
      pz      :     0.121942  p :     0.292148
      px      :     0.081966
      py      :     0.088241
      dz2     :     0.009360  d :     0.030886
      dxz     :     0.008946
      dyz     :     0.007234
      dx2y2   :     0.002633
      dxy     :     0.002713

  6 H s       :     0.726740  s :     0.726740
      pz      :     0.121965  p :     0.292157
      px      :     0.081949
      py      :     0.088243
      dz2     :     0.009364  d :     0.030886
      dxz     :     0.008946
      dyz     :     0.007238
      dx2y2   :     0.002629
      dxy     :     0.002709


SPIN
  0 O s       :     0.023086  s :     0.023086
      pz      :     0.761885  p :     0.870748
      px      :     0.065533
      py      :     0.043330
      dz2     :     0.003195  d :     0.022524
      dxz     :     0.000193
      dyz     :     0.010716
      dx2y2   :     0.002717
      dxy     :     0.005703
      f0      :     0.000100  f :     0.000070
      f+1     :     0.000070
      f-1     :    -0.000134
      f+2     :     0.000074
      f-2     :     0.000004
      f+3     :     0.000016
      f-3     :    -0.000060

  1 C s       :    -0.004256  s :    -0.004256
      pz      :     0.005416  p :    -0.009830
      px      :    -0.010525
      py      :    -0.004721
      dz2     :     0.003937  d :     0.180538
      dxz     :     0.011758
      dyz     :     0.111360
      dx2y2   :     0.028957
      dxy     :     0.024526
      f0      :     0.004968  f :     0.029552
      f+1     :     0.000270
      f-1     :     0.000419
      f+2     :     0.008022
      f-2     :     0.000631
      f+3     :     0.007311
      f-3     :     0.007931

  2 C s       :     0.013314  s :     0.013314
      pz      :     0.012382  p :     0.617906
      px      :     0.013980
      py      :     0.591543
      dz2     :    -0.001976  d :     0.003536
      dxz     :    -0.003737
      dyz     :     0.004319
      dx2y2   :     0.003289
      dxy     :     0.001640
      f0      :    -0.000167  f :    -0.000618
      f+1     :    -0.000453
      f-1     :     0.000146
      f+2     :    -0.000051
      f-2     :    -0.000048
      f+3     :    -0.000153
      f-3     :     0.000108

  3 H s       :     0.041823  s :     0.041823
      pz      :     0.001377  p :     0.008512
      px      :     0.001093
      py      :     0.006043
      dz2     :    -0.000150  d :    -0.000561
      dxz     :    -0.000060
      dyz     :    -0.000185
      dx2y2   :    -0.000061
      dxy     :    -0.000105

  4 H s       :     0.041802  s :     0.041802
      pz      :     0.001376  p :     0.008509
      px      :     0.001090
      py      :     0.006042
      dz2     :    -0.000150  d :    -0.000561
      dxz     :    -0.000060
      dyz     :    -0.000185
      dx2y2   :    -0.000061
      dxy     :    -0.000105

  5 H s       :    -0.011850  s :    -0.011850
      pz      :     0.003162  p :     0.078621
      px      :     0.001650
      py      :     0.073809
      dz2     :     0.000462  d :     0.010192
      dxz     :     0.000517
      dyz     :     0.006662
      dx2y2   :     0.000153
      dxy     :     0.002398

  6 H s       :    -0.011850  s :    -0.011850
      pz      :     0.003161  p :     0.078604
      px      :     0.001646
      py      :     0.073797
      dz2     :     0.000463  d :     0.010191
      dxz     :     0.000518
      dyz     :     0.006664
      dx2y2   :     0.000153
      dxy     :     0.002392



                      *****************************
                      * MAYER POPULATION ANALYSIS *
                      *****************************

  NA   - Mulliken gross atomic population
  ZA   - Total nuclear charge
  QA   - Mulliken gross atomic charge
  VA   - Mayer's total valence
  BVA  - Mayer's bonded valence
  FA   - Mayer's free valence

  ATOM       NA         ZA         QA         VA         BVA        FA
  0 O      8.3104     8.0000    -0.3104     1.8489     1.0855     0.7634
  1 C      5.9581     6.0000     0.0419     3.4857     3.4691     0.0166
  2 C      6.6154     6.0000    -0.6154     3.4471     2.7168     0.7303
  3 H      0.7990     1.0000     0.2010     1.0266     1.0240     0.0026
  4 H      0.7989     1.0000     0.2011     1.0265     1.0240     0.0026
  5 H      0.7591     1.0000     0.2409     0.9836     0.9826     0.0010
  6 H      0.7591     1.0000     0.2409     0.9836     0.9826     0.0010

  Mayer bond orders larger than 0.100000
B(  0-O ,  1-C ) :   0.8819 B(  0-O ,  2-C ) :   0.1177 B(  1-C ,  2-C ) :   0.6821 
B(  1-C ,  3-H ) :   0.9804 B(  1-C ,  4-H ) :   0.9803 B(  2-C ,  5-H ) :   0.9880 
B(  2-C ,  6-H ) :   0.9880 

-------
TIMINGS
-------

Total SCF time: 0 days 0 hours 0 min 5 sec 

Total time                  ....       5.560 sec
Sum of individual times     ....       5.547 sec  ( 99.8%)

SCF preparation             ....       0.423 sec  (  7.6%)
Fock matrix formation       ....       4.536 sec  ( 81.6%)
  Startup                   ....       0.030 sec  (  0.7% of F)
  Split-RI-J                ....       0.199 sec  (  4.4% of F)
  Chain of spheres X        ....       2.904 sec  ( 64.0% of F)
  XC integration            ....       1.304 sec  ( 28.8% of F)
    XC Preparation          ....       0.000 sec  (  0.0% of XC)
    Basis function eval.    ....       0.093 sec  (  7.1% of XC)
    Density eval.           ....       0.400 sec  ( 30.6% of XC)
    XC-Functional eval.     ....       0.039 sec  (  3.0% of XC)
    XC-Potential eval.      ....       0.649 sec  ( 49.8% of XC)
Diagonalization             ....       0.000 sec  (  0.0%)
Density matrix formation    ....       0.068 sec  (  1.2%)
Total Energy calculation    ....       0.051 sec  (  0.9%)
Population analysis         ....       0.024 sec  (  0.4%)
Orbital Transformation      ....       0.048 sec  (  0.9%)
Orbital Orthonormalization  ....       0.000 sec  (  0.0%)
DIIS solution               ....       0.279 sec  (  5.0%)
SOSCF solution              ....       0.115 sec  (  2.1%)
Finished LeanSCF after   5.6 sec

Maximum memory used throughout the entire LEANSCF-calculation: 14.8 MB
[1739830282.939313] [ohm:3840472:0]        ib_iface.c:1059 UCX  ERROR ibv_create_cq(cqe=256) failed: Connection timed out
[1739830282.939332] [ohm:3840474:0]        ib_iface.c:1059 UCX  ERROR ibv_create_cq(cqe=256) failed: Connection timed out
[1739830282.939521] [ohm:3840470:0]        ib_iface.c:1059 UCX  ERROR ibv_create_cq(cqe=256) failed: Connection timed out
[1739830282.960404] [ohm:3840479:0]        ib_iface.c:1059 UCX  ERROR ibv_create_cq(cqe=256) failed: Connection timed out
[1739830282.961264] [ohm:3840473:0]        ib_iface.c:1059 UCX  ERROR ibv_create_cq(cqe=256) failed: Connection timed out
[1739830282.961504] [ohm:3840471:0]        ib_iface.c:1059 UCX  ERROR ibv_create_cq(cqe=256) failed: Connection timed out
[1739830282.961662] [ohm:3840469:0]        ib_iface.c:1059 UCX  ERROR ibv_create_cq(cqe=256) failed: Connection timed out
[1739830282.965011] [ohm:3840476:0]        ib_iface.c:1059 UCX  ERROR ibv_create_cq(cqe=256) failed: Connection timed out
[1739830282.967493] [ohm:3840475:0]        ib_iface.c:1059 UCX  ERROR ibv_create_cq(cqe=256) failed: Connection timed out
[1739830282.967768] [ohm:3840477:0]        ib_iface.c:1059 UCX  ERROR ibv_create_cq(cqe=256) failed: Connection timed out
[1739830282.976503] [ohm:3840481:0]        ib_iface.c:1059 UCX  ERROR ibv_create_cq(cqe=256) failed: Connection timed out
[1739830282.980403] [ohm:3840482:0]        ib_iface.c:1059 UCX  ERROR ibv_create_cq(cqe=256) failed: Connection timed out
[1739830282.987657] [ohm:3840490:0]        ib_iface.c:1059 UCX  ERROR ibv_create_cq(cqe=256) failed: Connection timed out
[1739830282.988087] [ohm:3840484:0]        ib_iface.c:1059 UCX  ERROR ibv_create_cq(cqe=256) failed: Connection timed out
[1739830282.988094] [ohm:3840495:0]        ib_iface.c:1059 UCX  ERROR ibv_create_cq(cqe=256) failed: Connection timed out
[1739830282.996934] [ohm:3840498:0]        ib_iface.c:1059 UCX  ERROR ibv_create_cq(cqe=256) failed: Connection timed out


           ************************************************************
           *        Program running with 16 parallel MPI-processes    *
           *              working on a common directory               *
           ************************************************************

------------------------------------------------------------------------------
                         ORCA PROPERTY INTEGRAL CALCULATIONS
------------------------------------------------------------------------------

GBWName                                   ... orca.gbw
Number of atoms                           ...      7
Number of basis functions                 ...    182
Max core memory                           ...   1024 MB

Dipole integrals                          ... YES
Quadrupole integrals                      ...  NO
Linear momentum integrals                 ... YES
Angular momentum integrals                ... YES
Higher moments length integrals           ...  NO
Higher moments velocity integrals         ...  NO
Kinetic energy integrals                  ...  NO
GIAO right hand sides                     ...  NO
GIAO dipole derivative integrals          ...  NO
SOC integrals                             ...  NO
EPR diamagnetic integrals (GIAO)          ...  NO
EPR gauge integrals                       ...  NO
Field gradient integrals                  ...  NO (   0 nuclei)
Spin-dipole/Fermi contact integrals       ...  NO (   0 nuclei)
Contact density integrals                 ...  NO (   0 nuclei)
Nucleus-orbit integrals                   ...  NO (   0 nuclei)
Geometric perturbations                   ...  NO (   7 nuclei)

Choice of electric origin   ... Center of mass
Position of electric origin ... (  0.5825,  0.0988, -0.0001) 
Choice of magnetic origin   ... GIAO
Position of magnetic origin ... (  0.0000,  0.0000,  0.0000) 

Calculating integrals                     ... Electric Dipole (Length)     done (  0.0 sec)
Calculating integrals                     ... Linear Momentum              done (  0.0 sec)
Calculating integrals                     ... Angular Momentum  (ElOri)    done (  0.0 sec)

Property integrals calculated in   0.0 sec

Maximum memory used throughout the entire PROPINT-calculation: 10.4 MB
[1739830283.675495] [ohm:3840553:0]        ib_iface.c:1059 UCX  ERROR ibv_create_cq(cqe=256) failed: Connection timed out
[1739830283.675500] [ohm:3840557:0]        ib_iface.c:1059 UCX  ERROR ibv_create_cq(cqe=256) failed: Connection timed out
[1739830283.678755] [ohm:3840555:0]        ib_iface.c:1059 UCX  ERROR ibv_create_cq(cqe=256) failed: Connection timed out
[1739830283.680937] [ohm:3840554:0]        ib_iface.c:1059 UCX  ERROR ibv_create_cq(cqe=256) failed: Connection timed out
[1739830283.682336] [ohm:3840556:0]        ib_iface.c:1059 UCX  ERROR ibv_create_cq(cqe=256) failed: Connection timed out
[1739830283.682931] [ohm:3840552:0]        ib_iface.c:1059 UCX  ERROR ibv_create_cq(cqe=256) failed: Connection timed out
[1739830283.686636] [ohm:3840562:0]        ib_iface.c:1059 UCX  ERROR ibv_create_cq(cqe=256) failed: Connection timed out
[1739830283.689164] [ohm:3840559:0]        ib_iface.c:1059 UCX  ERROR ibv_create_cq(cqe=256) failed: Connection timed out
[1739830283.689173] [ohm:3840565:0]        ib_iface.c:1059 UCX  ERROR ibv_create_cq(cqe=256) failed: Connection timed out
[1739830283.691225] [ohm:3840564:0]        ib_iface.c:1059 UCX  ERROR ibv_create_cq(cqe=256) failed: Connection timed out
[1739830283.691297] [ohm:3840560:0]        ib_iface.c:1059 UCX  ERROR ibv_create_cq(cqe=256) failed: Connection timed out
[1739830283.691415] [ohm:3840558:0]        ib_iface.c:1059 UCX  ERROR ibv_create_cq(cqe=256) failed: Connection timed out
[1739830283.705795] [ohm:3840582:0]        ib_iface.c:1059 UCX  ERROR ibv_create_cq(cqe=256) failed: Connection timed out
[1739830283.707699] [ohm:3840578:0]        ib_iface.c:1059 UCX  ERROR ibv_create_cq(cqe=256) failed: Connection timed out
[1739830283.709200] [ohm:3840567:0]        ib_iface.c:1059 UCX  ERROR ibv_create_cq(cqe=256) failed: Connection timed out
[1739830283.709203] [ohm:3840580:0]        ib_iface.c:1059 UCX  ERROR ibv_create_cq(cqe=256) failed: Connection timed out


           ************************************************************
           *        Program running with 16 parallel MPI-processes    *
           *              working on a common directory               *
           ************************************************************
------------------------------------------------------------------------------
                        ORCA TD-DFT/TDA CALCULATION
------------------------------------------------------------------------------

Input orbitals are from        ... orca.gbw
CI-vector output               ... orca.cis
Solver                         ... FN-2001
Tamm-Dancoff approximation     ... operative
CIS-Integral strategy          ... AO-integrals
Integral handling              ... AO integral Direct
Max. core memory used          ... 512 MB
Reference state                ... UHF
Follow IRoot                   ... off
Number of operators            ... 2
Orbital ranges used for CIS calculation:
 Operator 0:  Orbitals   3... 12  to  11...181

-------------------
XC-INTEGRATION GRID
-------------------

General Integration Accuracy     IntAcc      ... 3.467
Radial Grid Type                 RadialGrid  ... OptM3 with GC (2021)
Angular Grid (max. ang.)         AngularGrid ... 1 (Lebedev-50)
Angular grid pruning method      GridPruning ... 4 (adaptive)
Weight generation scheme         WeightScheme... mBecke (2022)
Basis function cutoff            BFCut       ... 1.0000e-11
Integration weight cutoff        WCut        ... 1.0000e-14
Partially contracted basis set               ... off
Rotationally invariant grid construction     ... off
Angular grids for H and He will be reduced by one unit
Diffuse basis detected: some atoms will have their outermost
                        angular grid increased by 1.

Total number of grid points                  ...     4733
Total number of batches                      ...       78
Average number of points per batch           ...       60
Average number of grid points per atom       ...      676

---------------------
COSX-INTEGRATION GRID
---------------------

General Integration Accuracy     IntAcc      ... 3.067
Radial Grid Type                 RadialGrid  ... OptM3 with GC (2021)
Angular Grid (max. ang.)         AngularGrid ... 1 (Lebedev-50)
Angular grid pruning method      GridPruning ... 4 (adaptive)
Weight generation scheme         WeightScheme... mBecke (2022)
Basis function cutoff            BFCut       ... 1.0000e-11
Integration weight cutoff        WCut        ... 1.0000e-14
Partially contracted basis set               ... on
Rotationally invariant grid construction     ... off
Angular grids for H and He will be reduced by one unit
Diffuse basis detected: some atoms will have their outermost
                        angular grid increased by 1.

Total number of grid points                  ...     2148
Total number of batches                      ...       22
Average number of points per batch           ...       97
Average number of grid points per atom       ...      307

---------------
TD-DFT XC SETUP
---------------

DFT calculation                         ... on
Name of the grid file                   ... orca.grid_cis.tmp
RI-approximation                        ... on
Aux-basis dimension                     ... 0
Functional (TD-DFT)
  Functional kind                       .... Exchange-Correlation
  Functional name                       .... wB97M-V exchange-correlation functional
  Functional family                     .... Hybrid MGGA
  Functional refs                              
    [ 0] N. Mardirossian and M. Head-Gordon.,  J. Chem. Phys. 144, 214110 (2016), doi: 10.1063/1.4952647
  Fraction of HF Exchange (short range) .... 0.1500
  Fraction of HF Exchange (long range)  .... 1.0000
  Range separation parameter mu         .... 0.3000
  Functional external parameters        .... 17
    Parameter  0 _cx00      =  8.500000e-01 : u^00 coefficient for exchange
    Parameter  1 _cx01      =  1.007000e+00 : u^01 coefficient for exchange
    Parameter  2 _cx10      =  2.590000e-01 : u^10 coefficient for exchange
    Parameter  3 _css00     =  4.430000e-01 : u^00 coefficient for same-spin correlation
    Parameter  4 _css04     = -1.437000e+00 : u^04 coefficient for same-spin correlation
    Parameter  5 _css10     = -4.535000e+00 : u^10 coefficient for same-spin correlation
    Parameter  6 _css20     = -3.390000e+00 : u^20 coefficient for same-spin correlation
    Parameter  7 _css43     =  4.278000e+00 : u^43 coefficient for same-spin correlation
    Parameter  8 _cos00     =  1.000000e+00 : u^00 coefficient for opposite-spin correlation
    Parameter  9 _cos10     =  1.358000e+00 : u^10 coefficient for opposite-spin correlation
    Parameter 10 _cos20     =  2.924000e+00 : u^20 coefficient for opposite-spin correlation
    Parameter 11 _cos21     = -8.812000e+00 : u^21 coefficient for opposite-spin correlation
    Parameter 12 _cos60     = -1.390000e+00 : u^60 coefficient for opposite-spin correlation
    Parameter 13 _cos61     =  9.142000e+00 : u^61 coefficient for opposite-spin correlation
    Parameter 14 _alpha     =  1.000000e+00 : fraction of HF exchange
    Parameter 15 _beta      = -8.500000e-01 : fraction of short-range exchange
    Parameter 16 _omega     =  3.000000e-01 : range-separation constant
Hybrid DFT                              ... on
   Exchange mixing (TD-DFT)             ...  0.150
   GGA exch. scaling (TD-DFT)           ...  0.000
   GGA corr. scaling (TD-DFT)           ...  1.000
Range-Separated Exchange                ... on
   Range Range separation parameter mu  .... 0.300
   Max. amount of RS exchange (TD-DFT)  ...  0.850

Building densities             ... done
Calculating rho(r) on the grid ... done
Building xc-kernel on the grid ... done
                    *** TD-DFT CALCULATION INITIALIZED ***

------------------------
DAVIDSON-DIAGONALIZATION
------------------------

Dimension of the eigenvalue problem            ...   1710
Number of roots to be determined               ...      2
Maximum size of the expansion space            ...     20
Maximum number of iterations                   ...    100
Convergence tolerance for the residual         ...    2.500e-07
Convergence tolerance for the energies         ...    2.500e-07
Orthogonality tolerance                        ...    1.000e-14
Level Shift                                    ...    0.000e+00
Constructing the preconditioner                ... o.k.
Building the initial guess                     ... o.k.
Number of trial vectors determined             ...     20


                       ****Iteration    0****
   Time for iteration     :  TOTAL=0.2 TRAFO=0.0 RIJ=0.0 COSX=0.2
   Size of expansion space: 6
   Lowest Energy          :     0.000391958460
   Maximum Energy change  :     0.058655109733 (vector 1)
   Maximum residual norm  :     0.004706801119

                       ****Iteration    1****
   Time for iteration     :  TOTAL=0.1 TRAFO=0.0 COSX=0.1
   Size of expansion space: 8
   Lowest Energy          :    -0.008505424835
   Maximum Energy change  :     0.019519851676 (vector 1)
   Maximum residual norm  :     0.000312371869

                       ****Iteration    2****
   Time for iteration     :  TOTAL=0.1 TRAFO=0.0 COSX=0.1
   Size of expansion space: 10
   Lowest Energy          :    -0.008893168238
   Maximum Energy change  :     0.000742803714 (vector 1)
   Maximum residual norm  :     0.000012985935

                       ****Iteration    3****
   Time for iteration     :  TOTAL=0.1 TRAFO=0.0 COSX=0.1
   Size of expansion space: 12
   Lowest Energy          :    -0.008901141473
   Maximum Energy change  :     0.000026183726 (vector 1)
   Maximum residual norm  :     0.000001121588

                       ****Iteration    4****
   Time for iteration     :  TOTAL=0.1 TRAFO=0.0 RIJ=0.0 COSX=0.1
   Size of expansion space: 14
   Lowest Energy          :    -0.008901269582
   Maximum Energy change  :     0.000001610240 (vector 1)
   Maximum residual norm  :     0.000000072706

      *** CONVERGENCE OF RESIDUAL NORM REACHED ***

Storing the converged CI vectors               ... orca.cis3

                 *** DAVIDSON DONE ***

Total time for solving the CIS problem:     0.759sec

---------------------
SF-TDA EXCITED STATES
---------------------

the weight of the individual excitations are printed if larger than 1.0e-02

UHF/UKS reference: multiplicity estimated based on rounded <S**2> value, RELEVANCE IS LIMITED!

(SPIN-FLIP GROUND STATE)
STATE  1:  E=  -0.008901 au     -0.242 eV    -1953.6 cm**-1 <S**2> =   0.294964 Mult 1
     7a ->  11b  :     0.015913 (c= -0.12614481)
    11a ->  11b  :     0.171384 (c=  0.41398592)
    12a ->  11b  :     0.797810 (c= -0.89320217)

STATE  2:  E=   0.038365 au      1.044 eV     8420.1 cm**-1 <S**2> =   1.052508 Mult 3
    12a ->  12b  :     0.897844 (c=  0.94754627)
    12a ->  14b  :     0.010638 (c=  0.10313865)
    12a ->  16b  :     0.032691 (c= -0.18080720)
    12a ->  18b  :     0.015302 (c= -0.12369988)
    12a ->  21b  :     0.020278 (c=  0.14240139)


-----------------------------
TD-DFT/TDA-EXCITATION SPECTRA
-----------------------------

Center of mass = (  0.5825,  0.0988, -0.0001)
Generating CIS-Spin-flip transition densities           ... done

UHF/UKS reference: multiplicity estimated based on rounded <S**2> value, use it judiciously!

----------------------------------------------------------------------------------------------------
          SPIN FLIP ABSORPTION SPECTRUM VIA TRANSITION ELECTRIC DIPOLE MOMENTS    
----------------------------------------------------------------------------------------------------
     Transition      Energy     Energy  Wavelength fosc(D2)      D2        DX        DY        DZ   
                      (eV)      (cm-1)    (nm)                 (au**2)    (au)      (au)      (au)  
----------------------------------------------------------------------------------------------------
  1-3A  ->  2-3A    1.286171   10373.7   964.0   0.000239924   0.00761   0.00001   0.00004   0.08726

----------------------------------------------------------------------------------------------------
          SPIN FLIP ABSORPTION SPECTRUM VIA TRANSITION VELOCITY DIPOLE MOMENTS    
----------------------------------------------------------------------------------------------------
     Transition      Energy     Energy  Wavelength fosc(P2)      P2        PX        PY        PZ   
                      (eV)      (cm-1)    (nm)                 (au**2)    (au)      (au)      (au)  
----------------------------------------------------------------------------------------------------
  1-3A  ->  2-3A    1.286171   10373.7   964.0   0.000275407   0.00002   0.00000   0.00001   0.00442

------------------------------------------------------------------------------------------
          SPIN FLIP CD SPECTRUM VIA TRANSITION ELECTRIC DIPOLE MOMENTS    
------------------------------------------------------------------------------------------
     Transition      Energy     Energy  Wavelength    R        MX        MY        MZ   
                      (eV)      (cm-1)    (nm)   (1e40*cgs)   (au)      (au)      (au)  
------------------------------------------------------------------------------------------
  1-3A  ->  2-3A    1.286171   10373.7   964.0    0.00152   0.04544   0.00720  -0.00005

[...]
      f+1     :     0.000030
      f-1     :    -0.000112
      f+2     :    -0.000034
      f-2     :     0.000116
      f+3     :    -0.007669
      f-3     :     0.003560
  2 C s       :     0.002034  s :     0.002034
      pz      :     0.005114  p :     0.266694
      px      :    -0.004205
      py      :     0.265784
      dz2     :    -0.002479  d :    -0.008542
      dxz     :     0.000113
      dyz     :    -0.003479
      dx2y2   :    -0.002522
      dxy     :    -0.000174
      f0      :    -0.000027  f :    -0.000396
      f+1     :    -0.000221
      f-1     :     0.000166
      f+2     :    -0.000096
      f-2     :    -0.000045
      f+3     :    -0.000391
      f-3     :     0.000219
  3 H s       :     0.009305  s :     0.009305
      pz      :     0.000095  p :    -0.001995
      px      :     0.000323
      py      :    -0.002414
      dz2     :    -0.000046  d :    -0.000110
      dxz     :     0.000001
      dyz     :    -0.000004
      dx2y2   :    -0.000056
      dxy     :    -0.000004
  4 H s       :     0.009293  s :     0.009293
      pz      :     0.000095  p :    -0.001997
      px      :     0.000323
      py      :    -0.002416
      dz2     :    -0.000046  d :    -0.000110
      dxz     :     0.000001
      dyz     :    -0.000005
      dx2y2   :    -0.000056
      dxy     :    -0.000004
  5 H s       :    -0.005557  s :    -0.005557
      pz      :     0.001714  p :     0.029184
      px      :     0.000231
      py      :     0.027239
      dz2     :     0.000299  d :     0.004633
      dxz     :     0.000159
      dyz     :     0.003040
      dx2y2   :    -0.000057
      dxy     :     0.001192
  6 H s       :    -0.005557  s :    -0.005557
      pz      :     0.001715  p :     0.029186
      px      :     0.000230
      py      :     0.027242
      dz2     :     0.000300  d :     0.004633
      dxz     :     0.000158
      dyz     :     0.003041
      dx2y2   :    -0.000057
      dxy     :     0.001190


                      *****************************
                      * MAYER POPULATION ANALYSIS *
                      *****************************

  NA   - Mulliken gross atomic population
  ZA   - Total nuclear charge
  QA   - Mulliken gross atomic charge
  VA   - Mayer's total valence
  BVA  - Mayer's bonded valence
  FA   - Mayer's free valence

  ATOM       NA         ZA         QA         VA         BVA        FA
  0 O      8.5314     8.0000    -0.5314     1.5537     1.5599    -0.0063
  1 C      6.1251     6.0000    -0.1251     3.6336     3.5609     0.0727
  2 C      6.2920     6.0000    -0.2920     3.4152     3.3266     0.0886
  3 H      0.7687     1.0000     0.2313     1.1011     1.0937     0.0074
  4 H      0.7686     1.0000     0.2314     1.1010     1.0936     0.0074
  5 H      0.7571     1.0000     0.2429     0.9170     0.9127     0.0043
  6 H      0.7571     1.0000     0.2429     0.9169     0.9127     0.0043

  Mayer bond orders larger than 0.100000
B(  0-O ,  1-C ) :   0.7836 B(  0-O ,  2-C ) :   0.7498 B(  1-C ,  2-C ) :   0.7683 
B(  1-C ,  3-H ) :   1.0196 B(  1-C ,  4-H ) :   1.0195 B(  2-C ,  5-H ) :   0.9426 
B(  2-C ,  6-H ) :   0.9426 


-------
TIMINGS
-------

Total TD-DFT gradient time  ....        5.081 sec

Fock matrix formation       ....       1.153 sec  ( 22.7%)
  Coulomb formation         ....       0.901 sec  ( 78.1% of F)
  XC integration            ....       0.252 sec  ( 21.9% of F)
Z-vector equation           ....       1.490 sec  ( 29.3%)
Densities                   ....       0.000 sec  (  0.0%)
One electron gradient       ....       0.009 sec  (  0.2%)
RI-J Coulomb gradient       ....       0.095 sec  (  1.9%)
COSX gradient               ....       0.416 sec  (  8.2%)
XC gradient                 ....       1.710 sec  ( 33.7%)

Maximum memory used throughout the entire CIS-calculation: 35.8 MB
=> NOW LEAVING ORCA_CIS


-------------------------------------------------------------------------------
                          DFT DISPERSION CORRECTION                            
                                                                               
                              DFTD3 V3.1  Rev 1                                
                          USING Becke-Johnson damping                          
-------------------------------------------------------------------------------
The WB97M functional is recognized
Active option DFTDOPT                   ...         4   

molecular C6(AA) [au] = 393.724400 


            DFT-D V3
 parameters
 s6 scaling factor         :     1.0000 
 a1 scaling factor         :     0.5660 
 s8 scaling factor         :     0.3908 
 a2 scaling factor         :     3.1280 
 ad hoc parameters k1-k3   :    16.0000     1.3333    -4.0000 

 Edisp/kcal,au: -3.549869948183  -0.005657077249 
 E6   /kcal   :  -2.859072095 
 E8   /kcal   :  -0.690797853 
 % E8         :  19.459807340 

-------------------------   ----------------
Dispersion correction           -0.005657077
-------------------------   ----------------


-------------------------   --------------------
FINAL SINGLE POINT ENERGY      -153.785114081258
-------------------------   --------------------

[1739830290.291410] [ohm:3840671:0]        ib_iface.c:1059 UCX  ERROR ibv_create_cq(cqe=256) failed: Connection timed out
[1739830290.291408] [ohm:3840675:0]        ib_iface.c:1059 UCX  ERROR ibv_create_cq(cqe=256) failed: Connection timed out
[1739830290.291979] [ohm:3840673:0]        ib_iface.c:1059 UCX  ERROR ibv_create_cq(cqe=256) failed: Connection timed out
[1739830290.295919] [ohm:3840670:0]        ib_iface.c:1059 UCX  ERROR ibv_create_cq(cqe=256) failed: Connection timed out
[1739830290.296015] [ohm:3840672:0]        ib_iface.c:1059 UCX  ERROR ibv_create_cq(cqe=256) failed: Connection timed out
[1739830290.296037] [ohm:3840676:0]        ib_iface.c:1059 UCX  ERROR ibv_create_cq(cqe=256) failed: Connection timed out
[1739830290.299732] [ohm:3840674:0]        ib_iface.c:1059 UCX  ERROR ibv_create_cq(cqe=256) failed: Connection timed out
[1739830290.304305] [ohm:3840682:0]        ib_iface.c:1059 UCX  ERROR ibv_create_cq(cqe=256) failed: Connection timed out
[1739830290.307720] [ohm:3840680:0]        ib_iface.c:1059 UCX  ERROR ibv_create_cq(cqe=256) failed: Connection timed out
[1739830290.308863] [ohm:3840678:0]        ib_iface.c:1059 UCX  ERROR ibv_create_cq(cqe=256) failed: Connection timed out
[1739830290.309161] [ohm:3840677:0]        ib_iface.c:1059 UCX  ERROR ibv_create_cq(cqe=256) failed: Connection timed out
[1739830290.334654] [ohm:3840691:0]        ib_iface.c:1059 UCX  ERROR ibv_create_cq(cqe=256) failed: Connection timed out
[1739830290.334813] [ohm:3840683:0]        ib_iface.c:1059 UCX  ERROR ibv_create_cq(cqe=256) failed: Connection timed out
[1739830290.338742] [ohm:3840686:0]        ib_iface.c:1059 UCX  ERROR ibv_create_cq(cqe=256) failed: Connection timed out
[1739830290.338742] [ohm:3840697:0]        ib_iface.c:1059 UCX  ERROR ibv_create_cq(cqe=256) failed: Connection timed out
[1739830290.338757] [ohm:3840699:0]        ib_iface.c:1059 UCX  ERROR ibv_create_cq(cqe=256) failed: Connection timed out


           ************************************************************
           *        Program running with 16 parallel MPI-processes    *
           *              working on a common directory               *
           ************************************************************

------------------------------------------------------------------------------
                              ORCA PROPERTY CALCULATIONS
------------------------------------------------------------------------------

GBWName                                 ... orca.gbw
Number of atoms                         ...      7
Number of basis functions               ...    182
Max core memory                         ...   1024 MB

Electric properties:
Dipole moment                           ... YES
Quadrupole moment                       ...  NO
Static polarizability (Dipole/Dipole)   ...  NO
Static polarizability (Dipole/Quad.)    ...  NO
Static polarizability (Quad./Quad.)     ...  NO
Static polarizability (Velocity)        ...  NO

Atomic electric properties:
Dipole moment                           ...  NO
Quadrupole moment                       ...  NO
Static polarizability                   ...  NO

Choice of electric origin               ... Center of mass
Position of electric origin             ...     0.582508     0.098753    -0.000127

General magnetic properties:
Magnetizability                         ...  NO

EPR properties:
g-Tensor (aka g-matrix)                 ...  NO
Zero-Field splitting spin-orbit         ...  NO
Zero-field splitting spin-spin          ...  NO
Hyperfine couplings                     ...  NO (   0 nuclei)
Quadrupole couplings                    ...  NO (   0 nuclei)
Contact density                         ...  NO (   0 nuclei)

NMR properties:
Chemical shifts                         ...  NO (   0 nuclei)
Spin-rotation constants                 ...  NO (   0 nuclei)
Spin-spin couplings                     ...  NO (   0 nuclei,    0 pairs)

Choice of magnetic origin               ... GIAO
Position of magnetic origin             ...     0.000000     0.000000     0.000000

Properties with geometric perturbations:
SCF Hessian                             ...  NO
IR spectrum                             ...  NO
VCD spectrum                            ...  NO
X-ray spectroscopy properties:
SCF XES/XAS/RIXS spectra                ...  NO


-------------
DIPOLE MOMENT
-------------

Method             : SCF
Type of density    : Electron Density
Multiplicity       :   3
Irrep              :   0
Energy             :  -153.7705557344263525 Eh
Relativity type    : 
Basis              : AO
                                X                 Y                 Z
Electronic contribution:      1.186536638       2.044739024      -0.000429531
Nuclear contribution   :     -1.036578653      -2.623014675       0.000447534
                        -----------------------------------------
Total Dipole Moment    :      0.149957986      -0.578275650       0.000018003
                        -----------------------------------------
Magnitude (a.u.)       :      0.597402817
Magnitude (Debye)      :      1.518477285



--------------------
Rotational spectrum 
--------------------
 
Rotational constants in cm-1:             1.180131             0.435522             0.363192 
Rotational constants in MHz :         35379.433529         13056.633294         10888.212562 

Dipole components along the rotational axes: 
x,y,z [a.u.] :    -0.307352     0.512274     0.000024 
x,y,z [Debye]:    -0.781226     1.302098     0.000061 

 

-------------
DIPOLE MOMENT
-------------

Method             : TDA/CIS
Type of density    : Electron Density
Level              : Relaxed density
State              :   1
Multiplicity       :   3
Irrep              :   0
Energy             :     0.0000000000000000 Eh
Relativity type    : 
Basis              : AO
                                X                 Y                 Z
Electronic contribution:      0.246067685       1.245543658      -0.000261662
Nuclear contribution   :     -1.036578653      -2.623014675       0.000447534
                        -----------------------------------------
Total Dipole Moment    :     -0.790510968      -1.377471016       0.000185872
                        -----------------------------------------
Magnitude (a.u.)       :      1.588185765
Magnitude (Debye)      :      4.036847402



--------------------
Rotational spectrum 
--------------------
 
Rotational constants in cm-1:             1.180131             0.435522             0.363192 
Rotational constants in MHz :         35379.433529         13056.633294         10888.212562 

Dipole components along the rotational axes: 
x,y,z [a.u.] :    -1.536561     0.401640     0.000060 
x,y,z [Debye]:    -3.905627     1.020889     0.000153 

 

Dipole moment calculation done in   0.0 sec 

Maximum memory used throughout the entire PROP-calculation: 7.6 MB
[1739830290.976651] [ohm:3840757:0]        ib_iface.c:1059 UCX  ERROR ibv_create_cq(cqe=256) failed: Connection timed out
[1739830290.976676] [ohm:3840761:0]        ib_iface.c:1059 UCX  ERROR ibv_create_cq(cqe=256) failed: Connection timed out
[1739830290.976651] [ohm:3840754:0]        ib_iface.c:1059 UCX  ERROR ibv_create_cq(cqe=256) failed: Connection timed out
[1739830290.976813] [ohm:3840759:0]        ib_iface.c:1059 UCX  ERROR ibv_create_cq(cqe=256) failed: Connection timed out
[1739830290.997780] [ohm:3840776:0]        ib_iface.c:1059 UCX  ERROR ibv_create_cq(cqe=256) failed: Connection timed out
[1739830290.998839] [ohm:3840753:0]        ib_iface.c:1059 UCX  ERROR ibv_create_cq(cqe=256) failed: Connection timed out
[1739830290.998847] [ohm:3840755:0]        ib_iface.c:1059 UCX  ERROR ibv_create_cq(cqe=256) failed: Connection timed out
[1739830290.998842] [ohm:3840765:0]        ib_iface.c:1059 UCX  ERROR ibv_create_cq(cqe=256) failed: Connection timed out
[1739830290.999556] [ohm:3840758:0]        ib_iface.c:1059 UCX  ERROR ibv_create_cq(cqe=256) failed: Connection timed out
[1739830290.999588] [ohm:3840760:0]        ib_iface.c:1059 UCX  ERROR ibv_create_cq(cqe=256) failed: Connection timed out
[1739830291.000977] [ohm:3840769:0]        ib_iface.c:1059 UCX  ERROR ibv_create_cq(cqe=256) failed: Connection timed out
[1739830291.001798] [ohm:3840762:0]        ib_iface.c:1059 UCX  ERROR ibv_create_cq(cqe=256) failed: Connection timed out
[1739830291.002562] [ohm:3840768:0]        ib_iface.c:1059 UCX  ERROR ibv_create_cq(cqe=256) failed: Connection timed out
[1739830291.009432] [ohm:3840783:0]        ib_iface.c:1059 UCX  ERROR ibv_create_cq(cqe=256) failed: Connection timed out
[1739830291.009582] [ohm:3840771:0]        ib_iface.c:1059 UCX  ERROR ibv_create_cq(cqe=256) failed: Connection timed out
[1739830291.009528] [ohm:3840780:0]        ib_iface.c:1059 UCX  ERROR ibv_create_cq(cqe=256) failed: Connection timed out

--------------------------------
SUGGESTED CITATIONS FOR THIS RUN
--------------------------------

Below you find a list of papers that are relevant to this ORCA run
We neither can nor want to force you to cite these papers, but we appreciate if you do
You receive ORCA, which is the product of decades of hard work by many enthusiastic individuals, for free
The only thing we kindly ask in return is that you cite our papers,
We deeply appreciate it, if you show your appreciation for ORCA by not just citing the generic ORCA reference.

Please note that relegating all ORCA citations to the supporting information does *not* help us.
SI sections are not indexed - citations you put there will not count into any citation statistics
But we need these citations in order to attract the funding resources that allow us to do what we are doing

Therefore, if you are a happy ORCA user, please consider citing a few of the papers listed below in the main body of your paper

In addition to the list printed below, the program has created the file orca.bibtex that contains the list in bibtex format
You can import this file easily into all common literature databanks and citation aid programs


List of essential papers. We consider these as the minimum necessary citations

  1. Neese,F.
     Software update: the ORCA program system, version 5.0
     WIRES Comput. Molec. Sci., 2022 12(1)e1606
     doi.org/10.1002/wcms.1606

List of papers to cite with high priority. The work reported in these papers was absolutely
necessary for this run to complete.
Our perspective: the developers of density functionals and basis sets usually get cited in chemistry papers
Good! But without the algorithms to do something with them, the functionals or basis sets would not do anything.
Hence, in our opinion, the algorithm design and method developments papers are equally worthy of getting cited

  1. Neese,F.; Olbrich,G.
     Efficient use of the resolution of the identity approximation in time-dependent density functional calculations with hybrid density functionals
     Chem. Phys. Lett., 2002 362 170-178
     doi.org/10.1016/s0009-2614(02)01053-9
  2. Neese,F.
     An improvement of the resolution of the identity approximation for the formation of the Coulomb matrix
     J. Comp. Chem., 2003 24(14)1740-1747
     doi.org/10.1002/jcc.10318
  3. Neese,F.; Wennmohs,F.; Hansen,A.; Becker,U.
     Efficient, approximate and parallel Hartree-Fock and hybrid DFT calculations. A 'chain-of-spheres' algorithm for the Hartree-Fock exchange
     Chem. Phys., 2009 356(1-3)98-109
     doi.org/10.1016/j.chemphys.2008.10.036
  4. Petrenko,T.; Kossmann,S.; Neese,F.
     Efficient time-dependent density functional theory approximations for hybrid density functionals: Analytical gradients and parallelization
     J. Chem. Phys., 2011 134 054116
     doi.org/10.1063/1.3533441
  5. Helmich-Paris,B.; de Souza,B.; Neese,F.; Izsák,R.
     An improved chain of spheres for exchange algorithm
     J. Chem. Phys., 2021 155 104109
     doi.org/doi: 10.1063/5.0058766.
  6. Neese,F.
     The SHARK Integral Generation and Digestion System
     J. Comp. Chem., 2022  1-16
     doi.org/10.1002/jcc.26942
  7. Lehtola,S.; Steigemann,C.; Oliveira,M.; Marques,M.
     Recent developments in Libxc - A comprehensive library of functionals for density functional theory
     Software X, 2018 7 
     doi.org/10.1016/j.softx.2017.11.002
  8. Grimme,S.; Antony,J.; Ehrlich,S.; Krieg,H.
     A consistent and accurate ab initio parametrization of density functional dispersion correction (DFT-D) for the 94 elements H-Pu
     J. Chem. Phys., 2010 132 154104-XXXX
     doi.org/10.1063/1.3382344
  9. Grimme,S.; Ehrlich,S.; Goerigk,L.
     Effect of the damping function in dispersion corrected density functional theory
     J. Comput. Chem., 2011 32(7)1456-1465
     doi.org/10.1002/jcc.21759

List of suggested additional citations. These are papers that are important in the 'surrounding' of 
of this run, or papers that preceded the highly important papers. If you like your results we are grateful for a citation.

  1. Izsak,R.; Neese,F.
     An overlap fitted chain of spheres exchange method
     J. Chem. Phys., 2011 135 144105
     doi.org/10.1063/1.3646921
  2. Izsak,R.; Hansen,A.; Neese,F.
     The resolution of identity and chain of spheres approximations for the LPNO-CCSD singles Fock term
     Molec. Phys., 2012 110 2413-2417
     doi.org/10.1080/00268976.2012.687466
  3. Neese,F.
     The ORCA program system
     WIRES Comput. Molec. Sci., 2012 2(1)73-78
     doi.org/10.1002/wcms.81
  4. Izsak,R.; Neese,F.; Klopper,W.
     Robust fitting techniques in the chain of spheres approximation to the Fock exchange: The role of the complementary space
     J. Chem. Phys., 2013 139 
     doi.org/10.1063/1.4819264
  5. Neese,F.
     Software update: the ORCA program system, version 4.0
     WIRES Comput. Molec. Sci., 2018 8(1)1-6
     doi.org/10.1002/wcms.1327
  6. Neese,F.; Wennmohs,F.; Becker,U.; Riplinger,C.
     The ORCA quantum chemistry program package
     J. Chem. Phys., 2020 152 Art. No. L224108
     doi.org/10.1063/5.0004608

List of optional additional citations

  1. Neese,F.
     Approximate second-order SCF convergence for spin unrestricted wavefunctions
     Chem. Phys. Lett., 2000 325(1-3)93-98
     doi.org/10.1016/s0009-2614(00)00662-x

Timings for individual modules:

Sum of individual times          ...       15.636 sec (=   0.261 min)
Startup calculation              ...        0.996 sec (=   0.017 min)   6.4 %
SCF iterations                   ...        6.638 sec (=   0.111 min)  42.5 %
Property integrals               ...        0.728 sec (=   0.012 min)   4.7 %
Property calculations            ...        0.665 sec (=   0.011 min)   4.3 %
CIS module                       ...        6.609 sec (=   0.110 min)  42.3 %
                             ****ORCA TERMINATED NORMALLY****
TOTAL RUN TIME: 0 days 0 hours 0 minutes 16 seconds 371 msec
