
                                 *****************
                                 * O   R   C   A *
                                 *****************

                                            #,                                       
                                            ###                                      
                                            ####                                     
                                            #####                                    
                                            ######                                   
                                           ########,                                 
                                     ,,################,,,,,                         
                               ,,#################################,,                 
                          ,,##########################################,,             
                       ,#########################################, ''#####,          
                    ,#############################################,,   '####,        
                  ,##################################################,,,,####,       
                ,###########''''           ''''###############################       
              ,#####''   ,,,,##########,,,,          '''####'''          '####       
            ,##' ,,,,###########################,,,                        '##       
           ' ,,###''''                  '''############,,,                           
         ,,##''                                '''############,,,,        ,,,,,,###''
      ,#''                                            '''#######################'''  
     '                                                          ''''####''''         
             ,#######,   #######,   ,#######,      ##                                
            ,#'     '#,  ##    ##  ,#'     '#,    #''#        ,####,   ,####,        
            ##       ##  ##   ,#'  ##            #'  '#       #'       #'  '#        
            ##       ##  #######   ##           ,######,      #####,   #    #        
            '#,     ,#'  ##    ##  '#,     ,#' ,#      #,     #,   #   #,  ,#        
             '#######'   ##     ##  '#######'  #'      '#     '####' # '####'        



                #########################################################
                #                        -***-                          #
                #          Department of theory and spectroscopy        #
                #                                                       #
                #                      Frank Neese                      #
                #                                                       #
                #     Directorship, Architecture, Infrastructure        #
                #                    SHARK, DRIVERS                     #
                #        Core code/Algorithms in most modules           #
                #                                                       #
                #        Max Planck Institute fuer Kohlenforschung      #
                #                Kaiser Wilhelm Platz 1                 #
                #                 D-45470 Muelheim/Ruhr                 #
                #                      Germany                          #
                #                                                       #
                #                  All rights reserved                  #
                #                        -***-                          #
                #########################################################


                         Program Version 6.0.0  -   RELEASE  -


 With contributions from (in alphabetic order):
   Daniel Aravena         : Magnetic Suceptibility
   Michael Atanasov       : Ab Initio Ligand Field Theory (pilot matlab implementation)
   Alexander A. Auer      : GIAO ZORA, VPT2 properties, NMR spectrum
   Ute Becker             : All parallelization in ORCA, NUMFREQ, NUMCALC
   Giovanni Bistoni       : ED, misc. LED, open-shell LED, HFLD
   Martin Brehm           : Molecular dynamics
   Dmytro Bykov           : pre 5.0 version of the SCF Hessian
   Marcos Casanova-Páez   : Triplet and SCS-CIS(D). UHF-(DLPNO)-IP/EA/STEOM-CCSD. UHF-CVS-IP/STEOM-CCSD
   Vijay G. Chilkuri      : MRCI spin determinant printing, contributions to CSF-ICE
   Pauline Colinet        : FMM embedding
   Dipayan Datta          : RHF DLPNO-CCSD density
   Achintya Kumar Dutta   : EOM-CC, STEOM-CC
   Nicolas Foglia         : Exact transition moments, OPA infrastructure, MCD improvements
   Dmitry Ganyushin       : Spin-Orbit,Spin-Spin,Magnetic field MRCI
   Miquel Garcia          : C-PCM and meta-GGA Hessian, CCSD/C-PCM, Gaussian charge scheme
   Tiago L. C. Gouveia    : GS-ROHF, GS-ROCIS
   Yang Guo               : DLPNO-NEVPT2, F12-NEVPT2, CIM, IAO-localization
   Andreas Hansen         : Spin unrestricted coupled pair/coupled cluster methods
   Ingolf Harden          : AUTO-CI MPn and infrastructure 
   Benjamin Helmich-Paris : MC-RPA, TRAH-(SCF,CASSCF), AVAS, COSX integrals, SCF dyn. polar.
   Lee Huntington         : MR-EOM, pCC
   Robert Izsak           : Overlap fitted RIJCOSX, COSX-SCS-MP3, EOM
   Riya Kayal             : Wick's Theorem for AUTO-CI, AUTO-CI UHF-CCSDT
   Emily Kempfer          : AUTO-CI, RHF CISDT and CCSDT
   Christian Kollmar      : KDIIS, OOCD, Brueckner-CCSD(T), CCSD density, CASPT2, CASPT2-K, improved NEVPT2
   Axel Koslowski         : Symmetry handling
   Simone Kossmann        : Meta GGA functionals, TD-DFT gradient, OOMP2, (MP2 Hessian; deprecated post 5.0)
   Lucas Lang             : DCDCAS
   Marvin Lechner         : AUTO-CI (C++ implementation), FIC-MRCC
   Spencer Leger          : CASSCF response
   Dagmar Lenk            : GEPOL surface, SMD, ORCA-2-JSON
   Dimitrios Liakos       : Extrapolation schemes; Compound Job, initial MDCI parallelization
   Dimitrios Manganas     : Further ROCIS development; embedding schemes. LFT, Crystal Embedding
   Dimitrios Pantazis     : SARC Basis sets
   Anastasios Papadopoulos: AUTO-CI, single reference methods and gradients
   Taras Petrenko         : pre 6.0 DFT Hessian and TD-DFT gradient, (ASA, deprecated), ECA, 1-Electron XAS/XES, NRVS
   Peter Pinski           : DLPNO-MP2, DLPNO-MP2 Gradient
   Christoph Reimann      : Effective Core Potentials
   Marius Retegan         : Local ZFS, SOC
   Christoph Riplinger    : Optimizer, TS searches, QM/MM, DLPNO-CCSD(T), (RO)-DLPNO pert. Triples
   Michael Roemelt        : Original ROCIS implementation
   Masaaki Saitow         : Open-shell DLPNO-CCSD energy and density
   Barbara Sandhoefer     : DKH picture change effects
   Kantharuban Sivalingam : CASSCF convergence/infrastructure, NEVPT2 and variants, FIC-MRCI
   Bernardo de Souza      : ESD, SOC TD-DFT
   Georgi Stoychev        : AutoAux, RI-MP2 NMR, DLPNO-MP2 response, X2C
   Van Anh Tran           : RI-MP2 g-tensors
   Willem Van den Heuvel  : Paramagnetic NMR
   Zikuan Wang            : NOTCH, Electric field optimization 
   Frank Wennmohs         : Technical directorship and infrastructure
   Hang Xu                : AUTO-CI-Response properties 


 We gratefully acknowledge several colleagues who have allowed us to
 interface, adapt or use parts of their codes:
   Stefan Grimme, W. Hujo, H. Kruse, P. Pracht,  : VdW corrections, initial TS optimization,
                  C. Bannwarth, S. Ehlert,         DFT functionals, gCP, sTDA/sTD-DF
                  L. Wittmann, M. Mueller
   Ed Valeev, F. Pavosevic, A. Kumar             : LibInt (2-el integral package), F12 methods
   Garnet Chan, S. Sharma, J. Yang, R. Olivares  : DMRG
   Ulf Ekstrom                                   : XCFun DFT Library
   Mihaly Kallay                                 : mrcc  (arbitrary order and MRCC methods)
   Frank Weinhold                                : gennbo (NPA and NBO analysis)
   Simon Mueller                                 : openCOSMO-RS
   Christopher J. Cramer and Donald G. Truhlar   : smd solvation model
   Lars Goerigk                                  : TD-DFT with DH, B97 family of functionals
   V. Asgeirsson, H. Jonsson                     : NEB implementation
   FAccTs GmbH                                   : IRC, NEB, NEB-TS, DLPNO-Multilevel, CI-OPT
                                                   MM, QMMM, 2- and 3-layer-ONIOM, Crystal-QMMM,
                                                   LR-CPCM, SF, NACMEs, symmetry and pop. for TD-DFT,
                                                   nearIR, NL-DFT gradient (VV10), updates on ESD,
                                                   ML-optimized integration grids, MBIS, APM,
                                                   GOAT, DOCKER, SOLVATOR, interface openCOSMO-RS
   S Lehtola, MJT Oliveira, MAL Marques          : LibXC Library
   Liviu Ungur et al                             : ANISO software


 Your calculation uses the libint2 library for the computation of 2-el integrals
 For citations please refer to: http://libint.valeyev.net

 Your ORCA version has been built with support for libXC version: 6.2.2
 For citations please refer to: https://libxc.gitlab.io

 This ORCA versions uses:
   CBLAS   interface :  Fast vector & matrix operations
   LAPACKE interface :  Fast linear algebra routines
   SCALAPACK package :  Parallel linear algebra routines
   Shared memory     :  Shared parallel matrices
   BLAS/LAPACK       :  OpenBLAS 0.3.27  USE64BITINT DYNAMIC_ARCH NO_AFFINITY Zen SINGLE_THREADED
        Core in use  :  Zen
   Copyright (c) 2011-2014, The OpenBLAS Project


Your calculation utilizes the atom-pairwise dispersion correction
with the Becke-Johnson damping scheme (D3BJ)


Warning: RI is on but no J-basis has been assigned. Assigning Def2/J (nothing to worry about!)
================================================================================

----- Orbital basis set information -----
Your calculation utilizes the basis: def2-TZVPPD
   F. Weigend and R. Ahlrichs, Phys. Chem. Chem. Phys. 7, 3297 (2005).
   D. Rappoport and F. Furche, J. Chem. Phys. 133, 134105 (2010)
   D. Rappoport, J. Chem. Phys. 155, 124102 (2021).

----- AuxJ basis set information -----
Your calculation utilizes the auxiliary basis: def2/J
   F. Weigend, Phys. Chem. Chem. Phys. 8, 1057 (2006).

================================================================================
                                        WARNINGS
                       Please study these warnings very carefully!
================================================================================

Using LibXC functional ID 531 : wB97M-V exchange-correlation functional
[ 1]  N. Mardirossian and M. Head-Gordon.,  J. Chem. Phys. 144, 214110 (2016)
Using LibXC functional ID 531 : wB97M-V exchange-correlation functional
[ 1]  N. Mardirossian and M. Head-Gordon.,  J. Chem. Phys. 144, 214110 (2016)

WARNING: B97M-V or wB97M-V functional requested.
  ===> : libXC variant has now been activated.
         Any manually given DFX/HFX/RangeSep scaling parameters are IGNORED!

Your calculation utilizes LibXC
 by S Lehtola, C Steigemann, MJT Oliveira & MAL Marques
Please cite in your paper:
 S Lehtola, C Steigemann, MJT Oliveira & MAL Marques, SoftwareX, 7, (2018), 1.
   


WARNING: your system is open-shell and RHF/RKS was chosen
  ===> : WILL SWITCH to UHF/UKS

INFO   : Checking CIS options ...

WARNING: CIS/ROCIS methods need fully converged wavefunctions
  ===> : Setting SCFConvForced true
         You can overwrite this default with %scf ConvForced false 


================================================================================
                                       INPUT FILE
================================================================================
NAME = orca.inp
|  1> ! Engrad def2-TZVPPD wB97M-D3BJ 
|  2> %pal nprocs 8 end%pal nprocs 64 end 
|  3> %tddft Nroots 2 Iroot 2 
|  4> sf true 
|  5> end 
|  6> *xyz 0 3 
|  7> O   2.84482567 1.04282252 -0.61441324
|  8> O   -0.23328852 0.82535049 -2.01253308
|  9> O   0.42228983 -2.53818972 -1.63952371
| 10> O   -2.61387961 -1.7514889 0.70868787
| 11> N   0.50627728 -2.03576652 0.61001344
| 12> N   -2.4077359 0.49294651 1.23475499
| 13> N   1.90730605 -0.95659119 -0.87544529
| 14> N   -1.66233965 -0.31834654 -0.75933401
| 15> C   1.62464717 0.09381377 1.21491935
| 16> C   -0.92215072 1.85509439 0.01519533
| 17> C   0.81456136 -1.04943975 1.5199914
| 18> C   -1.7419751 1.67375704 1.05634383
| 19> C   1.91344016 1.11801207 2.27552663
| 20> C   0.00589608 3.00502279 -0.14169967
| 21> C   2.12446459 0.18501129 -0.11272192
| 22> C   -0.92177319 0.82069438 -1.02737029
| 23> C   0.89529269 -1.87004517 -0.74578858
| 24> C   -2.22758914 -0.65196952 0.4260934
| 25> H   0.36422657 -1.2175369 2.46927592
| 26> H   -1.95824214 2.44864512 1.76025582
| 27> H   1.02094585 1.43386795 2.77373233
| 28> H   2.59523164 0.74880116 3.08347478
| 29> H   2.4693004 1.98114278 1.78036494
| 30> H   0.11280174 3.28115545 -1.20445466
| 31> H   -0.39928108 3.86471166 0.42877125
| 32> H   1.02736044 2.67267484 0.19797557
| 33> H   -0.30566103 -2.69129015 0.71268377
| 34> H   -2.92241162 0.24270854 2.08166182
| 35> H   2.29214414 -0.88990671 -1.80215345
| 36> H   -1.40180014 -1.08743617 -1.35952028
| 37> *
| 38> 
| 39>                          ****END OF INPUT****
================================================================================

                     *******************************
                     * Energy+Gradient Calculation *
                     *******************************

---------------------------------
CARTESIAN COORDINATES (ANGSTROEM)
---------------------------------
  O      2.844826    1.042823   -0.614413
  O     -0.233289    0.825350   -2.012533
  O      0.422290   -2.538190   -1.639524
  O     -2.613880   -1.751489    0.708688
  N      0.506277   -2.035767    0.610013
  N     -2.407736    0.492947    1.234755
  N      1.907306   -0.956591   -0.875445
  N     -1.662340   -0.318347   -0.759334
  C      1.624647    0.093814    1.214919
  C     -0.922151    1.855094    0.015195
  C      0.814561   -1.049440    1.519991
  C     -1.741975    1.673757    1.056344
  C      1.913440    1.118012    2.275527
  C      0.005896    3.005023   -0.141700
  C      2.124465    0.185011   -0.112722
  C     -0.921773    0.820694   -1.027370
  C      0.895293   -1.870045   -0.745789
  C     -2.227589   -0.651970    0.426093
  H      0.364227   -1.217537    2.469276
  H     -1.958242    2.448645    1.760256
  H      1.020946    1.433868    2.773732
  H      2.595232    0.748801    3.083475
  H      2.469300    1.981143    1.780365
  H      0.112802    3.281155   -1.204455
  H     -0.399281    3.864712    0.428771
  H      1.027360    2.672675    0.197976
  H     -0.305661   -2.691290    0.712684
  H     -2.922412    0.242709    2.081662
  H      2.292144   -0.889907   -1.802153
  H     -1.401800   -1.087436   -1.359520

----------------------------
CARTESIAN COORDINATES (A.U.)
----------------------------
  NO LB      ZA    FRAG     MASS         X           Y           Z
   0 O     8.0000    0    15.999    5.375941    1.970649   -1.161073
   1 O     8.0000    0    15.999   -0.440851    1.559686   -3.803136
   2 O     8.0000    0    15.999    0.798012   -4.796483   -3.098251
   3 O     8.0000    0    15.999   -4.939517   -3.309834    1.339226
   4 N     7.0000    0    14.007    0.956725   -3.847041    1.152758
   5 N     7.0000    0    14.007   -4.549961    0.931534    2.333349
   6 N     7.0000    0    14.007    3.604286   -1.807695   -1.654352
   7 N     7.0000    0    14.007   -3.141367   -0.601588   -1.434933
   8 C     6.0000    0    12.011    3.070138    0.177282    2.295865
   9 C     6.0000    0    12.011   -1.742612    3.505620    0.028715
  10 C     6.0000    0    12.011    1.539298   -1.983154    2.872367
  11 C     6.0000    0    12.011   -3.291856    3.162942    1.996201
  12 C     6.0000    0    12.011    3.615878    2.112737    4.300122
  13 C     6.0000    0    12.011    0.011142    5.678670   -0.267774
  14 C     6.0000    0    12.011    4.014656    0.349621   -0.213014
  15 C     6.0000    0    12.011   -1.741899    1.550888   -1.941448
  16 C     6.0000    0    12.011    1.691858   -3.533873   -1.409336
  17 C     6.0000    0    12.011   -4.209533   -1.232044    0.805200
  18 H     1.0000    0     1.008    0.688288   -2.300811    4.666255
  19 H     1.0000    0     1.008   -3.700541    4.627269    3.326401
  20 H     1.0000    0     1.008    1.929308    2.709618    5.241594
  21 H     1.0000    0     1.008    4.904277    1.415029    5.826923
  22 H     1.0000    0     1.008    4.666301    3.743817    3.364402
  23 H     1.0000    0     1.008    0.213164    6.200485   -2.276089
  24 H     1.0000    0     1.008   -0.754532    7.303247    0.810260
  25 H     1.0000    0     1.008    1.941430    5.050623    0.374120
  26 H     1.0000    0     1.008   -0.577616   -5.085801    1.346777
  27 H     1.0000    0     1.008   -5.522558    0.458653    3.933771
  28 H     1.0000    0     1.008    4.331525   -1.681680   -3.405576
  29 H     1.0000    0     1.008   -2.649018   -2.054957   -2.569121

--------------------------------
INTERNAL COORDINATES (ANGSTROEM)
--------------------------------
 O      0   0   0     0.000000000000     0.00000000     0.00000000
 O      1   0   0     3.387745583351     0.00000000     0.00000000
 O      2   1   0     3.447074369285    81.09353270     0.00000000
 O      3   2   1     3.918076144363    73.83261781   114.98248539
 N      3   2   1     2.306490917581    84.25577933    61.76267172
 N      4   3   2     2.314461525621   105.18386385   333.81258588
 N      1   2   3     2.223676224802    60.70939193   356.71520340
 N      2   1   3     2.218273639034   112.66131842    56.63830919
 C      7   1   2     2.356453044429    62.97615378   265.31679977
 C      6   4   3     2.355787753242   119.94828211    13.36266388
 C      5   3   2     1.376931174346   143.97344023   329.44079148
 C     10   6   4     1.337529606252    29.78548357   189.81222847
 C      9   7   1     1.502421828644   155.09856442   346.50809777
 C     10   6   4     1.486008825392   153.62837955   209.56004120
 C      1   2   3     1.227377029464    65.83017749   318.77914308
 C      2   1   3     1.201906212225   100.51221360    89.30511013
 C      3   2   1     1.211986521319    67.42440317    34.28260148
 C      4   3   2     1.199175895640    78.06760200   347.23760429
 H     11   5   3     1.064048483310   112.43738863   160.23698870
 H     12  10   6     1.068978511843   122.56825248   183.50529866
 H     13   9   7     1.069822391720   111.69426525   142.28485531
 H     13   9   7     1.119793075238   113.67878468   261.68495448
 H     13   9   7     1.139807145179   107.65524843    18.08344275
 H     14  10   6     1.103234442369   110.84932361   201.71428140
 H     14  10   6     1.108454128394   108.51458831   322.23926743
 H     14  10   6     1.126598361125   107.82594668    86.04517982
 H      5   3   2     1.048568665084    86.05045961   118.02891547
 H      6   4   3     1.022135664718    84.61024552   206.18472894
 H      7   1   2     1.005651624171    83.52391372    84.46890769
 H      8   2   1     1.009754056165    83.72376405   263.62322489

---------------------------
INTERNAL COORDINATES (A.U.)
---------------------------
 O      0   0   0     0.000000000000     0.00000000     0.00000000
 O      1   0   0     6.401911363934     0.00000000     0.00000000
 O      2   1   0     6.514026521208    81.09353270     0.00000000
 O      3   2   1     7.404090884696    73.83261781   114.98248539
 N      3   2   1     4.358636164606    84.25577933    61.76267172
 N      4   3   2     4.373698430921   105.18386385   333.81258588
 N      1   2   3     4.202139075387    60.70939193   356.71520340
 N      2   1   3     4.191929667871   112.66131842    56.63830919
 C      7   1   2     4.453050901415    62.97615378   265.31679977
 C      6   4   3     4.451793683272   119.94828211    13.36266388
 C      5   3   2     2.602022824773   143.97344023   329.44079148
 C     10   6   4     2.527564651827    29.78548357   189.81222847
 C      9   7   1     2.839165793762   155.09856442   346.50809777
 C     10   6   4     2.808149712580   153.62837955   209.56004120
 C      1   2   3     2.319406448753    65.83017749   318.77914308
 C      2   1   3     2.271273579765   100.51221360    89.30511013
 C      3   2   1     2.290322603297    67.42440317    34.28260148
 C      4   3   2     2.266114029159    78.06760200   347.23760429
 H     11   5   3     2.010760226670   112.43738863   160.23698870
 H     12  10   6     2.020076630430   122.56825248   183.50529866
 H     13   9   7     2.021671332287   111.69426525   142.28485531
 H     13   9   7     2.116102238862   113.67878468   261.68495448
 H     13   9   7     2.153923349875   107.65524843    18.08344275
 H     14  10   6     2.084810957586   110.84932361   201.71428140
 H     14  10   6     2.094674734679   108.51458831   322.23926743
 H     14  10   6     2.128962365450   107.82594668    86.04517982
 H      5   3   2     1.981507609620    86.05045961   118.02891547
 H      6   4   3     1.931556478030    84.61024552   206.18472894
 H      7   1   2     1.900406155817    83.52391372    84.46890769
 H      8   2   1     1.908158628767    83.72376405   263.62322489

---------------------
BASIS SET INFORMATION
---------------------
There are 4 groups of distinct atoms

 Group   1 Type O   : 12s7p3d1f contracted to 6s4p3d1f pattern {621111/4111/111/1}
 Group   2 Type N   : 12s6p3d1f contracted to 6s3p3d1f pattern {621111/411/111/1}
 Group   3 Type C   : 12s6p3d1f contracted to 6s3p3d1f pattern {621111/411/111/1}
 Group   4 Type H   : 5s3p1d contracted to 3s3p1d pattern {311/111/1}

Atom   0O    basis set group =>   1
Atom   1O    basis set group =>   1
Atom   2O    basis set group =>   1
Atom   3O    basis set group =>   1
Atom   4N    basis set group =>   2
Atom   5N    basis set group =>   2
Atom   6N    basis set group =>   2
Atom   7N    basis set group =>   2
Atom   8C    basis set group =>   3
Atom   9C    basis set group =>   3
Atom  10C    basis set group =>   3
Atom  11C    basis set group =>   3
Atom  12C    basis set group =>   3
Atom  13C    basis set group =>   3
Atom  14C    basis set group =>   3
Atom  15C    basis set group =>   3
Atom  16C    basis set group =>   3
Atom  17C    basis set group =>   3
Atom  18H    basis set group =>   4
Atom  19H    basis set group =>   4
Atom  20H    basis set group =>   4
Atom  21H    basis set group =>   4
Atom  22H    basis set group =>   4
Atom  23H    basis set group =>   4
Atom  24H    basis set group =>   4
Atom  25H    basis set group =>   4
Atom  26H    basis set group =>   4
Atom  27H    basis set group =>   4
Atom  28H    basis set group =>   4
Atom  29H    basis set group =>   4
---------------------------------
AUXILIARY/J BASIS SET INFORMATION
---------------------------------
There are 4 groups of distinct atoms

 Group   1 Type O   : 12s5p4d2f1g contracted to 6s4p3d1f1g pattern {711111/2111/211/2/1}
 Group   2 Type N   : 12s5p4d2f1g contracted to 6s4p3d1f1g pattern {711111/2111/211/2/1}
 Group   3 Type C   : 12s5p4d2f1g contracted to 6s4p3d1f1g pattern {711111/2111/211/2/1}
 Group   4 Type H   : 5s2p1d contracted to 3s1p1d pattern {311/2/1}

Atom   0O    basis set group =>   1
Atom   1O    basis set group =>   1
Atom   2O    basis set group =>   1
Atom   3O    basis set group =>   1
Atom   4N    basis set group =>   2
Atom   5N    basis set group =>   2
Atom   6N    basis set group =>   2
Atom   7N    basis set group =>   2
Atom   8C    basis set group =>   3
Atom   9C    basis set group =>   3
Atom  10C    basis set group =>   3
Atom  11C    basis set group =>   3
Atom  12C    basis set group =>   3
Atom  13C    basis set group =>   3
Atom  14C    basis set group =>   3
Atom  15C    basis set group =>   3
Atom  16C    basis set group =>   3
Atom  17C    basis set group =>   3
Atom  18H    basis set group =>   4
Atom  19H    basis set group =>   4
Atom  20H    basis set group =>   4
Atom  21H    basis set group =>   4
Atom  22H    basis set group =>   4
Atom  23H    basis set group =>   4
Atom  24H    basis set group =>   4
Atom  25H    basis set group =>   4
Atom  26H    basis set group =>   4
Atom  27H    basis set group =>   4
Atom  28H    basis set group =>   4
Atom  29H    basis set group =>   4
[1739911874.290174] [ohm:466451:0]        ib_iface.c:1059 UCX  ERROR ibv_create_cq(cqe=256) failed: Connection timed out
[1739911874.292040] [ohm:466454:0]        ib_iface.c:1059 UCX  ERROR ibv_create_cq(cqe=256) failed: Connection timed out
[1739911874.315083] [ohm:466452:0]        ib_iface.c:1059 UCX  ERROR ibv_create_cq(cqe=256) failed: Connection timed out
[1739911874.318892] [ohm:466453:0]        ib_iface.c:1059 UCX  ERROR ibv_create_cq(cqe=256) failed: Connection timed out
[1739911874.325259] [ohm:466466:0]        ib_iface.c:1059 UCX  ERROR ibv_create_cq(cqe=256) failed: Connection timed out
[1739911874.325352] [ohm:466450:0]        ib_iface.c:1059 UCX  ERROR ibv_create_cq(cqe=256) failed: Connection timed out
[1739911874.330118] [ohm:466460:0]        ib_iface.c:1059 UCX  ERROR ibv_create_cq(cqe=256) failed: Connection timed out
[1739911874.343836] [ohm:466449:0]        ib_iface.c:1059 UCX  ERROR ibv_create_cq(cqe=256) failed: Connection timed out
[1739911874.358458] [ohm:466461:0]        ib_iface.c:1059 UCX  ERROR ibv_create_cq(cqe=256) failed: Connection timed out
[1739911874.361026] [ohm:466471:0]        ib_iface.c:1059 UCX  ERROR ibv_create_cq(cqe=256) failed: Connection timed out
[1739911874.365063] [ohm:466457:0]        ib_iface.c:1059 UCX  ERROR ibv_create_cq(cqe=256) failed: Connection timed out
[1739911874.368060] [ohm:466499:0]        ib_iface.c:1059 UCX  ERROR ibv_create_cq(cqe=256) failed: Connection timed out
[1739911874.374967] [ohm:466462:0]        ib_iface.c:1059 UCX  ERROR ibv_create_cq(cqe=256) failed: Connection timed out
[1739911874.377700] [ohm:466559:0]        ib_iface.c:1059 UCX  ERROR ibv_create_cq(cqe=256) failed: Connection timed out
[1739911874.382110] [ohm:466592:0]        ib_iface.c:1059 UCX  ERROR ibv_create_cq(cqe=256) failed: Connection timed out
[1739911874.386874] [ohm:466470:0]        ib_iface.c:1059 UCX  ERROR ibv_create_cq(cqe=256) failed: Connection timed out
[1739911874.397886] [ohm:466550:0]        ib_iface.c:1059 UCX  ERROR ibv_create_cq(cqe=256) failed: Connection timed out
[1739911874.397889] [ohm:466567:0]        ib_iface.c:1059 UCX  ERROR ibv_create_cq(cqe=256) failed: Connection timed out
[1739911874.415547] [ohm:466501:0]        ib_iface.c:1059 UCX  ERROR ibv_create_cq(cqe=256) failed: Connection timed out
[1739911874.442006] [ohm:466535:0]        ib_iface.c:1059 UCX  ERROR ibv_create_cq(cqe=256) failed: Connection timed out
[1739911874.454185] [ohm:466588:0]        ib_iface.c:1059 UCX  ERROR ibv_create_cq(cqe=256) failed: Connection timed out
[1739911874.454131] [ohm:466511:0]        ib_iface.c:1059 UCX  ERROR ibv_create_cq(cqe=256) failed: Connection timed out
[1739911874.455172] [ohm:466585:0]        ib_iface.c:1059 UCX  ERROR ibv_create_cq(cqe=256) failed: Connection timed out
[1739911874.456184] [ohm:466455:0]        ib_iface.c:1059 UCX  ERROR ibv_create_cq(cqe=256) failed: Connection timed out
[1739911874.461759] [ohm:466572:0]        ib_iface.c:1059 UCX  ERROR ibv_create_cq(cqe=256) failed: Connection timed out
[1739911874.470482] [ohm:466543:0]        ib_iface.c:1059 UCX  ERROR ibv_create_cq(cqe=256) failed: Connection timed out
[1739911874.478357] [ohm:466475:0]        ib_iface.c:1059 UCX  ERROR ibv_create_cq(cqe=256) failed: Connection timed out
[1739911874.479089] [ohm:466597:0]        ib_iface.c:1059 UCX  ERROR ibv_create_cq(cqe=256) failed: Connection timed out
[1739911874.484352] [ohm:466542:0]        ib_iface.c:1059 UCX  ERROR ibv_create_cq(cqe=256) failed: Connection timed out
[1739911874.501323] [ohm:466489:0]        ib_iface.c:1059 UCX  ERROR ibv_create_cq(cqe=256) failed: Connection timed out
[1739911874.501562] [ohm:466562:0]        ib_iface.c:1059 UCX  ERROR ibv_create_cq(cqe=256) failed: Connection timed out
[1739911874.507905] [ohm:466528:0]        ib_iface.c:1059 UCX  ERROR ibv_create_cq(cqe=256) failed: Connection timed out
[1739911874.512099] [ohm:466571:0]        ib_iface.c:1059 UCX  ERROR ibv_create_cq(cqe=256) failed: Connection timed out
[1739911874.526180] [ohm:466469:0]        ib_iface.c:1059 UCX  ERROR ibv_create_cq(cqe=256) failed: Connection timed out
[1739911874.526994] [ohm:466494:0]        ib_iface.c:1059 UCX  ERROR ibv_create_cq(cqe=256) failed: Connection timed out
[1739911874.530601] [ohm:466463:0]        ib_iface.c:1059 UCX  ERROR ibv_create_cq(cqe=256) failed: Connection timed out
[1739911874.538446] [ohm:466477:0]        ib_iface.c:1059 UCX  ERROR ibv_create_cq(cqe=256) failed: Connection timed out
[1739911874.543962] [ohm:466484:0]        ib_iface.c:1059 UCX  ERROR ibv_create_cq(cqe=256) failed: Connection timed out
[1739911874.555222] [ohm:466505:0]        ib_iface.c:1059 UCX  ERROR ibv_create_cq(cqe=256) failed: Connection timed out
[1739911874.557561] [ohm:466580:0]        ib_iface.c:1059 UCX  ERROR ibv_create_cq(cqe=256) failed: Connection timed out
[1739911874.566414] [ohm:466467:0]        ib_iface.c:1059 UCX  ERROR ibv_create_cq(cqe=256) failed: Connection timed out
[1739911874.569759] [ohm:466575:0]        ib_iface.c:1059 UCX  ERROR ibv_create_cq(cqe=256) failed: Connection timed out
[1739911874.570365] [ohm:466555:0]        ib_iface.c:1059 UCX  ERROR ibv_create_cq(cqe=256) failed: Connection timed out
[1739911874.574620] [ohm:466518:0]        ib_iface.c:1059 UCX  ERROR ibv_create_cq(cqe=256) failed: Connection timed out
[1739911874.576690] [ohm:466504:0]        ib_iface.c:1059 UCX  ERROR ibv_create_cq(cqe=256) failed: Connection timed out
[1739911874.578078] [ohm:466565:0]        ib_iface.c:1059 UCX  ERROR ibv_create_cq(cqe=256) failed: Connection timed out
[1739911874.582712] [ohm:466548:0]        ib_iface.c:1059 UCX  ERROR ibv_create_cq(cqe=256) failed: Connection timed out
[1739911874.584209] [ohm:466497:0]        ib_iface.c:1059 UCX  ERROR ibv_create_cq(cqe=256) failed: Connection timed out
[1739911874.589320] [ohm:466532:0]        ib_iface.c:1059 UCX  ERROR ibv_create_cq(cqe=256) failed: Connection timed out
[1739911874.589398] [ohm:466514:0]        ib_iface.c:1059 UCX  ERROR ibv_create_cq(cqe=256) failed: Connection timed out
[1739911874.596629] [ohm:466472:0]        ib_iface.c:1059 UCX  ERROR ibv_create_cq(cqe=256) failed: Connection timed out
[1739911874.597574] [ohm:466537:0]        ib_iface.c:1059 UCX  ERROR ibv_create_cq(cqe=256) failed: Connection timed out
[1739911874.599493] [ohm:466465:0]        ib_iface.c:1059 UCX  ERROR ibv_create_cq(cqe=256) failed: Connection timed out
[1739911874.600036] [ohm:466459:0]        ib_iface.c:1059 UCX  ERROR ibv_create_cq(cqe=256) failed: Connection timed out
[1739911874.609391] [ohm:466481:0]        ib_iface.c:1059 UCX  ERROR ibv_create_cq(cqe=256) failed: Connection timed out
[1739911874.610984] [ohm:466473:0]        ib_iface.c:1059 UCX  ERROR ibv_create_cq(cqe=256) failed: Connection timed out
[1739911874.612735] [ohm:466524:0]        ib_iface.c:1059 UCX  ERROR ibv_create_cq(cqe=256) failed: Connection timed out
[1739911874.619795] [ohm:466456:0]        ib_iface.c:1059 UCX  ERROR ibv_create_cq(cqe=256) failed: Connection timed out
[1739911874.620926] [ohm:466458:0]        ib_iface.c:1059 UCX  ERROR ibv_create_cq(cqe=256) failed: Connection timed out
[1739911874.622003] [ohm:466492:0]        ib_iface.c:1059 UCX  ERROR ibv_create_cq(cqe=256) failed: Connection timed out
[1739911874.622097] [ohm:466553:0]        ib_iface.c:1059 UCX  ERROR ibv_create_cq(cqe=256) failed: Connection timed out
[1739911874.622277] [ohm:466468:0]        ib_iface.c:1059 UCX  ERROR ibv_create_cq(cqe=256) failed: Connection timed out
[1739911874.623067] [ohm:466523:0]        ib_iface.c:1059 UCX  ERROR ibv_create_cq(cqe=256) failed: Connection timed out
[1739911874.623155] [ohm:466464:0]        ib_iface.c:1059 UCX  ERROR ibv_create_cq(cqe=256) failed: Connection timed out


           ************************************************************
           *        Program running with 64 parallel MPI-processes    *
           *              working on a common directory               *
           ************************************************************
------------------------------------------------------------------------------
                             ORCA STARTUP CALCULATIONS
                           -- RI-GTO INTEGRALS CHOSEN --
------------------------------------------------------------------------------
------------------------------------------------------------------------------
                   ___                                                        
                  /   \      - P O W E R E D   B Y -                         
                 /     \                                                     
                 |  |  |   _    _      __       _____    __    __             
                 |  |  |  | |  | |    /  \     |  _  \  |  |  /  |          
                  \  \/   | |  | |   /    \    | | | |  |  | /  /          
                 / \  \   | |__| |  /  /\  \   | |_| |  |  |/  /          
                |  |  |   |  __  | /  /__\  \  |    /   |      \           
                |  |  |   | |  | | |   __   |  |    \   |  |\   \          
                \     /   | |  | | |  |  |  |  | |\  \  |  | \   \       
                 \___/    |_|  |_| |__|  |__|  |_| \__\ |__|  \__/        
                                                                              
                      - O R C A' S   B I G   F R I E N D -                    
                                      &                                       
                       - I N T E G R A L  F E E D E R -                       
                                                                              
 v1 FN, 2020, v2 2021, v3 2022-2024                                           
------------------------------------------------------------------------------


----------------------
SHARK INTEGRAL PACKAGE
----------------------

Number of atoms                             ...     30
Number of basis functions                   ...    882
Number of shells                            ...    322
Maximum angular momentum                    ...      3
Integral batch strategy                     ... SHARK/LIBINT Hybrid
RI-J (if used) integral strategy            ... SPLIT-RIJ (Revised 2003 algorithm where possible)
Printlevel                                  ...      1
Contraction scheme used                     ... SEGMENTED contraction
Prescreening option                         ... SCHWARTZ
   Thresh                                   ... 2.500e-11
   Tcut                                     ... 2.500e-12
   Tpresel                                  ... 2.500e-12 
Coulomb Range Separation                    ... NOT USED
Exchange Range Separation                   ... Long Range
   Mu parameter                             ... 3.000e-01
   Scaling (regular/separated)              ... 1.500e-01 8.500e-01
Multipole approximations                    ... NOT USED
Finite Nucleus Model                        ... NOT USED
CABS basis                                  ... NOT available
Auxiliary Coulomb fitting basis             ... AVAILABLE
   # of basis functions in Aux-J            ...   1014
   # of shells in Aux-J                     ...    330
   Maximum angular momentum in Aux-J        ...      4
Auxiliary J/K fitting basis                 ... NOT available
Auxiliary Correlation fitting basis         ... NOT available
Auxiliary 'external' fitting basis          ... NOT available

Checking pre-screening integrals            ... done (  0.0 sec) Dimension = 322
Check shell pair data                       ... done (  0.0 sec)
Shell pair information
Shell pair cut-off parameter TPreSel        ...   2.5e-12
Total number of shell pairs                 ...     52003
Shell pairs after pre-screening             ...     45236
Total number of primitive shell pairs       ...    129718
Primitive shell pairs kept                  ...     84361
          la=0 lb=0:   8742 shell pairs
          la=1 lb=0:  11947 shell pairs
          la=1 lb=1:   4128 shell pairs
          la=2 lb=0:   8149 shell pairs
          la=2 lb=1:   5617 shell pairs
          la=2 lb=2:   1935 shell pairs
          la=3 lb=0:   2061 shell pairs
          la=3 lb=1:   1491 shell pairs
          la=3 lb=2:   1020 shell pairs
          la=3 lb=3:    146 shell pairs

Calculating one electron integrals          ... done (  0.2 sec)
Calculating RI/J V-Matrix + Cholesky decomp.... done (  0.1 sec)
Calculating Nuclear repulsion               ... done (  0.0 sec) ENN=   1450.812151917246 Eh

Diagonalization of the overlap matrix:
Smallest eigenvalue                        ... 6.503e-07
Time for diagonalization                   ...    0.125 sec
Threshold for overlap eigenvalues          ... 1.000e-07
Number of eigenvalues below threshold      ... 0

IMPORTANT:
Smallest eigenvalue of S below the DiffSThresh (1.000e-06) while
Thresh>1e-12 and/or TCut>1e-13! In order to avoid SCF convergence issues,
Thresh will be set to at least 1e-12 and TCut to at least 1e-13.
This can be turned off by adding %SCF DiffSThresh -1 END to the input.

Time for construction of square roots      ...    0.124 sec
Total time needed                          ...    0.266 sec

-------------------
DFT GRID GENERATION
-------------------

General Integration Accuracy     IntAcc      ... 4.388
Radial Grid Type                 RadialGrid  ... OptM3 with GC (2021)
Angular Grid (max. ang.)         AngularGrid ... 4 (Lebedev-302)
Angular grid pruning method      GridPruning ... 4 (adaptive)
Weight generation scheme         WeightScheme... mBecke (2022)
Basis function cutoff            BFCut       ... 1.0000e-11
Integration weight cutoff        WCut        ... 1.0000e-14
Partially contracted basis set               ... off
Rotationally invariant grid construction     ... off
Angular grids for H and He will be reduced by one unit
Diffuse basis detected: some atoms will have their outermost
                        angular grid increased by 1.

Total number of grid points                  ...   152208
Total number of batches                      ...     2393
Average number of points per batch           ...       63
Average number of grid points per atom       ...     5074

--------------------
COSX GRID GENERATION
--------------------

GRIDX 1
-------
General Integration Accuracy     IntAcc      ... 3.816
Radial Grid Type                 RadialGrid  ... OptM3 with GC (2021)
Angular Grid (max. ang.)         AngularGrid ... 1 (Lebedev-50)
Angular grid pruning method      GridPruning ... 4 (adaptive)
Weight generation scheme         WeightScheme... mBecke (2022)
Basis function cutoff            BFCut       ... 1.0000e-11
Integration weight cutoff        WCut        ... 1.0000e-14
Partially contracted basis set               ... on
Rotationally invariant grid construction     ... off
Angular grids for H and He will be reduced by one unit
Diffuse basis detected: some atoms will have their outermost
                        angular grid increased by 1.

Total number of grid points                  ...    19043
Total number of batches                      ...      164
Average number of points per batch           ...      116
Average number of grid points per atom       ...      635
UseSFitting                                  ... on

GRIDX 2
-------
General Integration Accuracy     IntAcc      ... 4.020
Radial Grid Type                 RadialGrid  ... OptM3 with GC (2021)
Angular Grid (max. ang.)         AngularGrid ... 2 (Lebedev-110)
Angular grid pruning method      GridPruning ... 4 (adaptive)
Weight generation scheme         WeightScheme... mBecke (2022)
Basis function cutoff            BFCut       ... 1.0000e-11
Integration weight cutoff        WCut        ... 1.0000e-14
Partially contracted basis set               ... on
Rotationally invariant grid construction     ... off
Angular grids for H and He will be reduced by one unit
Diffuse basis detected: some atoms will have their outermost
                        angular grid increased by 1.

Total number of grid points                  ...    45959
Total number of batches                      ...      375
Average number of points per batch           ...      122
Average number of grid points per atom       ...     1532
UseSFitting                                  ... on

GRIDX 3
-------
General Integration Accuracy     IntAcc      ... 4.338
Radial Grid Type                 RadialGrid  ... OptM3 with GC (2021)
Angular Grid (max. ang.)         AngularGrid ... 3 (Lebedev-194)
Angular grid pruning method      GridPruning ... 4 (adaptive)
Weight generation scheme         WeightScheme... mBecke (2022)
Basis function cutoff            BFCut       ... 1.0000e-11
Integration weight cutoff        WCut        ... 1.0000e-14
Partially contracted basis set               ... on
Rotationally invariant grid construction     ... off
Angular grids for H and He will be reduced by one unit
Diffuse basis detected: some atoms will have their outermost
                        angular grid increased by 1.

Total number of grid points                  ...   101098
Total number of batches                      ...      805
Average number of points per batch           ...      125
Average number of grid points per atom       ...     3370
UseSFitting                                  ... on
Initializing property integral containers    ... done (  0.0 sec)

SHARK setup successfully completed in   4.1 seconds

Maximum memory used throughout the entire STARTUP-calculation: 80.3 MB
[1739911880.825846] [ohm:466814:0]        ib_iface.c:1059 UCX  ERROR ibv_create_cq(cqe=256) failed: Connection timed out
[1739911880.826012] [ohm:466815:0]        ib_iface.c:1059 UCX  ERROR ibv_create_cq(cqe=256) failed: Connection timed out
[1739911880.830401] [ohm:466817:0]        ib_iface.c:1059 UCX  ERROR ibv_create_cq(cqe=256) failed: Connection timed out
[1739911880.860699] [ohm:466819:0]        ib_iface.c:1059 UCX  ERROR ibv_create_cq(cqe=256) failed: Connection timed out
[1739911880.861591] [ohm:466818:0]        ib_iface.c:1059 UCX  ERROR ibv_create_cq(cqe=256) failed: Connection timed out
[1739911880.863017] [ohm:466831:0]        ib_iface.c:1059 UCX  ERROR ibv_create_cq(cqe=256) failed: Connection timed out
[1739911880.863508] [ohm:466816:0]        ib_iface.c:1059 UCX  ERROR ibv_create_cq(cqe=256) failed: Connection timed out
[1739911880.868422] [ohm:466820:0]        ib_iface.c:1059 UCX  ERROR ibv_create_cq(cqe=256) failed: Connection timed out
[1739911880.870416] [ohm:466823:0]        ib_iface.c:1059 UCX  ERROR ibv_create_cq(cqe=256) failed: Connection timed out
[1739911880.891262] [ohm:466821:0]        ib_iface.c:1059 UCX  ERROR ibv_create_cq(cqe=256) failed: Connection timed out
[1739911880.892647] [ohm:466824:0]        ib_iface.c:1059 UCX  ERROR ibv_create_cq(cqe=256) failed: Connection timed out
[1739911880.895214] [ohm:466822:0]        ib_iface.c:1059 UCX  ERROR ibv_create_cq(cqe=256) failed: Connection timed out
[1739911880.898278] [ohm:466879:0]        ib_iface.c:1059 UCX  ERROR ibv_create_cq(cqe=256) failed: Connection timed out
[1739911880.956266] [ohm:466827:0]        ib_iface.c:1059 UCX  ERROR ibv_create_cq(cqe=256) failed: Connection timed out
[1739911880.969863] [ohm:466842:0]        ib_iface.c:1059 UCX  ERROR ibv_create_cq(cqe=256) failed: Connection timed out
[1739911880.969862] [ohm:466912:0]        ib_iface.c:1059 UCX  ERROR ibv_create_cq(cqe=256) failed: Connection timed out
[1739911880.990725] [ohm:466875:0]        ib_iface.c:1059 UCX  ERROR ibv_create_cq(cqe=256) failed: Connection timed out
[1739911881.013053] [ohm:466951:0]        ib_iface.c:1059 UCX  ERROR ibv_create_cq(cqe=256) failed: Connection timed out
[1739911881.013826] [ohm:466850:0]        ib_iface.c:1059 UCX  ERROR ibv_create_cq(cqe=256) failed: Connection timed out
[1739911881.013961] [ohm:466931:0]        ib_iface.c:1059 UCX  ERROR ibv_create_cq(cqe=256) failed: Connection timed out
[1739911881.032034] [ohm:466883:0]        ib_iface.c:1059 UCX  ERROR ibv_create_cq(cqe=256) failed: Connection timed out
[1739911881.032667] [ohm:466828:0]        ib_iface.c:1059 UCX  ERROR ibv_create_cq(cqe=256) failed: Connection timed out
[1739911881.033460] [ohm:466865:0]        ib_iface.c:1059 UCX  ERROR ibv_create_cq(cqe=256) failed: Connection timed out
[1739911881.043438] [ohm:466855:0]        ib_iface.c:1059 UCX  ERROR ibv_create_cq(cqe=256) failed: Connection timed out
[1739911881.044233] [ohm:466868:0]        ib_iface.c:1059 UCX  ERROR ibv_create_cq(cqe=256) failed: Connection timed out
[1739911881.061352] [ohm:466849:0]        ib_iface.c:1059 UCX  ERROR ibv_create_cq(cqe=256) failed: Connection timed out
[1739911881.066882] [ohm:466841:0]        ib_iface.c:1059 UCX  ERROR ibv_create_cq(cqe=256) failed: Connection timed out
[1739911881.075997] [ohm:466871:0]        ib_iface.c:1059 UCX  ERROR ibv_create_cq(cqe=256) failed: Connection timed out
[1739911881.076456] [ohm:466833:0]        ib_iface.c:1059 UCX  ERROR ibv_create_cq(cqe=256) failed: Connection timed out
[1739911881.079882] [ohm:466926:0]        ib_iface.c:1059 UCX  ERROR ibv_create_cq(cqe=256) failed: Connection timed out
[1739911881.081986] [ohm:466829:0]        ib_iface.c:1059 UCX  ERROR ibv_create_cq(cqe=256) failed: Connection timed out
[1739911881.082006] [ohm:466830:0]        ib_iface.c:1059 UCX  ERROR ibv_create_cq(cqe=256) failed: Connection timed out
[1739911881.087738] [ohm:466880:0]        ib_iface.c:1059 UCX  ERROR ibv_create_cq(cqe=256) failed: Connection timed out
[1739911881.090007] [ohm:466834:0]        ib_iface.c:1059 UCX  ERROR ibv_create_cq(cqe=256) failed: Connection timed out
[1739911881.090920] [ohm:466835:0]        ib_iface.c:1059 UCX  ERROR ibv_create_cq(cqe=256) failed: Connection timed out
[1739911881.093432] [ohm:466851:0]        ib_iface.c:1059 UCX  ERROR ibv_create_cq(cqe=256) failed: Connection timed out
[1739911881.102575] [ohm:466826:0]        ib_iface.c:1059 UCX  ERROR ibv_create_cq(cqe=256) failed: Connection timed out
[1739911881.108013] [ohm:466861:0]        ib_iface.c:1059 UCX  ERROR ibv_create_cq(cqe=256) failed: Connection timed out
[1739911881.117562] [ohm:466825:0]        ib_iface.c:1059 UCX  ERROR ibv_create_cq(cqe=256) failed: Connection timed out
[1739911881.125044] [ohm:466852:0]        ib_iface.c:1059 UCX  ERROR ibv_create_cq(cqe=256) failed: Connection timed out
[1739911881.131514] [ohm:466957:0]        ib_iface.c:1059 UCX  ERROR ibv_create_cq(cqe=256) failed: Connection timed out
[1739911881.132747] [ohm:466939:0]        ib_iface.c:1059 UCX  ERROR ibv_create_cq(cqe=256) failed: Connection timed out
[1739911881.135943] [ohm:466909:0]        ib_iface.c:1059 UCX  ERROR ibv_create_cq(cqe=256) failed: Connection timed out
[1739911881.138606] [ohm:466973:0]        ib_iface.c:1059 UCX  ERROR ibv_create_cq(cqe=256) failed: Connection timed out
[1739911881.139520] [ohm:466892:0]        ib_iface.c:1059 UCX  ERROR ibv_create_cq(cqe=256) failed: Connection timed out
[1739911881.140778] [ohm:466915:0]        ib_iface.c:1059 UCX  ERROR ibv_create_cq(cqe=256) failed: Connection timed out
[1739911881.143614] [ohm:466859:0]        ib_iface.c:1059 UCX  ERROR ibv_create_cq(cqe=256) failed: Connection timed out
[1739911881.146864] [ohm:466947:0]        ib_iface.c:1059 UCX  ERROR ibv_create_cq(cqe=256) failed: Connection timed out
[1739911881.147388] [ohm:466856:0]        ib_iface.c:1059 UCX  ERROR ibv_create_cq(cqe=256) failed: Connection timed out
[1739911881.150902] [ohm:466905:0]        ib_iface.c:1059 UCX  ERROR ibv_create_cq(cqe=256) failed: Connection timed out
[1739911881.151792] [ohm:466924:0]        ib_iface.c:1059 UCX  ERROR ibv_create_cq(cqe=256) failed: Connection timed out
[1739911881.153297] [ohm:466902:0]        ib_iface.c:1059 UCX  ERROR ibv_create_cq(cqe=256) failed: Connection timed out
[1739911881.153587] [ohm:466965:0]        ib_iface.c:1059 UCX  ERROR ibv_create_cq(cqe=256) failed: Connection timed out
[1739911881.157170] [ohm:466898:0]        ib_iface.c:1059 UCX  ERROR ibv_create_cq(cqe=256) failed: Connection timed out
[1739911881.157523] [ohm:466906:0]        ib_iface.c:1059 UCX  ERROR ibv_create_cq(cqe=256) failed: Connection timed out
[1739911881.158130] [ohm:466928:0]        ib_iface.c:1059 UCX  ERROR ibv_create_cq(cqe=256) failed: Connection timed out
[1739911881.159307] [ohm:466848:0]        ib_iface.c:1059 UCX  ERROR ibv_create_cq(cqe=256) failed: Connection timed out
[1739911881.159920] [ohm:466847:0]        ib_iface.c:1059 UCX  ERROR ibv_create_cq(cqe=256) failed: Connection timed out
[1739911881.161226] [ohm:466921:0]        ib_iface.c:1059 UCX  ERROR ibv_create_cq(cqe=256) failed: Connection timed out
[1739911881.161417] [ohm:466944:0]        ib_iface.c:1059 UCX  ERROR ibv_create_cq(cqe=256) failed: Connection timed out
[1739911881.165684] [ohm:466900:0]        ib_iface.c:1059 UCX  ERROR ibv_create_cq(cqe=256) failed: Connection timed out
[1739911881.165803] [ohm:466940:0]        ib_iface.c:1059 UCX  ERROR ibv_create_cq(cqe=256) failed: Connection timed out
[1739911881.166188] [ohm:466933:0]        ib_iface.c:1059 UCX  ERROR ibv_create_cq(cqe=256) failed: Connection timed out
[1739911881.176767] [ohm:466889:0]        ib_iface.c:1059 UCX  ERROR ibv_create_cq(cqe=256) failed: Connection timed out


           ************************************************************
           *        Program running with 64 parallel MPI-processes    *
           *              working on a common directory               *
           ************************************************************
-------------------------------------------------------------------------------
                                 ORCA GUESS
                   Start orbitals & Density for SCF / CASSCF
-------------------------------------------------------------------------------

------------
SCF SETTINGS
------------
Hamiltonian:
 Density Functional     Method          .... DFT(GTOs)
  Functional kind                       .... Exchange-Correlation
  Functional name                       .... wB97M-V exchange-correlation functional
  Functional family                     .... Hybrid MGGA
  Functional refs                              
    [ 0] N. Mardirossian and M. Head-Gordon.,  J. Chem. Phys. 144, 214110 (2016), doi: 10.1063/1.4952647
  Fraction of HF Exchange (short range) .... 0.1500
  Fraction of HF Exchange (long range)  .... 1.0000
  Range separation parameter mu         .... 0.3000
  Functional external parameters        .... 17
    Parameter  0 _cx00      =  8.500000e-01 : u^00 coefficient for exchange
    Parameter  1 _cx01      =  1.007000e+00 : u^01 coefficient for exchange
    Parameter  2 _cx10      =  2.590000e-01 : u^10 coefficient for exchange
    Parameter  3 _css00     =  4.430000e-01 : u^00 coefficient for same-spin correlation
    Parameter  4 _css04     = -1.437000e+00 : u^04 coefficient for same-spin correlation
    Parameter  5 _css10     = -4.535000e+00 : u^10 coefficient for same-spin correlation
    Parameter  6 _css20     = -3.390000e+00 : u^20 coefficient for same-spin correlation
    Parameter  7 _css43     =  4.278000e+00 : u^43 coefficient for same-spin correlation
    Parameter  8 _cos00     =  1.000000e+00 : u^00 coefficient for opposite-spin correlation
    Parameter  9 _cos10     =  1.358000e+00 : u^10 coefficient for opposite-spin correlation
    Parameter 10 _cos20     =  2.924000e+00 : u^20 coefficient for opposite-spin correlation
    Parameter 11 _cos21     = -8.812000e+00 : u^21 coefficient for opposite-spin correlation
    Parameter 12 _cos60     = -1.390000e+00 : u^60 coefficient for opposite-spin correlation
    Parameter 13 _cos61     =  9.142000e+00 : u^61 coefficient for opposite-spin correlation
    Parameter 14 _alpha     =  1.000000e+00 : fraction of HF exchange
    Parameter 15 _beta      = -8.500000e-01 : fraction of short-range exchange
    Parameter 16 _omega     =  3.000000e-01 : range-separation constant
 Long-range corrected/Screened/Range-Separated Hybrid DFT is turned on
   Amount of maximum screened exact exchange              ....  0.850000
   Range separation parameter mu (erf(mu*r12)/r12)        ....  0.300000
 RI-approximation to the Coulomb term is turned on
   Number of AuxJ basis functions       .... 1014
   RIJ-COSX (HFX calculated with COS-X)).... on


General Settings:
 Integral files         IntName         .... orca
 Hartree-Fock type      HFTyp           .... UHF
 Total Charge           Charge          ....    0
 Multiplicity           Mult            ....    3
 Number of Electrons    NEL             ....  132
 Basis Dimension        Dim             ....  882
 Nuclear Repulsion      ENuc            ....   1450.8121519172 Eh

Convergence Acceleration:
 AO-DIIS                CNVDIIS         .... on
   Start iteration      DIISMaxIt       ....    12
   Startup error        DIISStart       ....  0.200000
   # of expansion vecs  DIISMaxEq       ....     5
   Bias factor          DIISBfac        ....   1.050
   Max. coefficient     DIISMaxC        ....  10.000
 MO-DIIS                CNVKDIIS        .... off
 Trust-Rad. Augm. Hess. CNVTRAH         .... auto
   Auto Start mean grad. ratio tolernc. ....  1.125000
   Auto Start start iteration           ....    50
   Auto Start num. interpolation iter.  ....    10
   Max. Number of Micro iterations      ....    24
   Max. Number of Macro iterations      .... Maxiter - #DIIS iter
   Number of Davidson start vectors     ....     2
   Converg. threshold    (grad. norm)   ....   1.000e-05
   Grad. Scal. Fac. for Micro threshold ....   0.100
   Minimum threshold for Micro iter.    ....   1.000e-02
   NR start threshold (gradient norm)   ....   1.000e-04
   Initial trust radius                 ....   0.400
   Minimum AH scaling param. (alpha)    ....   1.000
   Maximum AH scaling param. (alpha)    .... 1000.000
   Quad. conv. algorithm                .... NR
   White noise on init. David. guess    .... on
   Maximum white noise                  ....   0.010
   Pseudo random numbers                .... off
   Inactive MOs                         .... canonical
   Orbital update algorithm             .... Taylor
   Preconditioner                       .... Diag
   Full preconditioner red. dimension   ....   250
 SOSCF                  CNVSOSCF        .... on
   Start iteration      SOSCFMaxIt      ....   150
   Startup grad/error   SOSCFStart      ....  0.003300
   Hessian update       SOSCFHessUp     .... L-BFGS
 Level Shifting         CNVShift        .... on
   Level shift para.    LevelShift      ....    0.2500
   Turn off err/grad.   ShiftErr        ....    0.0010
 Zerner damping         CNVZerner       .... off
 Static damping         CNVDamp         .... on
   Fraction old density DampFac         ....    0.7000
   Max. Damping (<1)    DampMax         ....    0.9800
   Min. Damping (>=0)   DampMin         ....    0.0000
   Turn off err/grad.   DampErr         ....    0.1000

SCF Procedure:
 Maximum # iterations   MaxIter         ....   125
 SCF integral mode      SCFMode         .... Direct
   Integral package                     .... SHARK and LIBINT hybrid scheme
 Reset frequency        DirectResetFreq ....    20
 Integral Threshold     Thresh          ....  1.000e-12 Eh
 Primitive CutOff       TCut            ....  1.000e-13 Eh

Convergence Tolerance:
 Convergence Check Mode ConvCheckMode   .... Total+1el-Energy
 Convergence forced     ConvForced      .... 1
 Energy Change          TolE            ....  1.000e-08 Eh
 1-El. energy change                    ....  1.000e-05 Eh
 Orbital Gradient       TolG            ....  1.000e-05
 Orbital Rotation angle TolX            ....  1.000e-05
 DIIS Error             TolErr          ....  5.000e-07

------------------------------
INITIAL GUESS: MODEL POTENTIAL
------------------------------
Loading Hartree-Fock densities                     ... done
Calculating cut-offs                               ... done
Initializing the effective Hamiltonian             ... done
Setting up the integral package (SHARK)            ... done
Starting the Coulomb interaction                   ... done (   0.1 sec)
Making the grid                                    ... done (   0.2 sec)
Mapping shells                                     ... done
Starting the XC term evaluation                    ... done (   0.1 sec)
  promolecular density results
     # of electrons  =    131.989041798
     EX              =   -113.546600671
     EC              =     -4.477041421
     EX+EC           =   -118.023642092
Transforming the Hamiltonian                       ... done (   0.1 sec)
Diagonalizing the Hamiltonian                      ... done (   0.1 sec)
Back transforming the eigenvectors                 ... done (   0.1 sec)
Now organizing SCF variables                       ... done
                      ------------------
                      INITIAL GUESS DONE (   1.1 sec)
                      ------------------
             **** ENERGY FILE WAS UPDATED (orca.en.tmp) ****
Finished Guess after   3.8 sec
Maximum memory used throughout the entire GUESS-calculation: 72.7 MB
[1739911885.026233] [ohm:467174:0]        ib_iface.c:1059 UCX  ERROR ibv_create_cq(cqe=256) failed: Connection timed out
[1739911885.034797] [ohm:467169:0]        ib_iface.c:1059 UCX  ERROR ibv_create_cq(cqe=256) failed: Connection timed out
[1739911885.048195] [ohm:467168:0]        ib_iface.c:1059 UCX  ERROR ibv_create_cq(cqe=256) failed: Connection timed out
[1739911885.049072] [ohm:467170:0]        ib_iface.c:1059 UCX  ERROR ibv_create_cq(cqe=256) failed: Connection timed out
[1739911885.051362] [ohm:467178:0]        ib_iface.c:1059 UCX  ERROR ibv_create_cq(cqe=256) failed: Connection timed out
[1739911885.069182] [ohm:467173:0]        ib_iface.c:1059 UCX  ERROR ibv_create_cq(cqe=256) failed: Connection timed out
[1739911885.096850] [ohm:467221:0]        ib_iface.c:1059 UCX  ERROR ibv_create_cq(cqe=256) failed: Connection timed out
[1739911885.097445] [ohm:467185:0]        ib_iface.c:1059 UCX  ERROR ibv_create_cq(cqe=256) failed: Connection timed out
[1739911885.149766] [ohm:467181:0]        ib_iface.c:1059 UCX  ERROR ibv_create_cq(cqe=256) failed: Connection timed out
[1739911885.159674] [ohm:467206:0]        ib_iface.c:1059 UCX  ERROR ibv_create_cq(cqe=256) failed: Connection timed out
[1739911885.166154] [ohm:467186:0]        ib_iface.c:1059 UCX  ERROR ibv_create_cq(cqe=256) failed: Connection timed out
[1739911885.191065] [ohm:467190:0]        ib_iface.c:1059 UCX  ERROR ibv_create_cq(cqe=256) failed: Connection timed out
[1739911885.198591] [ohm:467171:0]        ib_iface.c:1059 UCX  ERROR ibv_create_cq(cqe=256) failed: Connection timed out
[1739911885.201504] [ohm:467198:0]        ib_iface.c:1059 UCX  ERROR ibv_create_cq(cqe=256) failed: Connection timed out
[1739911885.201835] [ohm:467175:0]        ib_iface.c:1059 UCX  ERROR ibv_create_cq(cqe=256) failed: Connection timed out
[1739911885.210745] [ohm:467184:0]        ib_iface.c:1059 UCX  ERROR ibv_create_cq(cqe=256) failed: Connection timed out
[1739911885.225196] [ohm:467176:0]        ib_iface.c:1059 UCX  ERROR ibv_create_cq(cqe=256) failed: Connection timed out
[1739911885.230281] [ohm:467214:0]        ib_iface.c:1059 UCX  ERROR ibv_create_cq(cqe=256) failed: Connection timed out
[1739911885.231524] [ohm:467232:0]        ib_iface.c:1059 UCX  ERROR ibv_create_cq(cqe=256) failed: Connection timed out
[1739911885.234694] [ohm:467180:0]        ib_iface.c:1059 UCX  ERROR ibv_create_cq(cqe=256) failed: Connection timed out
[1739911885.238308] [ohm:467189:0]        ib_iface.c:1059 UCX  ERROR ibv_create_cq(cqe=256) failed: Connection timed out
[1739911885.245390] [ohm:467230:0]        ib_iface.c:1059 UCX  ERROR ibv_create_cq(cqe=256) failed: Connection timed out
[1739911885.252360] [ohm:467241:0]        ib_iface.c:1059 UCX  ERROR ibv_create_cq(cqe=256) failed: Connection timed out
[1739911885.252387] [ohm:467193:0]        ib_iface.c:1059 UCX  ERROR ibv_create_cq(cqe=256) failed: Connection timed out
[1739911885.263876] [ohm:467172:0]        ib_iface.c:1059 UCX  ERROR ibv_create_cq(cqe=256) failed: Connection timed out
[1739911885.278308] [ohm:467220:0]        ib_iface.c:1059 UCX  ERROR ibv_create_cq(cqe=256) failed: Connection timed out
[1739911885.280389] [ohm:467256:0]        ib_iface.c:1059 UCX  ERROR ibv_create_cq(cqe=256) failed: Connection timed out
[1739911885.282635] [ohm:467304:0]        ib_iface.c:1059 UCX  ERROR ibv_create_cq(cqe=256) failed: Connection timed out
[1739911885.284788] [ohm:467249:0]        ib_iface.c:1059 UCX  ERROR ibv_create_cq(cqe=256) failed: Connection timed out
[1739911885.287926] [ohm:467275:0]        ib_iface.c:1059 UCX  ERROR ibv_create_cq(cqe=256) failed: Connection timed out
[1739911885.288789] [ohm:467280:0]        ib_iface.c:1059 UCX  ERROR ibv_create_cq(cqe=256) failed: Connection timed out
[1739911885.289842] [ohm:467177:0]        ib_iface.c:1059 UCX  ERROR ibv_create_cq(cqe=256) failed: Connection timed out
[1739911885.300439] [ohm:467265:0]        ib_iface.c:1059 UCX  ERROR ibv_create_cq(cqe=256) failed: Connection timed out
[1739911885.303741] [ohm:467224:0]        ib_iface.c:1059 UCX  ERROR ibv_create_cq(cqe=256) failed: Connection timed out
[1739911885.314266] [ohm:467268:0]        ib_iface.c:1059 UCX  ERROR ibv_create_cq(cqe=256) failed: Connection timed out
[1739911885.328695] [ohm:467236:0]        ib_iface.c:1059 UCX  ERROR ibv_create_cq(cqe=256) failed: Connection timed out
[1739911885.328923] [ohm:467187:0]        ib_iface.c:1059 UCX  ERROR ibv_create_cq(cqe=256) failed: Connection timed out
[1739911885.333087] [ohm:467210:0]        ib_iface.c:1059 UCX  ERROR ibv_create_cq(cqe=256) failed: Connection timed out
[1739911885.334856] [ohm:467253:0]        ib_iface.c:1059 UCX  ERROR ibv_create_cq(cqe=256) failed: Connection timed out
[1739911885.344546] [ohm:467196:0]        ib_iface.c:1059 UCX  ERROR ibv_create_cq(cqe=256) failed: Connection timed out
[1739911885.347739] [ohm:467273:0]        ib_iface.c:1059 UCX  ERROR ibv_create_cq(cqe=256) failed: Connection timed out
[1739911885.352755] [ohm:467262:0]        ib_iface.c:1059 UCX  ERROR ibv_create_cq(cqe=256) failed: Connection timed out
[1739911885.352831] [ohm:467225:0]        ib_iface.c:1059 UCX  ERROR ibv_create_cq(cqe=256) failed: Connection timed out
[1739911885.353690] [ohm:467203:0]        ib_iface.c:1059 UCX  ERROR ibv_create_cq(cqe=256) failed: Connection timed out
[1739911885.354329] [ohm:467295:0]        ib_iface.c:1059 UCX  ERROR ibv_create_cq(cqe=256) failed: Connection timed out
[1739911885.359035] [ohm:467314:0]        ib_iface.c:1059 UCX  ERROR ibv_create_cq(cqe=256) failed: Connection timed out
[1739911885.363884] [ohm:467244:0]        ib_iface.c:1059 UCX  ERROR ibv_create_cq(cqe=256) failed: Connection timed out
[1739911885.366918] [ohm:467188:0]        ib_iface.c:1059 UCX  ERROR ibv_create_cq(cqe=256) failed: Connection timed out
[1739911885.371795] [ohm:467284:0]        ib_iface.c:1059 UCX  ERROR ibv_create_cq(cqe=256) failed: Connection timed out
[1739911885.373970] [ohm:467309:0]        ib_iface.c:1059 UCX  ERROR ibv_create_cq(cqe=256) failed: Connection timed out
[1739911885.374296] [ohm:467261:0]        ib_iface.c:1059 UCX  ERROR ibv_create_cq(cqe=256) failed: Connection timed out
[1739911885.375622] [ohm:467179:0]        ib_iface.c:1059 UCX  ERROR ibv_create_cq(cqe=256) failed: Connection timed out
[1739911885.377211] [ohm:467322:0]        ib_iface.c:1059 UCX  ERROR ibv_create_cq(cqe=256) failed: Connection timed out
[1739911885.378162] [ohm:467182:0]        ib_iface.c:1059 UCX  ERROR ibv_create_cq(cqe=256) failed: Connection timed out
[1739911885.380800] [ohm:467217:0]        ib_iface.c:1059 UCX  ERROR ibv_create_cq(cqe=256) failed: Connection timed out
[1739911885.381729] [ohm:467194:0]        ib_iface.c:1059 UCX  ERROR ibv_create_cq(cqe=256) failed: Connection timed out
[1739911885.383796] [ohm:467192:0]        ib_iface.c:1059 UCX  ERROR ibv_create_cq(cqe=256) failed: Connection timed out
[1739911885.385661] [ohm:467286:0]        ib_iface.c:1059 UCX  ERROR ibv_create_cq(cqe=256) failed: Connection timed out
[1739911885.385691] [ohm:467293:0]        ib_iface.c:1059 UCX  ERROR ibv_create_cq(cqe=256) failed: Connection timed out
[1739911885.385731] [ohm:467257:0]        ib_iface.c:1059 UCX  ERROR ibv_create_cq(cqe=256) failed: Connection timed out
[1739911885.387461] [ohm:467191:0]        ib_iface.c:1059 UCX  ERROR ibv_create_cq(cqe=256) failed: Connection timed out
[1739911885.387854] [ohm:467298:0]        ib_iface.c:1059 UCX  ERROR ibv_create_cq(cqe=256) failed: Connection timed out
[1739911885.388917] [ohm:467183:0]        ib_iface.c:1059 UCX  ERROR ibv_create_cq(cqe=256) failed: Connection timed out
[1739911885.393505] [ohm:467290:0]        ib_iface.c:1059 UCX  ERROR ibv_create_cq(cqe=256) failed: Connection timed out


           ************************************************************
           *        Program running with 64 parallel MPI-processes    *
           *              working on a common directory               *
           ************************************************************

-------------------------------------------------------------------------------------------
                                      ORCA LEAN-SCF
                              memory conserving SCF solver
-------------------------------------------------------------------------------------------

----------------------------------------D-I-I-S--------------------------------------------
Iteration    Energy (Eh)           Delta-E    RMSDP     MaxDP     DIISErr   Damp  Time(sec)
-------------------------------------------------------------------------------------------
               ***  Starting incremental Fock matrix formation  ***
    1    -908.1054557758925512     0.00e+00  1.32e-03  2.20e-01  1.43e-01  0.700   7.8
    2    -908.3652859335397807    -2.60e-01  1.12e-03  1.54e-01  6.77e-02  0.700   6.5
                               ***Turning on AO-DIIS***
    3    -908.4827365997430206    -1.17e-01  8.13e-04  1.20e-01  2.64e-02  0.700   5.8
    4    -908.5551685682648895    -7.24e-02  1.94e-03  2.81e-01  1.85e-02  0.000   5.7
    5    -908.7203926123361271    -1.65e-01  2.74e-04  5.36e-02  5.17e-03  0.000   5.9
    6    -908.7235184627784292    -3.13e-03  1.92e-04  3.31e-02  4.59e-03  0.000   5.7
    7    -908.7256825486670095    -2.16e-03  2.59e-04  6.73e-02  3.74e-03  0.000   5.7
                              *** Initializing SOSCF ***
---------------------------------------S-O-S-C-F--------------------------------------
Iteration    Energy (Eh)           Delta-E    RMSDP     MaxDP     MaxGrad    Time(sec)
--------------------------------------------------------------------------------------
    8    -908.7277634126639896    -2.08e-03  1.57e-04  3.46e-02  2.68e-03     6.5
               *** Restarting incremental Fock matrix formation ***
    9    -908.7287295626906598    -9.66e-04  1.89e-04  1.38e-02  7.04e-03     7.4
   10    -908.7291706792811965    -4.41e-04  2.11e-04  1.85e-02  4.00e-03     6.6
   11    -908.7293589201385657    -1.88e-04  9.67e-05  1.46e-02  9.55e-04     6.6
   12    -908.7294135674360405    -5.46e-05  2.54e-05  2.60e-03  3.72e-04     6.5
   13    -908.7294224371426026    -8.87e-06  1.17e-05  1.24e-03  2.32e-04     6.2
   14    -908.7294252899073399    -2.85e-06  5.02e-06  8.17e-04  1.56e-04     6.1
   15    -908.7294262664718190    -9.77e-07  6.01e-06  1.05e-03  1.10e-04     6.0
   16    -908.7294268357654801    -5.69e-07  2.75e-06  4.60e-04  4.22e-05     5.9
   17    -908.7294269262347370    -9.05e-08  1.53e-06  3.01e-04  1.97e-05     5.9
   18    -908.7294269328940572    -6.66e-09  1.16e-06  1.81e-04  8.71e-06     5.6
                 **** Energy Check signals convergence ****

               *****************************************************
               *                     SUCCESS                       *
               *           SCF CONVERGED AFTER  18 CYCLES          *
               *****************************************************

Recomputing exchange energy using gridx3       ... done (    7.781 sec)
Old exchange energy                            :    -35.022390645 Eh
New exchange energy                            :    -35.022386512 Eh
Exchange energy change after final integration :      0.000004133 Eh
Total energy after final integration           :   -908.729422800 Eh
             **** ENERGY FILE WAS UPDATED (orca.en.tmp) ****

----------------
TOTAL SCF ENERGY
----------------

Total Energy       :       -908.72942280015275 Eh          -24727.78473 eV

Components:
Nuclear Repulsion  :       1450.81215191724550 Eh           39478.60571 eV
Electronic Energy  :      -2359.54157885013956 Eh          -64206.39055 eV
One Electron Energy:      -4119.20752471212290 Eh         -112089.33526 eV
Two Electron Energy:       1759.66594586198335 Eh           47882.94471 eV

Virial components:
Potential Energy   :      -1814.68977700002688 Eh          -49380.21927 eV
Kinetic Energy     :        905.96035419987402 Eh           24652.43454 eV
Virial Ratio       :          2.00305650085839

DFT components:
N(Alpha)           :       67.000121876068 electrons
N(Beta)            :       65.000102214054 electrons
N(Total)           :      132.000224090121 electrons
E(XC)              :      -86.253179004088 Eh       

---------------
SCF CONVERGENCE
---------------

  Last Energy change         ...    6.6593e-09  Tolerance :   1.0000e-08
  Last MAX-Density change    ...    1.8126e-04  Tolerance :   1.0000e-07
  Last RMS-Density change    ...    1.1589e-06  Tolerance :   5.0000e-09
  Last DIIS Error            ...    2.6790e-03  Tolerance :   5.0000e-07
  Last Orbital Gradient      ...    8.7140e-06  Tolerance :   1.0000e-05
  Last Orbital Rotation      ...    6.3009e-05  Tolerance :   1.0000e-05


----------------------
UHF SPIN CONTAMINATION
----------------------

Warning: in a DFT calculation there is little theoretical justification to 
         calculate <S**2> as in Hartree-Fock theory. We will do it anyways
         but you should keep in mind that the values have only limited relevance

Expectation value of <S**2>     :     2.012458
Ideal value S*(S+1) for S=1.0   :     2.000000
Deviation                       :     0.012458

----------------
ORBITAL ENERGIES
----------------
                 SPIN UP ORBITALS
  NO   OCC          E(Eh)            E(eV) 
   0   1.0000     -19.334867      -526.1285 
   1   1.0000     -19.334408      -526.1160 
   2   1.0000     -19.325219      -525.8660 
   3   1.0000     -19.320239      -525.7304 
   4   1.0000     -14.585441      -396.8900 
   5   1.0000     -14.581106      -396.7721 
   6   1.0000     -14.564731      -396.3265 
   7   1.0000     -14.547302      -395.8522 
   8   1.0000     -10.514058      -286.1021 
   9   1.0000     -10.508550      -285.9522 
  10   1.0000     -10.474338      -285.0212 
  11   1.0000     -10.461363      -284.6682 
  12   1.0000     -10.431579      -283.8577 
  13   1.0000     -10.420199      -283.5480 
  14   1.0000     -10.401390      -283.0362 
  15   1.0000     -10.379751      -282.4474 
  16   1.0000     -10.377531      -282.3870 
  17   1.0000     -10.356628      -281.8182 
  18   1.0000      -1.235166       -33.6106 
  19   1.0000      -1.221749       -33.2455 
  20   1.0000      -1.200742       -32.6739 
  21   1.0000      -1.189303       -32.3626 
  22   1.0000      -1.124372       -30.5957 
  23   1.0000      -1.113226       -30.2924 
  24   1.0000      -1.070783       -29.1375 
  25   1.0000      -1.056298       -28.7433 
  26   1.0000      -0.965611       -26.2756 
  27   1.0000      -0.954496       -25.9732 
  28   1.0000      -0.848305       -23.0836 
  29   1.0000      -0.844820       -22.9887 
  30   1.0000      -0.812695       -22.1146 
  31   1.0000      -0.805375       -21.9154 
  32   1.0000      -0.791861       -21.5476 
  33   1.0000      -0.781224       -21.2582 
  34   1.0000      -0.694628       -18.9018 
  35   1.0000      -0.689691       -18.7674 
  36   1.0000      -0.685519       -18.6539 
  37   1.0000      -0.681244       -18.5376 
  38   1.0000      -0.650288       -17.6952 
  39   1.0000      -0.633478       -17.2378 
  40   1.0000      -0.618036       -16.8176 
  41   1.0000      -0.601805       -16.3760 
  42   1.0000      -0.596111       -16.2210 
  43   1.0000      -0.594095       -16.1661 
  44   1.0000      -0.574605       -15.6358 
  45   1.0000      -0.571347       -15.5471 
  46   1.0000      -0.564671       -15.3655 
  47   1.0000      -0.554132       -15.0787 
  48   1.0000      -0.550238       -14.9727 
  49   1.0000      -0.545746       -14.8505 
  50   1.0000      -0.533244       -14.5103 
  51   1.0000      -0.524546       -14.2736 
  52   1.0000      -0.520213       -14.1557 
  53   1.0000      -0.512655       -13.9501 
  54   1.0000      -0.501766       -13.6538 
  55   1.0000      -0.491326       -13.3696 
  56   1.0000      -0.484255       -13.1773 
  57   1.0000      -0.480849       -13.0846 
  58   1.0000      -0.428103       -11.6493 
  59   1.0000      -0.423294       -11.5184 
  60   1.0000      -0.407897       -11.0994 
  61   1.0000      -0.398965       -10.8564 
  62   1.0000      -0.391439       -10.6516 
  63   1.0000      -0.387061       -10.5325 
  64   1.0000      -0.380835       -10.3631 
  65   1.0000      -0.341128        -9.2826 
  66   1.0000      -0.227992        -6.2040 
  67   0.0000       0.012482         0.3397 
  68   0.0000       0.019360         0.5268 
  69   0.0000       0.034626         0.9422 
  70   0.0000       0.037740         1.0270 
  71   0.0000       0.044773         1.2183 
  72   0.0000       0.056801         1.5456 
  73   0.0000       0.058746         1.5986 
  74   0.0000       0.064680         1.7600 
  75   0.0000       0.067551         1.8382 
  76   0.0000       0.071053         1.9334 
  77   0.0000       0.072885         1.9833 

                 SPIN DOWN ORBITALS
  NO   OCC          E(Eh)            E(eV) 
   0   1.0000     -19.334864      -526.1284 
   1   1.0000     -19.332797      -526.0722 
   2   1.0000     -19.320288      -525.7318 
   3   1.0000     -19.318231      -525.6758 
   4   1.0000     -14.580918      -396.7670 
   5   1.0000     -14.580555      -396.7571 
   6   1.0000     -14.564754      -396.3271 
   7   1.0000     -14.546548      -395.8317 
   8   1.0000     -10.514050      -286.1018 
   9   1.0000     -10.508780      -285.9584 
  10   1.0000     -10.474320      -285.0207 
  11   1.0000     -10.461642      -284.6757 
  12   1.0000     -10.431357      -283.8517 
  13   1.0000     -10.410482      -283.2836 
  14   1.0000     -10.390920      -282.7513 
  15   1.0000     -10.380250      -282.4610 
  16   1.0000     -10.377538      -282.3872 
  17   1.0000     -10.356621      -281.8180 
  18   1.0000      -1.235000       -33.6060 
  19   1.0000      -1.218181       -33.1484 
  20   1.0000      -1.200733       -32.6736 
  21   1.0000      -1.179740       -32.1024 
  22   1.0000      -1.124159       -30.5899 
  23   1.0000      -1.103149       -30.0182 
  24   1.0000      -1.070628       -29.1333 
  25   1.0000      -1.049700       -28.5638 
  26   1.0000      -0.955571       -26.0024 
  27   1.0000      -0.941783       -25.6272 
  28   1.0000      -0.844873       -22.9902 
  29   1.0000      -0.837927       -22.8012 
  30   1.0000      -0.805300       -21.9133 
  31   1.0000      -0.797773       -21.7085 
  32   1.0000      -0.791477       -21.5372 
  33   1.0000      -0.775729       -21.1087 
  34   1.0000      -0.693966       -18.8838 
  35   1.0000      -0.685038       -18.6408 
  36   1.0000      -0.681895       -18.5553 
  37   1.0000      -0.670248       -18.2384 
  38   1.0000      -0.647203       -17.6113 
  39   1.0000      -0.628203       -17.0943 
  40   1.0000      -0.612284       -16.6611 
  41   1.0000      -0.596687       -16.2367 
  42   1.0000      -0.590015       -16.0551 
  43   1.0000      -0.586614       -15.9626 
  44   1.0000      -0.571152       -15.5418 
  45   1.0000      -0.562536       -15.3074 
  46   1.0000      -0.556461       -15.1421 
  47   1.0000      -0.550056       -14.9678 
  48   1.0000      -0.547283       -14.8923 
  49   1.0000      -0.536957       -14.6113 
  50   1.0000      -0.525070       -14.2879 
  51   1.0000      -0.518044       -14.0967 
  52   1.0000      -0.512885       -13.9563 
  53   1.0000      -0.502438       -13.6720 
  54   1.0000      -0.494800       -13.4642 
  55   1.0000      -0.490350       -13.3431 
  56   1.0000      -0.479540       -13.0489 
  57   1.0000      -0.441792       -12.0218 
  58   1.0000      -0.426170       -11.5967 
  59   1.0000      -0.416998       -11.3471 
  60   1.0000      -0.405899       -11.0451 
  61   1.0000      -0.387157       -10.5351 
  62   1.0000      -0.383352       -10.4315 
  63   1.0000      -0.376935       -10.2569 
  64   1.0000      -0.341225        -9.2852 
  65   0.0000      -0.098113        -2.6698 
  66   0.0000       0.011556         0.3145 
  67   0.0000       0.020191         0.5494 
  68   0.0000       0.028895         0.7863 
  69   0.0000       0.036398         0.9904 
  70   0.0000       0.044510         1.2112 
  71   0.0000       0.052014         1.4154 
  72   0.0000       0.058062         1.5799 
  73   0.0000       0.058773         1.5993 
  74   0.0000       0.066345         1.8053 
  75   0.0000       0.068504         1.8641 
*Only the first 10 virtual orbitals were printed.

                    ********************************
                    * MULLIKEN POPULATION ANALYSIS *
                    ********************************

--------------------------------------------
MULLIKEN ATOMIC CHARGES AND SPIN POPULATIONS
--------------------------------------------
   0 O :   -0.676021    0.255918
   1 O :   -0.611514   -0.000979
   2 O :   -0.610115    0.059583
   3 O :   -0.642177    0.000492
   4 N :   -0.067893    0.186397
   5 N :   -0.062641    0.016031
   6 N :   -0.032066    0.043335
   7 N :   -0.047119   -0.001541
   8 C :    0.811922    0.203686
   9 C :    0.405091    0.022695
  10 C :   -0.422236    0.924263
  11 C :    0.029176    0.014454
  12 C :   -1.371856    0.045451
  13 C :   -1.135787   -0.013633
  14 C :    0.643773    0.267846
  15 C :    0.672488   -0.003415
  16 C :    0.260615   -0.042264
  17 C :    0.368016   -0.002729
  18 H :    0.226829    0.014736
  19 H :    0.184521   -0.000928
  20 H :    0.279301   -0.001676
  21 H :    0.398169    0.023783
  22 H :    0.288728    0.001658
  23 H :    0.254138   -0.001130
  24 H :    0.396733   -0.000676
  25 H :    0.043382    0.003568
  26 H :    0.207345   -0.011604
  27 H :    0.067589    0.000461
  28 H :    0.021283   -0.003013
  29 H :    0.120326   -0.000768
Sum of atomic charges         :   -0.0000000
Sum of atomic spin populations:    2.0000000

-----------------------------------------------------
MULLIKEN REDUCED ORBITAL CHARGES AND SPIN POPULATIONS
-----------------------------------------------------
CHARGE
  0 O s       :     4.087477  s :     4.087477
      pz      :     1.694422  p :     4.560065
      px      :     1.365425
      py      :     1.500218
      dz2     :     0.003410  d :     0.026631
      dxz     :     0.001881
      dyz     :     0.006562
      dx2y2   :     0.010587
      dxy     :     0.004191
      f0      :     0.000173  f :     0.001848
      f+1     :     0.000165
      f-1     :     0.000270
      f+2     :     0.000241
      f-2     :     0.000350
      f+3     :     0.000292
      f-3     :     0.000356

[...]
[1739912159.720279] [ohm:469606:0]        ib_iface.c:1059 UCX  ERROR ibv_create_cq(cqe=256) failed: Connection timed out
[1739912159.720719] [ohm:469687:0]        ib_iface.c:1059 UCX  ERROR ibv_create_cq(cqe=256) failed: Connection timed out
[1739912159.720829] [ohm:469573:0]        ib_iface.c:1059 UCX  ERROR ibv_create_cq(cqe=256) failed: Connection timed out
[1739912159.724340] [ohm:469594:0]        ib_iface.c:1059 UCX  ERROR ibv_create_cq(cqe=256) failed: Connection timed out
[1739912159.724585] [ohm:469572:0]        ib_iface.c:1059 UCX  ERROR ibv_create_cq(cqe=256) failed: Connection timed out
[1739912159.725671] [ohm:469663:0]        ib_iface.c:1059 UCX  ERROR ibv_create_cq(cqe=256) failed: Connection timed out
[1739912159.725874] [ohm:469705:0]        ib_iface.c:1059 UCX  ERROR ibv_create_cq(cqe=256) failed: Connection timed out
[1739912159.725964] [ohm:469666:0]        ib_iface.c:1059 UCX  ERROR ibv_create_cq(cqe=256) failed: Connection timed out
[1739912159.726785] [ohm:469619:0]        ib_iface.c:1059 UCX  ERROR ibv_create_cq(cqe=256) failed: Connection timed out
[1739912159.727455] [ohm:469644:0]        ib_iface.c:1059 UCX  ERROR ibv_create_cq(cqe=256) failed: Connection timed out
[1739912159.727909] [ohm:469671:0]        ib_iface.c:1059 UCX  ERROR ibv_create_cq(cqe=256) failed: Connection timed out


           ************************************************************
           *        Program running with 64 parallel MPI-processes    *
           *              working on a common directory               *
           ************************************************************

------------------------------------------------------------------------------
                              ORCA PROPERTY CALCULATIONS
------------------------------------------------------------------------------

GBWName                                 ... orca.gbw
Number of atoms                         ...     30
Number of basis functions               ...    882
Max core memory                         ...   1024 MB

Electric properties:
Dipole moment                           ... YES
Quadrupole moment                       ...  NO
Static polarizability (Dipole/Dipole)   ...  NO
Static polarizability (Dipole/Quad.)    ...  NO
Static polarizability (Quad./Quad.)     ...  NO
Static polarizability (Velocity)        ...  NO

Atomic electric properties:
Dipole moment                           ...  NO
Quadrupole moment                       ...  NO
Static polarizability                   ...  NO

Choice of electric origin               ... Center of mass
Position of electric origin             ...     0.039176    -0.038358     0.081251

General magnetic properties:
Magnetizability                         ...  NO

EPR properties:
g-Tensor (aka g-matrix)                 ...  NO
Zero-Field splitting spin-orbit         ...  NO
Zero-field splitting spin-spin          ...  NO
Hyperfine couplings                     ...  NO (   0 nuclei)
Quadrupole couplings                    ...  NO (   0 nuclei)
Contact density                         ...  NO (   0 nuclei)

NMR properties:
Chemical shifts                         ...  NO (   0 nuclei)
Spin-rotation constants                 ...  NO (   0 nuclei)
Spin-spin couplings                     ...  NO (   0 nuclei,    0 pairs)

Choice of magnetic origin               ... GIAO
Position of magnetic origin             ...     0.000000     0.000000     0.000000

Properties with geometric perturbations:
SCF Hessian                             ...  NO
IR spectrum                             ...  NO
VCD spectrum                            ...  NO
X-ray spectroscopy properties:
SCF XES/XAS/RIXS spectra                ...  NO


-------------
DIPOLE MOMENT
-------------

Method             : SCF
Type of density    : Electron Density
Multiplicity       :   3
Irrep              :   0
Energy             :  -908.7294228001527472 Eh
Relativity type    : 
Basis              : AO
                                X                 Y                 Z
Electronic contribution:     -3.245999162      -9.364467905      -7.173627818
Nuclear contribution   :      2.477672242      10.299449843       9.707817348
                        -----------------------------------------
Total Dipole Moment    :     -0.768326920       0.934981939       2.534189530
                        -----------------------------------------
Magnitude (a.u.)       :      2.808315164
Magnitude (Debye)      :      7.138169866



--------------------
Rotational spectrum 
--------------------
 
Rotational constants in cm-1:             0.018199             0.016014             0.012812 
Rotational constants in MHz :           545.579752           480.095661           384.107642 

Dipole components along the rotational axes: 
x,y,z [a.u.] :    -1.016948     1.512528     2.136518 
x,y,z [Debye]:    -2.584877     3.844541     5.430597 

 

-------------
DIPOLE MOMENT
-------------

Method             : TDA/CIS
Type of density    : Electron Density
Level              : Relaxed density
State              :   2
Multiplicity       :   3
Irrep              :   0
Energy             :     0.0000000000000000 Eh
Relativity type    : 
Basis              : AO
                                X                 Y                 Z
Electronic contribution:     -3.305570475      -9.443812388      -7.171251129
Nuclear contribution   :      2.477672242      10.299449843       9.707817348
                        -----------------------------------------
Total Dipole Moment    :     -0.827898234       0.855637455       2.536566220
                        -----------------------------------------
Magnitude (a.u.)       :      2.802088351
Magnitude (Debye)      :      7.122342567



--------------------
Rotational spectrum 
--------------------
 
Rotational constants in cm-1:             0.018199             0.016014             0.012812 
Rotational constants in MHz :           545.579752           480.095661           384.107642 

Dipole components along the rotational axes: 
x,y,z [a.u.] :    -1.078574     1.436061     2.150838 
x,y,z [Debye]:    -2.741517     3.650178     5.466997 

 

Dipole moment calculation done in   0.2 sec 

Maximum memory used throughout the entire PROP-calculation: 81.8 MB
[1739912162.323679] [ohm:469912:0]        ib_iface.c:1059 UCX  ERROR ibv_create_cq(cqe=256) failed: Connection timed out
[1739912162.337847] [ohm:469915:0]        ib_iface.c:1059 UCX  ERROR ibv_create_cq(cqe=256) failed: Connection timed out
[1739912162.345021] [ohm:469914:0]        ib_iface.c:1059 UCX  ERROR ibv_create_cq(cqe=256) failed: Connection timed out
[1739912162.349807] [ohm:469917:0]        ib_iface.c:1059 UCX  ERROR ibv_create_cq(cqe=256) failed: Connection timed out
[1739912162.363906] [ohm:469913:0]        ib_iface.c:1059 UCX  ERROR ibv_create_cq(cqe=256) failed: Connection timed out
[1739912162.373724] [ohm:469918:0]        ib_iface.c:1059 UCX  ERROR ibv_create_cq(cqe=256) failed: Connection timed out
[1739912162.397349] [ohm:469928:0]        ib_iface.c:1059 UCX  ERROR ibv_create_cq(cqe=256) failed: Connection timed out
[1739912162.397665] [ohm:469916:0]        ib_iface.c:1059 UCX  ERROR ibv_create_cq(cqe=256) failed: Connection timed out
[1739912162.399662] [ohm:469920:0]        ib_iface.c:1059 UCX  ERROR ibv_create_cq(cqe=256) failed: Connection timed out
[1739912162.404485] [ohm:469921:0]        ib_iface.c:1059 UCX  ERROR ibv_create_cq(cqe=256) failed: Connection timed out
[1739912162.416212] [ohm:469922:0]        ib_iface.c:1059 UCX  ERROR ibv_create_cq(cqe=256) failed: Connection timed out
[1739912162.416288] [ohm:470004:0]        ib_iface.c:1059 UCX  ERROR ibv_create_cq(cqe=256) failed: Connection timed out
[1739912162.421079] [ohm:469929:0]        ib_iface.c:1059 UCX  ERROR ibv_create_cq(cqe=256) failed: Connection timed out
[1739912162.428345] [ohm:469952:0]        ib_iface.c:1059 UCX  ERROR ibv_create_cq(cqe=256) failed: Connection timed out
[1739912162.438463] [ohm:469993:0]        ib_iface.c:1059 UCX  ERROR ibv_create_cq(cqe=256) failed: Connection timed out
[1739912162.440448] [ohm:469954:0]        ib_iface.c:1059 UCX  ERROR ibv_create_cq(cqe=256) failed: Connection timed out
[1739912162.485787] [ohm:469926:0]        ib_iface.c:1059 UCX  ERROR ibv_create_cq(cqe=256) failed: Connection timed out
[1739912162.487105] [ohm:470050:0]        ib_iface.c:1059 UCX  ERROR ibv_create_cq(cqe=256) failed: Connection timed out
[1739912162.495340] [ohm:469932:0]        ib_iface.c:1059 UCX  ERROR ibv_create_cq(cqe=256) failed: Connection timed out
[1739912162.495340] [ohm:469982:0]        ib_iface.c:1059 UCX  ERROR ibv_create_cq(cqe=256) failed: Connection timed out
[1739912162.510963] [ohm:470007:0]        ib_iface.c:1059 UCX  ERROR ibv_create_cq(cqe=256) failed: Connection timed out
[1739912162.518495] [ohm:469924:0]        ib_iface.c:1059 UCX  ERROR ibv_create_cq(cqe=256) failed: Connection timed out
[1739912162.544649] [ohm:469966:0]        ib_iface.c:1059 UCX  ERROR ibv_create_cq(cqe=256) failed: Connection timed out
[1739912162.558973] [ohm:469936:0]        ib_iface.c:1059 UCX  ERROR ibv_create_cq(cqe=256) failed: Connection timed out
[1739912162.559527] [ohm:470046:0]        ib_iface.c:1059 UCX  ERROR ibv_create_cq(cqe=256) failed: Connection timed out
[1739912162.561619] [ohm:469939:0]        ib_iface.c:1059 UCX  ERROR ibv_create_cq(cqe=256) failed: Connection timed out
[1739912162.562517] [ohm:469923:0]        ib_iface.c:1059 UCX  ERROR ibv_create_cq(cqe=256) failed: Connection timed out
[1739912162.564671] [ohm:469946:0]        ib_iface.c:1059 UCX  ERROR ibv_create_cq(cqe=256) failed: Connection timed out
[1739912162.569908] [ohm:470016:0]        ib_iface.c:1059 UCX  ERROR ibv_create_cq(cqe=256) failed: Connection timed out
[1739912162.573437] [ohm:470001:0]        ib_iface.c:1059 UCX  ERROR ibv_create_cq(cqe=256) failed: Connection timed out
[1739912162.574650] [ohm:469938:0]        ib_iface.c:1059 UCX  ERROR ibv_create_cq(cqe=256) failed: Connection timed out
[1739912162.604551] [ohm:470010:0]        ib_iface.c:1059 UCX  ERROR ibv_create_cq(cqe=256) failed: Connection timed out
[1739912162.610590] [ohm:469960:0]        ib_iface.c:1059 UCX  ERROR ibv_create_cq(cqe=256) failed: Connection timed out
[1739912162.614707] [ohm:469970:0]        ib_iface.c:1059 UCX  ERROR ibv_create_cq(cqe=256) failed: Connection timed out
[1739912162.614711] [ohm:469997:0]        ib_iface.c:1059 UCX  ERROR ibv_create_cq(cqe=256) failed: Connection timed out
[1739912162.616208] [ohm:470025:0]        ib_iface.c:1059 UCX  ERROR ibv_create_cq(cqe=256) failed: Connection timed out
[1739912162.626922] [ohm:469931:0]        ib_iface.c:1059 UCX  ERROR ibv_create_cq(cqe=256) failed: Connection timed out
[1739912162.629491] [ohm:469934:0]        ib_iface.c:1059 UCX  ERROR ibv_create_cq(cqe=256) failed: Connection timed out
[1739912162.633932] [ohm:469963:0]        ib_iface.c:1059 UCX  ERROR ibv_create_cq(cqe=256) failed: Connection timed out
[1739912162.636221] [ohm:469976:0]        ib_iface.c:1059 UCX  ERROR ibv_create_cq(cqe=256) failed: Connection timed out
[1739912162.640803] [ohm:470029:0]        ib_iface.c:1059 UCX  ERROR ibv_create_cq(cqe=256) failed: Connection timed out
[1739912162.642635] [ohm:469972:0]        ib_iface.c:1059 UCX  ERROR ibv_create_cq(cqe=256) failed: Connection timed out
[1739912162.648179] [ohm:469919:0]        ib_iface.c:1059 UCX  ERROR ibv_create_cq(cqe=256) failed: Connection timed out
[1739912162.658954] [ohm:470045:0]        ib_iface.c:1059 UCX  ERROR ibv_create_cq(cqe=256) failed: Connection timed out
[1739912162.660100] [ohm:470022:0]        ib_iface.c:1059 UCX  ERROR ibv_create_cq(cqe=256) failed: Connection timed out
[1739912162.664894] [ohm:469945:0]        ib_iface.c:1059 UCX  ERROR ibv_create_cq(cqe=256) failed: Connection timed out
[1739912162.667191] [ohm:470042:0]        ib_iface.c:1059 UCX  ERROR ibv_create_cq(cqe=256) failed: Connection timed out
[1739912162.671786] [ohm:469933:0]        ib_iface.c:1059 UCX  ERROR ibv_create_cq(cqe=256) failed: Connection timed out
[1739912162.672223] [ohm:469999:0]        ib_iface.c:1059 UCX  ERROR ibv_create_cq(cqe=256) failed: Connection timed out
[1739912162.677863] [ohm:469925:0]        ib_iface.c:1059 UCX  ERROR ibv_create_cq(cqe=256) failed: Connection timed out
[1739912162.682986] [ohm:470036:0]        ib_iface.c:1059 UCX  ERROR ibv_create_cq(cqe=256) failed: Connection timed out
[1739912162.683159] [ohm:469937:0]        ib_iface.c:1059 UCX  ERROR ibv_create_cq(cqe=256) failed: Connection timed out
[1739912162.686804] [ohm:469940:0]        ib_iface.c:1059 UCX  ERROR ibv_create_cq(cqe=256) failed: Connection timed out
[1739912162.687125] [ohm:470012:0]        ib_iface.c:1059 UCX  ERROR ibv_create_cq(cqe=256) failed: Connection timed out
[1739912162.688180] [ohm:469935:0]        ib_iface.c:1059 UCX  ERROR ibv_create_cq(cqe=256) failed: Connection timed out
[1739912162.689862] [ohm:469942:0]        ib_iface.c:1059 UCX  ERROR ibv_create_cq(cqe=256) failed: Connection timed out
[1739912162.690072] [ohm:470039:0]        ib_iface.c:1059 UCX  ERROR ibv_create_cq(cqe=256) failed: Connection timed out
[1739912162.690142] [ohm:470032:0]        ib_iface.c:1059 UCX  ERROR ibv_create_cq(cqe=256) failed: Connection timed out
[1739912162.690311] [ohm:469988:0]        ib_iface.c:1059 UCX  ERROR ibv_create_cq(cqe=256) failed: Connection timed out
[1739912162.690891] [ohm:469927:0]        ib_iface.c:1059 UCX  ERROR ibv_create_cq(cqe=256) failed: Connection timed out
[1739912162.691550] [ohm:469958:0]        ib_iface.c:1059 UCX  ERROR ibv_create_cq(cqe=256) failed: Connection timed out
[1739912162.691894] [ohm:470018:0]        ib_iface.c:1059 UCX  ERROR ibv_create_cq(cqe=256) failed: Connection timed out
[1739912162.693797] [ohm:469930:0]        ib_iface.c:1059 UCX  ERROR ibv_create_cq(cqe=256) failed: Connection timed out
[1739912162.695351] [ohm:470055:0]        ib_iface.c:1059 UCX  ERROR ibv_create_cq(cqe=256) failed: Connection timed out

--------------------------------
SUGGESTED CITATIONS FOR THIS RUN
--------------------------------

Below you find a list of papers that are relevant to this ORCA run
We neither can nor want to force you to cite these papers, but we appreciate if you do
You receive ORCA, which is the product of decades of hard work by many enthusiastic individuals, for free
The only thing we kindly ask in return is that you cite our papers,
We deeply appreciate it, if you show your appreciation for ORCA by not just citing the generic ORCA reference.

Please note that relegating all ORCA citations to the supporting information does *not* help us.
SI sections are not indexed - citations you put there will not count into any citation statistics
But we need these citations in order to attract the funding resources that allow us to do what we are doing

Therefore, if you are a happy ORCA user, please consider citing a few of the papers listed below in the main body of your paper

In addition to the list printed below, the program has created the file orca.bibtex that contains the list in bibtex format
You can import this file easily into all common literature databanks and citation aid programs


List of essential papers. We consider these as the minimum necessary citations

  1. Neese,F.
     Software update: the ORCA program system, version 5.0
     WIRES Comput. Molec. Sci., 2022 12(1)e1606
     doi.org/10.1002/wcms.1606

List of papers to cite with high priority. The work reported in these papers was absolutely
necessary for this run to complete.
Our perspective: the developers of density functionals and basis sets usually get cited in chemistry papers
Good! But without the algorithms to do something with them, the functionals or basis sets would not do anything.
Hence, in our opinion, the algorithm design and method developments papers are equally worthy of getting cited

  1. Neese,F.; Olbrich,G.
     Efficient use of the resolution of the identity approximation in time-dependent density functional calculations with hybrid density functionals
     Chem. Phys. Lett., 2002 362 170-178
     doi.org/10.1016/s0009-2614(02)01053-9
  2. Neese,F.
     An improvement of the resolution of the identity approximation for the formation of the Coulomb matrix
     J. Comp. Chem., 2003 24(14)1740-1747
     doi.org/10.1002/jcc.10318
  3. Neese,F.; Wennmohs,F.; Hansen,A.; Becker,U.
     Efficient, approximate and parallel Hartree-Fock and hybrid DFT calculations. A 'chain-of-spheres' algorithm for the Hartree-Fock exchange
     Chem. Phys., 2009 356(1-3)98-109
     doi.org/10.1016/j.chemphys.2008.10.036
  4. Petrenko,T.; Kossmann,S.; Neese,F.
     Efficient time-dependent density functional theory approximations for hybrid density functionals: Analytical gradients and parallelization
     J. Chem. Phys., 2011 134 054116
     doi.org/10.1063/1.3533441
  5. Helmich-Paris,B.; de Souza,B.; Neese,F.; Izsák,R.
     An improved chain of spheres for exchange algorithm
     J. Chem. Phys., 2021 155 104109
     doi.org/doi: 10.1063/5.0058766.
  6. Neese,F.
     The SHARK Integral Generation and Digestion System
     J. Comp. Chem., 2022  1-16
     doi.org/10.1002/jcc.26942
  7. Lehtola,S.; Steigemann,C.; Oliveira,M.; Marques,M.
     Recent developments in Libxc - A comprehensive library of functionals for density functional theory
     Software X, 2018 7 
     doi.org/10.1016/j.softx.2017.11.002
  8. Grimme,S.; Antony,J.; Ehrlich,S.; Krieg,H.
     A consistent and accurate ab initio parametrization of density functional dispersion correction (DFT-D) for the 94 elements H-Pu
     J. Chem. Phys., 2010 132 154104-XXXX
     doi.org/10.1063/1.3382344
  9. Grimme,S.; Ehrlich,S.; Goerigk,L.
     Effect of the damping function in dispersion corrected density functional theory
     J. Comput. Chem., 2011 32(7)1456-1465
     doi.org/10.1002/jcc.21759

List of suggested additional citations. These are papers that are important in the 'surrounding' of 
of this run, or papers that preceded the highly important papers. If you like your results we are grateful for a citation.

  1. Izsak,R.; Neese,F.
     An overlap fitted chain of spheres exchange method
     J. Chem. Phys., 2011 135 144105
     doi.org/10.1063/1.3646921
  2. Izsak,R.; Hansen,A.; Neese,F.
     The resolution of identity and chain of spheres approximations for the LPNO-CCSD singles Fock term
     Molec. Phys., 2012 110 2413-2417
     doi.org/10.1080/00268976.2012.687466
  3. Neese,F.
     The ORCA program system
     WIRES Comput. Molec. Sci., 2012 2(1)73-78
     doi.org/10.1002/wcms.81
  4. Izsak,R.; Neese,F.; Klopper,W.
     Robust fitting techniques in the chain of spheres approximation to the Fock exchange: The role of the complementary space
     J. Chem. Phys., 2013 139 
     doi.org/10.1063/1.4819264
  5. Neese,F.
     Software update: the ORCA program system, version 4.0
     WIRES Comput. Molec. Sci., 2018 8(1)1-6
     doi.org/10.1002/wcms.1327
  6. Neese,F.; Wennmohs,F.; Becker,U.; Riplinger,C.
     The ORCA quantum chemistry program package
     J. Chem. Phys., 2020 152 Art. No. L224108
     doi.org/10.1063/5.0004608

List of optional additional citations

  1. Neese,F.
     Approximate second-order SCF convergence for spin unrestricted wavefunctions
     Chem. Phys. Lett., 2000 325(1-3)93-98
     doi.org/10.1016/s0009-2614(00)00662-x

Timings for individual modules:

Sum of individual times          ...      287.900 sec (=   4.798 min)
Startup calculation              ...        6.308 sec (=   0.105 min)   2.2 %
SCF iterations                   ...      130.201 sec (=   2.170 min)  45.2 %
Property integrals               ...        4.324 sec (=   0.072 min)   1.5 %
Property calculations            ...        2.881 sec (=   0.048 min)   1.0 %
CIS module                       ...      144.185 sec (=   2.403 min)  50.1 %
                             ****ORCA TERMINATED NORMALLY****
TOTAL RUN TIME: 0 days 0 hours 4 minutes 50 seconds 49 msec
