
                                 *****************
                                 * O   R   C   A *
                                 *****************

                                            #,                                       
                                            ###                                      
                                            ####                                     
                                            #####                                    
                                            ######                                   
                                           ########,                                 
                                     ,,################,,,,,                         
                               ,,#################################,,                 
                          ,,##########################################,,             
                       ,#########################################, ''#####,          
                    ,#############################################,,   '####,        
                  ,##################################################,,,,####,       
                ,###########''''           ''''###############################       
              ,#####''   ,,,,##########,,,,          '''####'''          '####       
            ,##' ,,,,###########################,,,                        '##       
           ' ,,###''''                  '''############,,,                           
         ,,##''                                '''############,,,,        ,,,,,,###''
      ,#''                                            '''#######################'''  
     '                                                          ''''####''''         
             ,#######,   #######,   ,#######,      ##                                
            ,#'     '#,  ##    ##  ,#'     '#,    #''#        ,####,   ,####,        
            ##       ##  ##   ,#'  ##            #'  '#       #'       #'  '#        
            ##       ##  #######   ##           ,######,      #####,   #    #        
            '#,     ,#'  ##    ##  '#,     ,#' ,#      #,     #,   #   #,  ,#        
             '#######'   ##     ##  '#######'  #'      '#     '####' # '####'        



                #########################################################
                #                        -***-                          #
                #          Department of theory and spectroscopy        #
                #                                                       #
                #                      Frank Neese                      #
                #                                                       #
                #     Directorship, Architecture, Infrastructure        #
                #                    SHARK, DRIVERS                     #
                #        Core code/Algorithms in most modules           #
                #                                                       #
                #        Max Planck Institute fuer Kohlenforschung      #
                #                Kaiser Wilhelm Platz 1                 #
                #                 D-45470 Muelheim/Ruhr                 #
                #                      Germany                          #
                #                                                       #
                #                  All rights reserved                  #
                #                        -***-                          #
                #########################################################


                         Program Version 6.0.0  -   RELEASE  -


 With contributions from (in alphabetic order):
   Daniel Aravena         : Magnetic Suceptibility
   Michael Atanasov       : Ab Initio Ligand Field Theory (pilot matlab implementation)
   Alexander A. Auer      : GIAO ZORA, VPT2 properties, NMR spectrum
   Ute Becker             : All parallelization in ORCA, NUMFREQ, NUMCALC
   Giovanni Bistoni       : ED, misc. LED, open-shell LED, HFLD
   Martin Brehm           : Molecular dynamics
   Dmytro Bykov           : pre 5.0 version of the SCF Hessian
   Marcos Casanova-Páez   : Triplet and SCS-CIS(D). UHF-(DLPNO)-IP/EA/STEOM-CCSD. UHF-CVS-IP/STEOM-CCSD
   Vijay G. Chilkuri      : MRCI spin determinant printing, contributions to CSF-ICE
   Pauline Colinet        : FMM embedding
   Dipayan Datta          : RHF DLPNO-CCSD density
   Achintya Kumar Dutta   : EOM-CC, STEOM-CC
   Nicolas Foglia         : Exact transition moments, OPA infrastructure, MCD improvements
   Dmitry Ganyushin       : Spin-Orbit,Spin-Spin,Magnetic field MRCI
   Miquel Garcia          : C-PCM and meta-GGA Hessian, CCSD/C-PCM, Gaussian charge scheme
   Tiago L. C. Gouveia    : GS-ROHF, GS-ROCIS
   Yang Guo               : DLPNO-NEVPT2, F12-NEVPT2, CIM, IAO-localization
   Andreas Hansen         : Spin unrestricted coupled pair/coupled cluster methods
   Ingolf Harden          : AUTO-CI MPn and infrastructure 
   Benjamin Helmich-Paris : MC-RPA, TRAH-(SCF,CASSCF), AVAS, COSX integrals, SCF dyn. polar.
   Lee Huntington         : MR-EOM, pCC
   Robert Izsak           : Overlap fitted RIJCOSX, COSX-SCS-MP3, EOM
   Riya Kayal             : Wick's Theorem for AUTO-CI, AUTO-CI UHF-CCSDT
   Emily Kempfer          : AUTO-CI, RHF CISDT and CCSDT
   Christian Kollmar      : KDIIS, OOCD, Brueckner-CCSD(T), CCSD density, CASPT2, CASPT2-K, improved NEVPT2
   Axel Koslowski         : Symmetry handling
   Simone Kossmann        : Meta GGA functionals, TD-DFT gradient, OOMP2, (MP2 Hessian; deprecated post 5.0)
   Lucas Lang             : DCDCAS
   Marvin Lechner         : AUTO-CI (C++ implementation), FIC-MRCC
   Spencer Leger          : CASSCF response
   Dagmar Lenk            : GEPOL surface, SMD, ORCA-2-JSON
   Dimitrios Liakos       : Extrapolation schemes; Compound Job, initial MDCI parallelization
   Dimitrios Manganas     : Further ROCIS development; embedding schemes. LFT, Crystal Embedding
   Dimitrios Pantazis     : SARC Basis sets
   Anastasios Papadopoulos: AUTO-CI, single reference methods and gradients
   Taras Petrenko         : pre 6.0 DFT Hessian and TD-DFT gradient, (ASA, deprecated), ECA, 1-Electron XAS/XES, NRVS
   Peter Pinski           : DLPNO-MP2, DLPNO-MP2 Gradient
   Christoph Reimann      : Effective Core Potentials
   Marius Retegan         : Local ZFS, SOC
   Christoph Riplinger    : Optimizer, TS searches, QM/MM, DLPNO-CCSD(T), (RO)-DLPNO pert. Triples
   Michael Roemelt        : Original ROCIS implementation
   Masaaki Saitow         : Open-shell DLPNO-CCSD energy and density
   Barbara Sandhoefer     : DKH picture change effects
   Kantharuban Sivalingam : CASSCF convergence/infrastructure, NEVPT2 and variants, FIC-MRCI
   Bernardo de Souza      : ESD, SOC TD-DFT
   Georgi Stoychev        : AutoAux, RI-MP2 NMR, DLPNO-MP2 response, X2C
   Van Anh Tran           : RI-MP2 g-tensors
   Willem Van den Heuvel  : Paramagnetic NMR
   Zikuan Wang            : NOTCH, Electric field optimization 
   Frank Wennmohs         : Technical directorship and infrastructure
   Hang Xu                : AUTO-CI-Response properties 


 We gratefully acknowledge several colleagues who have allowed us to
 interface, adapt or use parts of their codes:
   Stefan Grimme, W. Hujo, H. Kruse, P. Pracht,  : VdW corrections, initial TS optimization,
                  C. Bannwarth, S. Ehlert,         DFT functionals, gCP, sTDA/sTD-DF
                  L. Wittmann, M. Mueller
   Ed Valeev, F. Pavosevic, A. Kumar             : LibInt (2-el integral package), F12 methods
   Garnet Chan, S. Sharma, J. Yang, R. Olivares  : DMRG
   Ulf Ekstrom                                   : XCFun DFT Library
   Mihaly Kallay                                 : mrcc  (arbitrary order and MRCC methods)
   Frank Weinhold                                : gennbo (NPA and NBO analysis)
   Simon Mueller                                 : openCOSMO-RS
   Christopher J. Cramer and Donald G. Truhlar   : smd solvation model
   Lars Goerigk                                  : TD-DFT with DH, B97 family of functionals
   V. Asgeirsson, H. Jonsson                     : NEB implementation
   FAccTs GmbH                                   : IRC, NEB, NEB-TS, DLPNO-Multilevel, CI-OPT
                                                   MM, QMMM, 2- and 3-layer-ONIOM, Crystal-QMMM,
                                                   LR-CPCM, SF, NACMEs, symmetry and pop. for TD-DFT,
                                                   nearIR, NL-DFT gradient (VV10), updates on ESD,
                                                   ML-optimized integration grids, MBIS, APM,
                                                   GOAT, DOCKER, SOLVATOR, interface openCOSMO-RS
   S Lehtola, MJT Oliveira, MAL Marques          : LibXC Library
   Liviu Ungur et al                             : ANISO software


 Your calculation uses the libint2 library for the computation of 2-el integrals
 For citations please refer to: http://libint.valeyev.net

 Your ORCA version has been built with support for libXC version: 6.2.2
 For citations please refer to: https://libxc.gitlab.io

 This ORCA versions uses:
   CBLAS   interface :  Fast vector & matrix operations
   LAPACKE interface :  Fast linear algebra routines
   SCALAPACK package :  Parallel linear algebra routines
   Shared memory     :  Shared parallel matrices
   BLAS/LAPACK       :  OpenBLAS 0.3.27  USE64BITINT DYNAMIC_ARCH NO_AFFINITY Zen SINGLE_THREADED
        Core in use  :  Zen
   Copyright (c) 2011-2014, The OpenBLAS Project


Your calculation utilizes the atom-pairwise dispersion correction
with the Becke-Johnson damping scheme (D3BJ)


Warning: RI is on but no J-basis has been assigned. Assigning Def2/J (nothing to worry about!)
================================================================================

----- Orbital basis set information -----
Your calculation utilizes the basis: def2-TZVPPD
   F. Weigend and R. Ahlrichs, Phys. Chem. Chem. Phys. 7, 3297 (2005).
   D. Rappoport and F. Furche, J. Chem. Phys. 133, 134105 (2010)
   D. Rappoport, J. Chem. Phys. 155, 124102 (2021).

----- AuxJ basis set information -----
Your calculation utilizes the auxiliary basis: def2/J
   F. Weigend, Phys. Chem. Chem. Phys. 8, 1057 (2006).

================================================================================
                                        WARNINGS
                       Please study these warnings very carefully!
================================================================================

Using LibXC functional ID 531 : wB97M-V exchange-correlation functional
[ 1]  N. Mardirossian and M. Head-Gordon.,  J. Chem. Phys. 144, 214110 (2016)
Using LibXC functional ID 531 : wB97M-V exchange-correlation functional
[ 1]  N. Mardirossian and M. Head-Gordon.,  J. Chem. Phys. 144, 214110 (2016)

WARNING: B97M-V or wB97M-V functional requested.
  ===> : libXC variant has now been activated.
         Any manually given DFX/HFX/RangeSep scaling parameters are IGNORED!

Your calculation utilizes LibXC
 by S Lehtola, C Steigemann, MJT Oliveira & MAL Marques
Please cite in your paper:
 S Lehtola, C Steigemann, MJT Oliveira & MAL Marques, SoftwareX, 7, (2018), 1.
   


WARNING: your system is open-shell and RHF/RKS was chosen
  ===> : WILL SWITCH to UHF/UKS

INFO   : Checking CIS options ...

WARNING: CIS/ROCIS methods need fully converged wavefunctions
  ===> : Setting SCFConvForced true
         You can overwrite this default with %scf ConvForced false 


================================================================================
                                       INPUT FILE
================================================================================
NAME = orca.inp
|  1> ! Engrad def2-TZVPPD wB97M-D3BJ 
|  2> %pal nprocs 8 end%pal nprocs 64 end 
|  3> %tddft 
|  4>  Iroot 2 Nroots 3 
|  5> sf true 
|  6> end 
|  7> *xyz 0 3 
|  8> O   3.33336162 0.81221855 -0.25915359
|  9> O   -0.88702382 0.50450889 -2.78673505
| 10> O   0.57947502 -2.76641077 -0.94577158
| 11> O   -3.55589226 -1.23391143 0.44717409
| 12> N   0.13960437 -1.44585813 0.80711247
| 13> N   -2.18676704 0.40790362 1.06016627
| 14> N   1.95499186 -0.90152448 -0.58478298
| 15> N   -2.03430623 -0.43337976 -1.08974342
| 16> C   1.55477022 0.53129893 1.36495907
| 17> C   -0.48477917 1.212977 -0.49935097
| 18> C   0.2410996 -0.15854627 1.50069297
| 19> C   -0.80343517 0.86520397 0.93254975
| 20> C   2.08574307 1.4294244 2.45249769
| 21> C   0.47760072 2.32335177 -0.90253391
| 22> C   2.36377271 0.20315718 0.16977278
| 23> C   -1.13778348 0.49814253 -1.55027868
| 24> C   0.86498716 -1.76110828 -0.33183171
| 25> C   -2.65641218 -0.50631426 0.12788624
| 26> H   0.05370462 -0.22433049 2.53354851
| 27> H   -0.72786106 1.71719236 1.58371721
| 28> H   1.36523276 2.08413943 2.97459614
| 29> H   2.72934016 0.94287294 3.15910617
| 30> H   2.84145054 2.09737962 2.04646868
| 31> H   -0.01207585 2.94403626 -1.5861521
| 32> H   0.75777442 2.94245527 -0.03276728
| 33> H   1.37833217 1.87365095 -1.27871078
| 34> H   -0.3136941 -2.32955338 1.08017181
| 35> H   -2.36908356 -0.04343628 2.01088427
| 36> H   2.4622147 -1.21064576 -1.37019527
| 37> H   -2.13097545 -1.2553852 -1.63277507
| 38> *
| 39> 
| 40>                          ****END OF INPUT****
================================================================================

                     *******************************
                     * Energy+Gradient Calculation *
                     *******************************

---------------------------------
CARTESIAN COORDINATES (ANGSTROEM)
---------------------------------
  O      3.333362    0.812219   -0.259154
  O     -0.887024    0.504509   -2.786735
  O      0.579475   -2.766411   -0.945772
  O     -3.555892   -1.233911    0.447174
  N      0.139604   -1.445858    0.807112
  N     -2.186767    0.407904    1.060166
  N      1.954992   -0.901524   -0.584783
  N     -2.034306   -0.433380   -1.089743
  C      1.554770    0.531299    1.364959
  C     -0.484779    1.212977   -0.499351
  C      0.241100   -0.158546    1.500693
  C     -0.803435    0.865204    0.932550
  C      2.085743    1.429424    2.452498
  C      0.477601    2.323352   -0.902534
  C      2.363773    0.203157    0.169773
  C     -1.137783    0.498143   -1.550279
  C      0.864987   -1.761108   -0.331832
  C     -2.656412   -0.506314    0.127886
  H      0.053705   -0.224330    2.533549
  H     -0.727861    1.717192    1.583717
  H      1.365233    2.084139    2.974596
  H      2.729340    0.942873    3.159106
  H      2.841451    2.097380    2.046469
  H     -0.012076    2.944036   -1.586152
  H      0.757774    2.942455   -0.032767
  H      1.378332    1.873651   -1.278711
  H     -0.313694   -2.329553    1.080172
  H     -2.369084   -0.043436    2.010884
  H      2.462215   -1.210646   -1.370195
  H     -2.130975   -1.255385   -1.632775

----------------------------
CARTESIAN COORDINATES (A.U.)
----------------------------
  NO LB      ZA    FRAG     MASS         X           Y           Z
   0 O     8.0000    0    15.999    6.299141    1.534871   -0.489729
   1 O     8.0000    0    15.999   -1.676232    0.953384   -5.266166
   2 O     8.0000    0    15.999    1.095049   -5.227759   -1.787249
   3 O     8.0000    0    15.999   -6.719663   -2.331755    0.845037
   4 N     7.0000    0    14.007    0.263814   -2.732276    1.525222
   5 N     7.0000    0    14.007   -4.132391    0.770826    2.003424
   6 N     7.0000    0    14.007    3.694399   -1.703634   -1.105080
   7 N     7.0000    0    14.007   -3.844282   -0.818969   -2.059317
   8 C     6.0000    0    12.011    2.938090    1.004009    2.579399
   9 C     6.0000    0    12.011   -0.916100    2.292194   -0.943637
  10 C     6.0000    0    12.011    0.455612   -0.299609    2.835899
  11 C     6.0000    0    12.011   -1.518272    1.634999    1.762264
  12 C     6.0000    0    12.011    3.941483    2.701221    4.634549
  13 C     6.0000    0    12.011    0.902535    4.390499   -1.705542
  14 C     6.0000    0    12.011    4.466883    0.383911    0.320824
  15 C     6.0000    0    12.011   -2.150099    0.941353   -2.929602
  16 C     6.0000    0    12.011    1.634589   -3.328012   -0.627071
  17 C     6.0000    0    12.011   -5.019892   -0.956795    0.241670
  18 H     1.0000    0     1.008    0.101487   -0.423923    4.787713
  19 H     1.0000    0     1.008   -1.375458    3.245023    2.992792
  20 H     1.0000    0     1.008    2.579916    3.938453    5.621172
  21 H     1.0000    0     1.008    5.157705    1.781772    5.969845
  22 H     1.0000    0     1.008    5.369563    3.963473    3.867265
  23 H     1.0000    0     1.008   -0.022820    5.563422   -2.997393
  24 H     1.0000    0     1.008    1.431986    5.560435   -0.061921
  25 H     1.0000    0     1.008    2.604670    3.540687   -2.416413
  26 H     1.0000    0     1.008   -0.592796   -4.402218    2.041229
  27 H     1.0000    0     1.008   -4.476919   -0.082083    3.800021
  28 H     1.0000    0     1.008    4.652911   -2.287789   -2.589294
  29 H     1.0000    0     1.008   -4.026960   -2.372334   -3.085498

--------------------------------
INTERNAL COORDINATES (ANGSTROEM)
--------------------------------
 O      0   0   0     0.000000000000     0.00000000     0.00000000
 O      1   0   0     4.928996503748     0.00000000     0.00000000
 O      2   1   0     4.029724651607    60.31715173     0.00000000
 O      2   1   3     4.539067336446    99.32346916    54.10755683
 N      3   2   1     2.238291302866    78.89348795    64.60930321
 N      4   2   1     2.223919948916    63.36251266    43.30054435
 N      1   2   3     2.223252767408    49.15029277   358.87124096
 N      2   1   3     2.252925351711    94.34487925    51.92622742
 C      1   2   3     2.424880436934    73.03401936   289.51514389
 C      8   2   1     2.336683105577    63.85212165    37.72592746
 C      5   3   2     1.465785460628   151.05711667   309.63550108
 C      6   4   2     1.462537742708   142.09944005   314.41391497
 C      9   1   2     1.507083865381    98.96684101   217.01462723
 C     10   8   2     1.523700648302   149.93148031     9.99000812
 C      1   2   3     1.222716744673    57.98198388   316.97940532
 C      2   1   3     1.261643884992    70.60593061    74.78601321
 C      3   2   1     1.212052986657    69.13859947    31.85335148
 C      4   2   1     1.200169482726    30.41373712    36.14051399
 H     11   5   3     1.051777071740   113.41576086   199.19533443
 H     12   6   4     1.074995220343   105.15618298   186.56190772
 H     13   9   1     1.104705240694   117.67431972   138.37268592
 H     13   9   1     1.072494793224   114.61408288   270.71716103
 H     13   9   1     1.087252276659   109.96904458    17.72183865
 H     14  10   8     1.045163245160   108.05471870    46.85707436
 H     14  10   8     1.103757417436   111.13484891   164.61288044
 H     14  10   8     1.074735786159   108.48402967   282.37745757
 H      5   3   2     1.030028252495    77.75621211   130.00645016
 H      6   4   2     1.068087886984    80.11327878   201.48576146
 H      7   1   2     0.984735213369    92.26086989    92.89993259
 H      8   2   1     0.989909720321    88.98094804   245.20467802

---------------------------
INTERNAL COORDINATES (A.U.)
---------------------------
 O      0   0   0     0.000000000000     0.00000000     0.00000000
 O      1   0   0     9.314453507139     0.00000000     0.00000000
 O      2   1   0     7.615075986649    60.31715173     0.00000000
 O      2   1   3     8.577594169311    99.32346916    54.10755683
 N      3   2   1     4.229757570355    78.89348795    64.60930321
 N      4   2   1     4.202599647216    63.36251266    43.30054435
 N      1   2   3     4.201338856884    49.15029277   358.87124096
 N      2   1   3     4.257411914903    94.34487925    51.92622742
 C      1   2   3     4.582359933309    73.03401936   289.51514389
 C      8   2   1     4.415691131300    63.85212165    37.72592746
 C      5   3   2     2.769933091671   151.05711667   309.63550108
 C      6   4   2     2.763795794241   142.09944005   314.41391497
 C      9   1   2     2.847975766421    98.96684101   217.01462723
 C     10   8   2     2.879376935369   149.93148031     9.99000812
 C      1   2   3     2.310599786791    57.98198388   316.97940532
 C      2   1   3     2.384161421170    70.60593061    74.78601321
 C      3   2   1     2.290448204582    69.13859947    31.85335148
 C      4   2   1     2.267991636642    30.41373712    36.14051399
 H     11   5   3     1.987570619527   113.41576086   199.19533443
 H     12   6   4     2.031446561722   105.15618298   186.56190772
 H     13   9   1     2.087590363619   117.67431972   138.37268592
 H     13   9   1     2.026721439250   114.61408288   270.71716103
 H     13   9   1     2.054609041368   109.96904458    17.72183865
 H     14  10   8     1.975072298592   108.05471870    46.85707436
 H     14  10   8     2.085799237239   111.13484891   164.61288044
 H     14  10   8     2.030956302165   108.48402967   282.37745757
 H      5   3   2     1.946471307417    77.75621211   130.00645016
 H      6   4   2     2.018393593357    80.11327878   201.48576146
 H      7   1   2     1.860879867697    92.26086989    92.89993259
 H      8   2   1     1.870658268714    88.98094804   245.20467802

---------------------
BASIS SET INFORMATION
---------------------
There are 4 groups of distinct atoms

 Group   1 Type O   : 12s7p3d1f contracted to 6s4p3d1f pattern {621111/4111/111/1}
 Group   2 Type N   : 12s6p3d1f contracted to 6s3p3d1f pattern {621111/411/111/1}
 Group   3 Type C   : 12s6p3d1f contracted to 6s3p3d1f pattern {621111/411/111/1}
 Group   4 Type H   : 5s3p1d contracted to 3s3p1d pattern {311/111/1}

Atom   0O    basis set group =>   1
Atom   1O    basis set group =>   1
Atom   2O    basis set group =>   1
Atom   3O    basis set group =>   1
Atom   4N    basis set group =>   2
Atom   5N    basis set group =>   2
Atom   6N    basis set group =>   2
Atom   7N    basis set group =>   2
Atom   8C    basis set group =>   3
Atom   9C    basis set group =>   3
Atom  10C    basis set group =>   3
Atom  11C    basis set group =>   3
Atom  12C    basis set group =>   3
Atom  13C    basis set group =>   3
Atom  14C    basis set group =>   3
Atom  15C    basis set group =>   3
Atom  16C    basis set group =>   3
Atom  17C    basis set group =>   3
Atom  18H    basis set group =>   4
Atom  19H    basis set group =>   4
Atom  20H    basis set group =>   4
Atom  21H    basis set group =>   4
Atom  22H    basis set group =>   4
Atom  23H    basis set group =>   4
Atom  24H    basis set group =>   4
Atom  25H    basis set group =>   4
Atom  26H    basis set group =>   4
Atom  27H    basis set group =>   4
Atom  28H    basis set group =>   4
Atom  29H    basis set group =>   4
---------------------------------
AUXILIARY/J BASIS SET INFORMATION
---------------------------------
There are 4 groups of distinct atoms

 Group   1 Type O   : 12s5p4d2f1g contracted to 6s4p3d1f1g pattern {711111/2111/211/2/1}
 Group   2 Type N   : 12s5p4d2f1g contracted to 6s4p3d1f1g pattern {711111/2111/211/2/1}
 Group   3 Type C   : 12s5p4d2f1g contracted to 6s4p3d1f1g pattern {711111/2111/211/2/1}
 Group   4 Type H   : 5s2p1d contracted to 3s1p1d pattern {311/2/1}

Atom   0O    basis set group =>   1
Atom   1O    basis set group =>   1
Atom   2O    basis set group =>   1
Atom   3O    basis set group =>   1
Atom   4N    basis set group =>   2
Atom   5N    basis set group =>   2
Atom   6N    basis set group =>   2
Atom   7N    basis set group =>   2
Atom   8C    basis set group =>   3
Atom   9C    basis set group =>   3
Atom  10C    basis set group =>   3
Atom  11C    basis set group =>   3
Atom  12C    basis set group =>   3
Atom  13C    basis set group =>   3
Atom  14C    basis set group =>   3
Atom  15C    basis set group =>   3
Atom  16C    basis set group =>   3
Atom  17C    basis set group =>   3
Atom  18H    basis set group =>   4
Atom  19H    basis set group =>   4
Atom  20H    basis set group =>   4
Atom  21H    basis set group =>   4
Atom  22H    basis set group =>   4
Atom  23H    basis set group =>   4
Atom  24H    basis set group =>   4
Atom  25H    basis set group =>   4
Atom  26H    basis set group =>   4
Atom  27H    basis set group =>   4
Atom  28H    basis set group =>   4
Atom  29H    basis set group =>   4
[1741413094.751311] [ohm:1580052:0]        ib_iface.c:1059 UCX  ERROR ibv_create_cq(cqe=256) failed: Connection timed out
[1741413094.774479] [ohm:1580066:0]        ib_iface.c:1059 UCX  ERROR ibv_create_cq(cqe=256) failed: Connection timed out
[1741413094.774676] [ohm:1580062:0]        ib_iface.c:1059 UCX  ERROR ibv_create_cq(cqe=256) failed: Connection timed out
[1741413094.777458] [ohm:1580057:0]        ib_iface.c:1059 UCX  ERROR ibv_create_cq(cqe=256) failed: Connection timed out
[1741413094.785867] [ohm:1580059:0]        ib_iface.c:1059 UCX  ERROR ibv_create_cq(cqe=256) failed: Connection timed out
[1741413094.808791] [ohm:1580075:0]        ib_iface.c:1059 UCX  ERROR ibv_create_cq(cqe=256) failed: Connection timed out
[1741413094.820948] [ohm:1580067:0]        ib_iface.c:1059 UCX  ERROR ibv_create_cq(cqe=256) failed: Connection timed out
[1741413094.822189] [ohm:1580116:0]        ib_iface.c:1059 UCX  ERROR ibv_create_cq(cqe=256) failed: Connection timed out
[1741413094.829757] [ohm:1580065:0]        ib_iface.c:1059 UCX  ERROR ibv_create_cq(cqe=256) failed: Connection timed out
[1741413094.833322] [ohm:1580060:0]        ib_iface.c:1059 UCX  ERROR ibv_create_cq(cqe=256) failed: Connection timed out
[1741413094.900503] [ohm:1580093:0]        ib_iface.c:1059 UCX  ERROR ibv_create_cq(cqe=256) failed: Connection timed out
[1741413094.906043] [ohm:1580081:0]        ib_iface.c:1059 UCX  ERROR ibv_create_cq(cqe=256) failed: Connection timed out
[1741413094.911549] [ohm:1580078:0]        ib_iface.c:1059 UCX  ERROR ibv_create_cq(cqe=256) failed: Connection timed out
[1741413094.920966] [ohm:1580125:0]        ib_iface.c:1059 UCX  ERROR ibv_create_cq(cqe=256) failed: Connection timed out
[1741413094.928567] [ohm:1580063:0]        ib_iface.c:1059 UCX  ERROR ibv_create_cq(cqe=256) failed: Connection timed out
[1741413094.931781] [ohm:1580068:0]        ib_iface.c:1059 UCX  ERROR ibv_create_cq(cqe=256) failed: Connection timed out
[1741413094.934830] [ohm:1580072:0]        ib_iface.c:1059 UCX  ERROR ibv_create_cq(cqe=256) failed: Connection timed out
[1741413094.956030] [ohm:1580069:0]        ib_iface.c:1059 UCX  ERROR ibv_create_cq(cqe=256) failed: Connection timed out
[1741413094.978623] [ohm:1580070:0]        ib_iface.c:1059 UCX  ERROR ibv_create_cq(cqe=256) failed: Connection timed out
[1741413094.989990] [ohm:1580088:0]        ib_iface.c:1059 UCX  ERROR ibv_create_cq(cqe=256) failed: Connection timed out
[1741413094.998610] [ohm:1580061:0]        ib_iface.c:1059 UCX  ERROR ibv_create_cq(cqe=256) failed: Connection timed out
[1741413095.006666] [ohm:1580079:0]        ib_iface.c:1059 UCX  ERROR ibv_create_cq(cqe=256) failed: Connection timed out
[1741413095.009626] [ohm:1580160:0]        ib_iface.c:1059 UCX  ERROR ibv_create_cq(cqe=256) failed: Connection timed out
[1741413095.009955] [ohm:1580142:0]        ib_iface.c:1059 UCX  ERROR ibv_create_cq(cqe=256) failed: Connection timed out
[1741413095.015859] [ohm:1580077:0]        ib_iface.c:1059 UCX  ERROR ibv_create_cq(cqe=256) failed: Connection timed out
[1741413095.016283] [ohm:1580182:0]        ib_iface.c:1059 UCX  ERROR ibv_create_cq(cqe=256) failed: Connection timed out
[1741413095.016814] [ohm:1580190:0]        ib_iface.c:1059 UCX  ERROR ibv_create_cq(cqe=256) failed: Connection timed out
[1741413095.019383] [ohm:1580076:0]        ib_iface.c:1059 UCX  ERROR ibv_create_cq(cqe=256) failed: Connection timed out
[1741413095.019959] [ohm:1580136:0]        ib_iface.c:1059 UCX  ERROR ibv_create_cq(cqe=256) failed: Connection timed out
[1741413095.036277] [ohm:1580193:0]        ib_iface.c:1059 UCX  ERROR ibv_create_cq(cqe=256) failed: Connection timed out
[1741413095.037911] [ohm:1580074:0]        ib_iface.c:1059 UCX  ERROR ibv_create_cq(cqe=256) failed: Connection timed out
[1741413095.044236] [ohm:1580105:0]        ib_iface.c:1059 UCX  ERROR ibv_create_cq(cqe=256) failed: Connection timed out
[1741413095.049769] [ohm:1580154:0]        ib_iface.c:1059 UCX  ERROR ibv_create_cq(cqe=256) failed: Connection timed out
[1741413095.053963] [ohm:1580056:0]        ib_iface.c:1059 UCX  ERROR ibv_create_cq(cqe=256) failed: Connection timed out
[1741413095.054022] [ohm:1580053:0]        ib_iface.c:1059 UCX  ERROR ibv_create_cq(cqe=256) failed: Connection timed out
[1741413095.058713] [ohm:1580198:0]        ib_iface.c:1059 UCX  ERROR ibv_create_cq(cqe=256) failed: Connection timed out
[1741413095.062973] [ohm:1580080:0]        ib_iface.c:1059 UCX  ERROR ibv_create_cq(cqe=256) failed: Connection timed out
[1741413095.077285] [ohm:1580156:0]        ib_iface.c:1059 UCX  ERROR ibv_create_cq(cqe=256) failed: Connection timed out
[1741413095.080586] [ohm:1580163:0]        ib_iface.c:1059 UCX  ERROR ibv_create_cq(cqe=256) failed: Connection timed out
[1741413095.082220] [ohm:1580168:0]        ib_iface.c:1059 UCX  ERROR ibv_create_cq(cqe=256) failed: Connection timed out
[1741413095.082468] [ohm:1580146:0]        ib_iface.c:1059 UCX  ERROR ibv_create_cq(cqe=256) failed: Connection timed out
[1741413095.089144] [ohm:1580172:0]        ib_iface.c:1059 UCX  ERROR ibv_create_cq(cqe=256) failed: Connection timed out
[1741413095.104162] [ohm:1580109:0]        ib_iface.c:1059 UCX  ERROR ibv_create_cq(cqe=256) failed: Connection timed out
[1741413095.111997] [ohm:1580101:0]        ib_iface.c:1059 UCX  ERROR ibv_create_cq(cqe=256) failed: Connection timed out
[1741413095.113806] [ohm:1580176:0]        ib_iface.c:1059 UCX  ERROR ibv_create_cq(cqe=256) failed: Connection timed out
[1741413095.113803] [ohm:1580185:0]        ib_iface.c:1059 UCX  ERROR ibv_create_cq(cqe=256) failed: Connection timed out
[1741413095.120757] [ohm:1580139:0]        ib_iface.c:1059 UCX  ERROR ibv_create_cq(cqe=256) failed: Connection timed out
[1741413095.122916] [ohm:1580178:0]        ib_iface.c:1059 UCX  ERROR ibv_create_cq(cqe=256) failed: Connection timed out
[1741413095.122903] [ohm:1580128:0]        ib_iface.c:1059 UCX  ERROR ibv_create_cq(cqe=256) failed: Connection timed out
[1741413095.125662] [ohm:1580054:0]        ib_iface.c:1059 UCX  ERROR ibv_create_cq(cqe=256) failed: Connection timed out
[1741413095.129220] [ohm:1580099:0]        ib_iface.c:1059 UCX  ERROR ibv_create_cq(cqe=256) failed: Connection timed out
[1741413095.129446] [ohm:1580120:0]        ib_iface.c:1059 UCX  ERROR ibv_create_cq(cqe=256) failed: Connection timed out
[1741413095.132357] [ohm:1580112:0]        ib_iface.c:1059 UCX  ERROR ibv_create_cq(cqe=256) failed: Connection timed out
[1741413095.135230] [ohm:1580144:0]        ib_iface.c:1059 UCX  ERROR ibv_create_cq(cqe=256) failed: Connection timed out
[1741413095.135544] [ohm:1580055:0]        ib_iface.c:1059 UCX  ERROR ibv_create_cq(cqe=256) failed: Connection timed out
[1741413095.139524] [ohm:1580089:0]        ib_iface.c:1059 UCX  ERROR ibv_create_cq(cqe=256) failed: Connection timed out
[1741413095.141698] [ohm:1580148:0]        ib_iface.c:1059 UCX  ERROR ibv_create_cq(cqe=256) failed: Connection timed out
[1741413095.141956] [ohm:1580167:0]        ib_iface.c:1059 UCX  ERROR ibv_create_cq(cqe=256) failed: Connection timed out
[1741413095.143185] [ohm:1580195:0]        ib_iface.c:1059 UCX  ERROR ibv_create_cq(cqe=256) failed: Connection timed out
[1741413095.143590] [ohm:1580082:0]        ib_iface.c:1059 UCX  ERROR ibv_create_cq(cqe=256) failed: Connection timed out
[1741413095.144108] [ohm:1580058:0]        ib_iface.c:1059 UCX  ERROR ibv_create_cq(cqe=256) failed: Connection timed out
[1741413095.144899] [ohm:1580071:0]        ib_iface.c:1059 UCX  ERROR ibv_create_cq(cqe=256) failed: Connection timed out
[1741413095.145157] [ohm:1580064:0]        ib_iface.c:1059 UCX  ERROR ibv_create_cq(cqe=256) failed: Connection timed out
[1741413095.146109] [ohm:1580111:0]        ib_iface.c:1059 UCX  ERROR ibv_create_cq(cqe=256) failed: Connection timed out


           ************************************************************
           *        Program running with 64 parallel MPI-processes    *
           *              working on a common directory               *
           ************************************************************
------------------------------------------------------------------------------
                             ORCA STARTUP CALCULATIONS
                           -- RI-GTO INTEGRALS CHOSEN --
------------------------------------------------------------------------------
------------------------------------------------------------------------------
                   ___                                                        
                  /   \      - P O W E R E D   B Y -                         
                 /     \                                                     
                 |  |  |   _    _      __       _____    __    __             
                 |  |  |  | |  | |    /  \     |  _  \  |  |  /  |          
                  \  \/   | |  | |   /    \    | | | |  |  | /  /          
                 / \  \   | |__| |  /  /\  \   | |_| |  |  |/  /          
                |  |  |   |  __  | /  /__\  \  |    /   |      \           
                |  |  |   | |  | | |   __   |  |    \   |  |\   \          
                \     /   | |  | | |  |  |  |  | |\  \  |  | \   \       
                 \___/    |_|  |_| |__|  |__|  |_| \__\ |__|  \__/        
                                                                              
                      - O R C A' S   B I G   F R I E N D -                    
                                      &                                       
                       - I N T E G R A L  F E E D E R -                       
                                                                              
 v1 FN, 2020, v2 2021, v3 2022-2024                                           
------------------------------------------------------------------------------


----------------------
SHARK INTEGRAL PACKAGE
----------------------

Number of atoms                             ...     30
Number of basis functions                   ...    882
Number of shells                            ...    322
Maximum angular momentum                    ...      3
Integral batch strategy                     ... SHARK/LIBINT Hybrid
RI-J (if used) integral strategy            ... SPLIT-RIJ (Revised 2003 algorithm where possible)
Printlevel                                  ...      1
Contraction scheme used                     ... SEGMENTED contraction
Prescreening option                         ... SCHWARTZ
   Thresh                                   ... 2.500e-11
   Tcut                                     ... 2.500e-12
   Tpresel                                  ... 2.500e-12 
Coulomb Range Separation                    ... NOT USED
Exchange Range Separation                   ... Long Range
   Mu parameter                             ... 3.000e-01
   Scaling (regular/separated)              ... 1.500e-01 8.500e-01
Multipole approximations                    ... NOT USED
Finite Nucleus Model                        ... NOT USED
CABS basis                                  ... NOT available
Auxiliary Coulomb fitting basis             ... AVAILABLE
   # of basis functions in Aux-J            ...   1014
   # of shells in Aux-J                     ...    330
   Maximum angular momentum in Aux-J        ...      4
Auxiliary J/K fitting basis                 ... NOT available
Auxiliary Correlation fitting basis         ... NOT available
Auxiliary 'external' fitting basis          ... NOT available

Checking pre-screening integrals            ... done (  0.0 sec) Dimension = 322
Check shell pair data                       ... done (  0.0 sec)
Shell pair information
Shell pair cut-off parameter TPreSel        ...   2.5e-12
Total number of shell pairs                 ...     52003
Shell pairs after pre-screening             ...     45251
Total number of primitive shell pairs       ...    129718
Primitive shell pairs kept                  ...     84738
          la=0 lb=0:   8758 shell pairs
          la=1 lb=0:  11972 shell pairs
          la=1 lb=1:   4131 shell pairs
          la=2 lb=0:   8125 shell pairs
          la=2 lb=1:   5619 shell pairs
          la=2 lb=2:   1947 shell pairs
          la=3 lb=0:   2085 shell pairs
          la=3 lb=1:   1473 shell pairs
          la=3 lb=2:    998 shell pairs
          la=3 lb=3:    143 shell pairs

Calculating one electron integrals          ... done (  0.2 sec)
Calculating RI/J V-Matrix + Cholesky decomp.... done (  0.1 sec)
Calculating Nuclear repulsion               ... done (  0.0 sec) ENN=   1452.552171604406 Eh

Diagonalization of the overlap matrix:
Smallest eigenvalue                        ... 5.487e-07
Time for diagonalization                   ...    0.125 sec
Threshold for overlap eigenvalues          ... 1.000e-07
Number of eigenvalues below threshold      ... 0

IMPORTANT:
Smallest eigenvalue of S below the DiffSThresh (1.000e-06) while
Thresh>1e-12 and/or TCut>1e-13! In order to avoid SCF convergence issues,
Thresh will be set to at least 1e-12 and TCut to at least 1e-13.
This can be turned off by adding %SCF DiffSThresh -1 END to the input.

Time for construction of square roots      ...    0.131 sec
Total time needed                          ...    0.272 sec

-------------------
DFT GRID GENERATION
-------------------

General Integration Accuracy     IntAcc      ... 4.388
Radial Grid Type                 RadialGrid  ... OptM3 with GC (2021)
Angular Grid (max. ang.)         AngularGrid ... 4 (Lebedev-302)
Angular grid pruning method      GridPruning ... 4 (adaptive)
Weight generation scheme         WeightScheme... mBecke (2022)
Basis function cutoff            BFCut       ... 1.0000e-11
Integration weight cutoff        WCut        ... 1.0000e-14
Partially contracted basis set               ... off
Rotationally invariant grid construction     ... off
Angular grids for H and He will be reduced by one unit
Diffuse basis detected: some atoms will have their outermost
                        angular grid increased by 1.

Total number of grid points                  ...   151865
Total number of batches                      ...     2389
Average number of points per batch           ...       63
Average number of grid points per atom       ...     5062

--------------------
COSX GRID GENERATION
--------------------

GRIDX 1
-------
General Integration Accuracy     IntAcc      ... 3.816
Radial Grid Type                 RadialGrid  ... OptM3 with GC (2021)
Angular Grid (max. ang.)         AngularGrid ... 1 (Lebedev-50)
Angular grid pruning method      GridPruning ... 4 (adaptive)
Weight generation scheme         WeightScheme... mBecke (2022)
Basis function cutoff            BFCut       ... 1.0000e-11
Integration weight cutoff        WCut        ... 1.0000e-14
Partially contracted basis set               ... on
Rotationally invariant grid construction     ... off
Angular grids for H and He will be reduced by one unit
Diffuse basis detected: some atoms will have their outermost
                        angular grid increased by 1.

Total number of grid points                  ...    19043
Total number of batches                      ...      166
Average number of points per batch           ...      114
Average number of grid points per atom       ...      635
UseSFitting                                  ... on

GRIDX 2
-------
General Integration Accuracy     IntAcc      ... 4.020
Radial Grid Type                 RadialGrid  ... OptM3 with GC (2021)
Angular Grid (max. ang.)         AngularGrid ... 2 (Lebedev-110)
Angular grid pruning method      GridPruning ... 4 (adaptive)
Weight generation scheme         WeightScheme... mBecke (2022)
Basis function cutoff            BFCut       ... 1.0000e-11
Integration weight cutoff        WCut        ... 1.0000e-14
Partially contracted basis set               ... on
Rotationally invariant grid construction     ... off
Angular grids for H and He will be reduced by one unit
Diffuse basis detected: some atoms will have their outermost
                        angular grid increased by 1.

Total number of grid points                  ...    45845
Total number of batches                      ...      374
Average number of points per batch           ...      122
Average number of grid points per atom       ...     1528
UseSFitting                                  ... on

GRIDX 3
-------
General Integration Accuracy     IntAcc      ... 4.338
Radial Grid Type                 RadialGrid  ... OptM3 with GC (2021)
Angular Grid (max. ang.)         AngularGrid ... 3 (Lebedev-194)
Angular grid pruning method      GridPruning ... 4 (adaptive)
Weight generation scheme         WeightScheme... mBecke (2022)
Basis function cutoff            BFCut       ... 1.0000e-11
Integration weight cutoff        WCut        ... 1.0000e-14
Partially contracted basis set               ... on
Rotationally invariant grid construction     ... off
Angular grids for H and He will be reduced by one unit
Diffuse basis detected: some atoms will have their outermost
                        angular grid increased by 1.

Total number of grid points                  ...   100866
Total number of batches                      ...      804
Average number of points per batch           ...      125
Average number of grid points per atom       ...     3362
UseSFitting                                  ... on
Initializing property integral containers    ... done (  0.0 sec)

SHARK setup successfully completed in   4.2 seconds

Maximum memory used throughout the entire STARTUP-calculation: 80.4 MB
[1741413101.129276] [ohm:1580425:0]        ib_iface.c:1059 UCX  ERROR ibv_create_cq(cqe=256) failed: Connection timed out
[1741413101.132887] [ohm:1580430:0]        ib_iface.c:1059 UCX  ERROR ibv_create_cq(cqe=256) failed: Connection timed out
[1741413101.158563] [ohm:1580422:0]        ib_iface.c:1059 UCX  ERROR ibv_create_cq(cqe=256) failed: Connection timed out
[1741413101.188196] [ohm:1580431:0]        ib_iface.c:1059 UCX  ERROR ibv_create_cq(cqe=256) failed: Connection timed out
[1741413101.197005] [ohm:1580424:0]        ib_iface.c:1059 UCX  ERROR ibv_create_cq(cqe=256) failed: Connection timed out
[1741413101.199333] [ohm:1580426:0]        ib_iface.c:1059 UCX  ERROR ibv_create_cq(cqe=256) failed: Connection timed out
[1741413101.213545] [ohm:1580437:0]        ib_iface.c:1059 UCX  ERROR ibv_create_cq(cqe=256) failed: Connection timed out
[1741413101.221889] [ohm:1580428:0]        ib_iface.c:1059 UCX  ERROR ibv_create_cq(cqe=256) failed: Connection timed out
[1741413101.222622] [ohm:1580446:0]        ib_iface.c:1059 UCX  ERROR ibv_create_cq(cqe=256) failed: Connection timed out
[1741413101.222599] [ohm:1580440:0]        ib_iface.c:1059 UCX  ERROR ibv_create_cq(cqe=256) failed: Connection timed out
[1741413101.254883] [ohm:1580429:0]        ib_iface.c:1059 UCX  ERROR ibv_create_cq(cqe=256) failed: Connection timed out
[1741413101.255310] [ohm:1580423:0]        ib_iface.c:1059 UCX  ERROR ibv_create_cq(cqe=256) failed: Connection timed out
[1741413101.260237] [ohm:1580436:0]        ib_iface.c:1059 UCX  ERROR ibv_create_cq(cqe=256) failed: Connection timed out
[1741413101.264252] [ohm:1580472:0]        ib_iface.c:1059 UCX  ERROR ibv_create_cq(cqe=256) failed: Connection timed out
[1741413101.266585] [ohm:1580461:0]        ib_iface.c:1059 UCX  ERROR ibv_create_cq(cqe=256) failed: Connection timed out
[1741413101.282174] [ohm:1580450:0]        ib_iface.c:1059 UCX  ERROR ibv_create_cq(cqe=256) failed: Connection timed out
[1741413101.285199] [ohm:1580552:0]        ib_iface.c:1059 UCX  ERROR ibv_create_cq(cqe=256) failed: Connection timed out
[1741413101.318635] [ohm:1580491:0]        ib_iface.c:1059 UCX  ERROR ibv_create_cq(cqe=256) failed: Connection timed out
[1741413101.321494] [ohm:1580549:0]        ib_iface.c:1059 UCX  ERROR ibv_create_cq(cqe=256) failed: Connection timed out
[1741413101.324432] [ohm:1580487:0]        ib_iface.c:1059 UCX  ERROR ibv_create_cq(cqe=256) failed: Connection timed out
[1741413101.324500] [ohm:1580516:0]        ib_iface.c:1059 UCX  ERROR ibv_create_cq(cqe=256) failed: Connection timed out
[1741413101.337069] [ohm:1580449:0]        ib_iface.c:1059 UCX  ERROR ibv_create_cq(cqe=256) failed: Connection timed out
[1741413101.340359] [ohm:1580432:0]        ib_iface.c:1059 UCX  ERROR ibv_create_cq(cqe=256) failed: Connection timed out
[1741413101.341246] [ohm:1580441:0]        ib_iface.c:1059 UCX  ERROR ibv_create_cq(cqe=256) failed: Connection timed out
[1741413101.345445] [ohm:1580447:0]        ib_iface.c:1059 UCX  ERROR ibv_create_cq(cqe=256) failed: Connection timed out
[1741413101.349290] [ohm:1580513:0]        ib_iface.c:1059 UCX  ERROR ibv_create_cq(cqe=256) failed: Connection timed out
[1741413101.365345] [ohm:1580467:0]        ib_iface.c:1059 UCX  ERROR ibv_create_cq(cqe=256) failed: Connection timed out
[1741413101.369831] [ohm:1580454:0]        ib_iface.c:1059 UCX  ERROR ibv_create_cq(cqe=256) failed: Connection timed out
[1741413101.381430] [ohm:1580435:0]        ib_iface.c:1059 UCX  ERROR ibv_create_cq(cqe=256) failed: Connection timed out
[1741413101.381967] [ohm:1580482:0]        ib_iface.c:1059 UCX  ERROR ibv_create_cq(cqe=256) failed: Connection timed out
[1741413101.387764] [ohm:1580502:0]        ib_iface.c:1059 UCX  ERROR ibv_create_cq(cqe=256) failed: Connection timed out
[1741413101.388797] [ohm:1580529:0]        ib_iface.c:1059 UCX  ERROR ibv_create_cq(cqe=256) failed: Connection timed out
[1741413101.398741] [ohm:1580448:0]        ib_iface.c:1059 UCX  ERROR ibv_create_cq(cqe=256) failed: Connection timed out
[1741413101.419369] [ohm:1580538:0]        ib_iface.c:1059 UCX  ERROR ibv_create_cq(cqe=256) failed: Connection timed out
[1741413101.420758] [ohm:1580459:0]        ib_iface.c:1059 UCX  ERROR ibv_create_cq(cqe=256) failed: Connection timed out
[1741413101.420897] [ohm:1580510:0]        ib_iface.c:1059 UCX  ERROR ibv_create_cq(cqe=256) failed: Connection timed out
[1741413101.430182] [ohm:1580541:0]        ib_iface.c:1059 UCX  ERROR ibv_create_cq(cqe=256) failed: Connection timed out
[1741413101.433584] [ohm:1580477:0]        ib_iface.c:1059 UCX  ERROR ibv_create_cq(cqe=256) failed: Connection timed out
[1741413101.435529] [ohm:1580451:0]        ib_iface.c:1059 UCX  ERROR ibv_create_cq(cqe=256) failed: Connection timed out
[1741413101.436735] [ohm:1580569:0]        ib_iface.c:1059 UCX  ERROR ibv_create_cq(cqe=256) failed: Connection timed out
[1741413101.449760] [ohm:1580556:0]        ib_iface.c:1059 UCX  ERROR ibv_create_cq(cqe=256) failed: Connection timed out
[1741413101.456544] [ohm:1580479:0]        ib_iface.c:1059 UCX  ERROR ibv_create_cq(cqe=256) failed: Connection timed out
[1741413101.457047] [ohm:1580444:0]        ib_iface.c:1059 UCX  ERROR ibv_create_cq(cqe=256) failed: Connection timed out
[1741413101.458796] [ohm:1580548:0]        ib_iface.c:1059 UCX  ERROR ibv_create_cq(cqe=256) failed: Connection timed out
[1741413101.460457] [ohm:1580469:0]        ib_iface.c:1059 UCX  ERROR ibv_create_cq(cqe=256) failed: Connection timed out
[1741413101.462797] [ohm:1580438:0]        ib_iface.c:1059 UCX  ERROR ibv_create_cq(cqe=256) failed: Connection timed out
[1741413101.466983] [ohm:1580519:0]        ib_iface.c:1059 UCX  ERROR ibv_create_cq(cqe=256) failed: Connection timed out
[1741413101.469327] [ohm:1580504:0]        ib_iface.c:1059 UCX  ERROR ibv_create_cq(cqe=256) failed: Connection timed out
[1741413101.474506] [ohm:1580442:0]        ib_iface.c:1059 UCX  ERROR ibv_create_cq(cqe=256) failed: Connection timed out
[1741413101.475145] [ohm:1580564:0]        ib_iface.c:1059 UCX  ERROR ibv_create_cq(cqe=256) failed: Connection timed out
[1741413101.475520] [ohm:1580439:0]        ib_iface.c:1059 UCX  ERROR ibv_create_cq(cqe=256) failed: Connection timed out
[1741413101.476449] [ohm:1580445:0]        ib_iface.c:1059 UCX  ERROR ibv_create_cq(cqe=256) failed: Connection timed out
[1741413101.476783] [ohm:1580443:0]        ib_iface.c:1059 UCX  ERROR ibv_create_cq(cqe=256) failed: Connection timed out
[1741413101.476788] [ohm:1580434:0]        ib_iface.c:1059 UCX  ERROR ibv_create_cq(cqe=256) failed: Connection timed out
[1741413101.479486] [ohm:1580475:0]        ib_iface.c:1059 UCX  ERROR ibv_create_cq(cqe=256) failed: Connection timed out
[1741413101.479964] [ohm:1580427:0]        ib_iface.c:1059 UCX  ERROR ibv_create_cq(cqe=256) failed: Connection timed out
[1741413101.482179] [ohm:1580433:0]        ib_iface.c:1059 UCX  ERROR ibv_create_cq(cqe=256) failed: Connection timed out
[1741413101.483616] [ohm:1580527:0]        ib_iface.c:1059 UCX  ERROR ibv_create_cq(cqe=256) failed: Connection timed out
[1741413101.485323] [ohm:1580524:0]        ib_iface.c:1059 UCX  ERROR ibv_create_cq(cqe=256) failed: Connection timed out
[1741413101.486983] [ohm:1580553:0]        ib_iface.c:1059 UCX  ERROR ibv_create_cq(cqe=256) failed: Connection timed out
[1741413101.487099] [ohm:1580522:0]        ib_iface.c:1059 UCX  ERROR ibv_create_cq(cqe=256) failed: Connection timed out
[1741413101.487134] [ohm:1580533:0]        ib_iface.c:1059 UCX  ERROR ibv_create_cq(cqe=256) failed: Connection timed out
[1741413101.488106] [ohm:1580496:0]        ib_iface.c:1059 UCX  ERROR ibv_create_cq(cqe=256) failed: Connection timed out
[1741413101.488204] [ohm:1580509:0]        ib_iface.c:1059 UCX  ERROR ibv_create_cq(cqe=256) failed: Connection timed out


           ************************************************************
           *        Program running with 64 parallel MPI-processes    *
           *              working on a common directory               *
           ************************************************************
-------------------------------------------------------------------------------
                                 ORCA GUESS
                   Start orbitals & Density for SCF / CASSCF
-------------------------------------------------------------------------------

------------
SCF SETTINGS
------------
Hamiltonian:
 Density Functional     Method          .... DFT(GTOs)
  Functional kind                       .... Exchange-Correlation
  Functional name                       .... wB97M-V exchange-correlation functional
  Functional family                     .... Hybrid MGGA
  Functional refs                              
    [ 0] N. Mardirossian and M. Head-Gordon.,  J. Chem. Phys. 144, 214110 (2016), doi: 10.1063/1.4952647
  Fraction of HF Exchange (short range) .... 0.1500
  Fraction of HF Exchange (long range)  .... 1.0000
  Range separation parameter mu         .... 0.3000
  Functional external parameters        .... 17
    Parameter  0 _cx00      =  8.500000e-01 : u^00 coefficient for exchange
    Parameter  1 _cx01      =  1.007000e+00 : u^01 coefficient for exchange
    Parameter  2 _cx10      =  2.590000e-01 : u^10 coefficient for exchange
    Parameter  3 _css00     =  4.430000e-01 : u^00 coefficient for same-spin correlation
    Parameter  4 _css04     = -1.437000e+00 : u^04 coefficient for same-spin correlation
    Parameter  5 _css10     = -4.535000e+00 : u^10 coefficient for same-spin correlation
    Parameter  6 _css20     = -3.390000e+00 : u^20 coefficient for same-spin correlation
    Parameter  7 _css43     =  4.278000e+00 : u^43 coefficient for same-spin correlation
    Parameter  8 _cos00     =  1.000000e+00 : u^00 coefficient for opposite-spin correlation
    Parameter  9 _cos10     =  1.358000e+00 : u^10 coefficient for opposite-spin correlation
    Parameter 10 _cos20     =  2.924000e+00 : u^20 coefficient for opposite-spin correlation
    Parameter 11 _cos21     = -8.812000e+00 : u^21 coefficient for opposite-spin correlation
    Parameter 12 _cos60     = -1.390000e+00 : u^60 coefficient for opposite-spin correlation
    Parameter 13 _cos61     =  9.142000e+00 : u^61 coefficient for opposite-spin correlation
    Parameter 14 _alpha     =  1.000000e+00 : fraction of HF exchange
    Parameter 15 _beta      = -8.500000e-01 : fraction of short-range exchange
    Parameter 16 _omega     =  3.000000e-01 : range-separation constant
 Long-range corrected/Screened/Range-Separated Hybrid DFT is turned on
   Amount of maximum screened exact exchange              ....  0.850000
   Range separation parameter mu (erf(mu*r12)/r12)        ....  0.300000
 RI-approximation to the Coulomb term is turned on
   Number of AuxJ basis functions       .... 1014
   RIJ-COSX (HFX calculated with COS-X)).... on


General Settings:
 Integral files         IntName         .... orca
 Hartree-Fock type      HFTyp           .... UHF
 Total Charge           Charge          ....    0
 Multiplicity           Mult            ....    3
 Number of Electrons    NEL             ....  132
 Basis Dimension        Dim             ....  882
 Nuclear Repulsion      ENuc            ....   1452.5521716044 Eh

Convergence Acceleration:
 AO-DIIS                CNVDIIS         .... on
   Start iteration      DIISMaxIt       ....    12
   Startup error        DIISStart       ....  0.200000
   # of expansion vecs  DIISMaxEq       ....     5
   Bias factor          DIISBfac        ....   1.050
   Max. coefficient     DIISMaxC        ....  10.000
 MO-DIIS                CNVKDIIS        .... off
 Trust-Rad. Augm. Hess. CNVTRAH         .... auto
   Auto Start mean grad. ratio tolernc. ....  1.125000
   Auto Start start iteration           ....    50
   Auto Start num. interpolation iter.  ....    10
   Max. Number of Micro iterations      ....    24
   Max. Number of Macro iterations      .... Maxiter - #DIIS iter
   Number of Davidson start vectors     ....     2
   Converg. threshold    (grad. norm)   ....   1.000e-05
   Grad. Scal. Fac. for Micro threshold ....   0.100
   Minimum threshold for Micro iter.    ....   1.000e-02
   NR start threshold (gradient norm)   ....   1.000e-04
   Initial trust radius                 ....   0.400
   Minimum AH scaling param. (alpha)    ....   1.000
   Maximum AH scaling param. (alpha)    .... 1000.000
   Quad. conv. algorithm                .... NR
   White noise on init. David. guess    .... on
   Maximum white noise                  ....   0.010
   Pseudo random numbers                .... off
   Inactive MOs                         .... canonical
   Orbital update algorithm             .... Taylor
   Preconditioner                       .... Diag
   Full preconditioner red. dimension   ....   250
 SOSCF                  CNVSOSCF        .... on
   Start iteration      SOSCFMaxIt      ....   150
   Startup grad/error   SOSCFStart      ....  0.003300
   Hessian update       SOSCFHessUp     .... L-BFGS
 Level Shifting         CNVShift        .... on
   Level shift para.    LevelShift      ....    0.2500
   Turn off err/grad.   ShiftErr        ....    0.0010
 Zerner damping         CNVZerner       .... off
 Static damping         CNVDamp         .... on
   Fraction old density DampFac         ....    0.7000
   Max. Damping (<1)    DampMax         ....    0.9800
   Min. Damping (>=0)   DampMin         ....    0.0000
   Turn off err/grad.   DampErr         ....    0.1000

SCF Procedure:
 Maximum # iterations   MaxIter         ....   125
 SCF integral mode      SCFMode         .... Direct
   Integral package                     .... SHARK and LIBINT hybrid scheme
 Reset frequency        DirectResetFreq ....    20
 Integral Threshold     Thresh          ....  1.000e-12 Eh
 Primitive CutOff       TCut            ....  1.000e-13 Eh

Convergence Tolerance:
 Convergence Check Mode ConvCheckMode   .... Total+1el-Energy
 Convergence forced     ConvForced      .... 1
 Energy Change          TolE            ....  1.000e-08 Eh
 1-El. energy change                    ....  1.000e-05 Eh
 Orbital Gradient       TolG            ....  1.000e-05
 Orbital Rotation angle TolX            ....  1.000e-05
 DIIS Error             TolErr          ....  5.000e-07

------------------------------
INITIAL GUESS: MODEL POTENTIAL
------------------------------
Loading Hartree-Fock densities                     ... done
Calculating cut-offs                               ... done
Initializing the effective Hamiltonian             ... done
Setting up the integral package (SHARK)            ... done
Starting the Coulomb interaction                   ... done (   0.1 sec)
Making the grid                                    ... done (   0.2 sec)
Mapping shells                                     ... done
Starting the XC term evaluation                    ... done (   0.1 sec)
  promolecular density results
     # of electrons  =    131.990257483
     EX              =   -113.534823138
     EC              =     -4.496251814
     EX+EC           =   -118.031074952
Transforming the Hamiltonian                       ... done (   0.1 sec)
Diagonalizing the Hamiltonian                      ... done (   0.1 sec)
Back transforming the eigenvectors                 ... done (   0.1 sec)
Now organizing SCF variables                       ... done
                      ------------------
                      INITIAL GUESS DONE (   1.1 sec)
                      ------------------
             **** ENERGY FILE WAS UPDATED (orca.en.tmp) ****
Finished Guess after   3.6 sec
Maximum memory used throughout the entire GUESS-calculation: 72.8 MB
[1741413105.455054] [ohm:1580783:0]        ib_iface.c:1059 UCX  ERROR ibv_create_cq(cqe=256) failed: Connection timed out
[1741413105.456341] [ohm:1580766:0]        ib_iface.c:1059 UCX  ERROR ibv_create_cq(cqe=256) failed: Connection timed out
[1741413105.457642] [ohm:1580768:0]        ib_iface.c:1059 UCX  ERROR ibv_create_cq(cqe=256) failed: Connection timed out
[1741413105.474214] [ohm:1580770:0]        ib_iface.c:1059 UCX  ERROR ibv_create_cq(cqe=256) failed: Connection timed out
[1741413105.491272] [ohm:1580767:0]        ib_iface.c:1059 UCX  ERROR ibv_create_cq(cqe=256) failed: Connection timed out
[1741413105.501505] [ohm:1580780:0]        ib_iface.c:1059 UCX  ERROR ibv_create_cq(cqe=256) failed: Connection timed out
[1741413105.503162] [ohm:1580830:0]        ib_iface.c:1059 UCX  ERROR ibv_create_cq(cqe=256) failed: Connection timed out
[1741413105.505524] [ohm:1580781:0]        ib_iface.c:1059 UCX  ERROR ibv_create_cq(cqe=256) failed: Connection timed out
[1741413105.505682] [ohm:1580779:0]        ib_iface.c:1059 UCX  ERROR ibv_create_cq(cqe=256) failed: Connection timed out
[1741413105.508371] [ohm:1580844:0]        ib_iface.c:1059 UCX  ERROR ibv_create_cq(cqe=256) failed: Connection timed out
[1741413105.510019] [ohm:1580769:0]        ib_iface.c:1059 UCX  ERROR ibv_create_cq(cqe=256) failed: Connection timed out
[1741413105.519806] [ohm:1580772:0]        ib_iface.c:1059 UCX  ERROR ibv_create_cq(cqe=256) failed: Connection timed out
[1741413105.557021] [ohm:1580785:0]        ib_iface.c:1059 UCX  ERROR ibv_create_cq(cqe=256) failed: Connection timed out
[1741413105.569771] [ohm:1580771:0]        ib_iface.c:1059 UCX  ERROR ibv_create_cq(cqe=256) failed: Connection timed out
[1741413105.577577] [ohm:1580832:0]        ib_iface.c:1059 UCX  ERROR ibv_create_cq(cqe=256) failed: Connection timed out
[1741413105.580710] [ohm:1580793:0]        ib_iface.c:1059 UCX  ERROR ibv_create_cq(cqe=256) failed: Connection timed out
[1741413105.584576] [ohm:1580778:0]        ib_iface.c:1059 UCX  ERROR ibv_create_cq(cqe=256) failed: Connection timed out
[1741413105.591401] [ohm:1580775:0]        ib_iface.c:1059 UCX  ERROR ibv_create_cq(cqe=256) failed: Connection timed out
[1741413105.597681] [ohm:1580777:0]        ib_iface.c:1059 UCX  ERROR ibv_create_cq(cqe=256) failed: Connection timed out
[1741413105.599263] [ohm:1580786:0]        ib_iface.c:1059 UCX  ERROR ibv_create_cq(cqe=256) failed: Connection timed out
[1741413105.616479] [ohm:1580773:0]        ib_iface.c:1059 UCX  ERROR ibv_create_cq(cqe=256) failed: Connection timed out
[1741413105.628310] [ohm:1580794:0]        ib_iface.c:1059 UCX  ERROR ibv_create_cq(cqe=256) failed: Connection timed out
[1741413105.643044] [ohm:1580851:0]        ib_iface.c:1059 UCX  ERROR ibv_create_cq(cqe=256) failed: Connection timed out
[1741413105.673131] [ohm:1580787:0]        ib_iface.c:1059 UCX  ERROR ibv_create_cq(cqe=256) failed: Connection timed out
[1741413105.676632] [ohm:1580859:0]        ib_iface.c:1059 UCX  ERROR ibv_create_cq(cqe=256) failed: Connection timed out
[1741413105.678123] [ohm:1580807:0]        ib_iface.c:1059 UCX  ERROR ibv_create_cq(cqe=256) failed: Connection timed out
[1741413105.678777] [ohm:1580789:0]        ib_iface.c:1059 UCX  ERROR ibv_create_cq(cqe=256) failed: Connection timed out
[1741413105.687512] [ohm:1580892:0]        ib_iface.c:1059 UCX  ERROR ibv_create_cq(cqe=256) failed: Connection timed out
[1741413105.687917] [ohm:1580788:0]        ib_iface.c:1059 UCX  ERROR ibv_create_cq(cqe=256) failed: Connection timed out
[1741413105.702997] [ohm:1580896:0]        ib_iface.c:1059 UCX  ERROR ibv_create_cq(cqe=256) failed: Connection timed out
[1741413105.717300] [ohm:1580860:0]        ib_iface.c:1059 UCX  ERROR ibv_create_cq(cqe=256) failed: Connection timed out
[1741413105.719721] [ohm:1580877:0]        ib_iface.c:1059 UCX  ERROR ibv_create_cq(cqe=256) failed: Connection timed out
[1741413105.723093] [ohm:1580862:0]        ib_iface.c:1059 UCX  ERROR ibv_create_cq(cqe=256) failed: Connection timed out
[1741413105.723810] [ohm:1580795:0]        ib_iface.c:1059 UCX  ERROR ibv_create_cq(cqe=256) failed: Connection timed out
[1741413105.731676] [ohm:1580875:0]        ib_iface.c:1059 UCX  ERROR ibv_create_cq(cqe=256) failed: Connection timed out
[1741413105.731665] [ohm:1580894:0]        ib_iface.c:1059 UCX  ERROR ibv_create_cq(cqe=256) failed: Connection timed out
[1741413105.732744] [ohm:1580855:0]        ib_iface.c:1059 UCX  ERROR ibv_create_cq(cqe=256) failed: Connection timed out
[1741413105.750331] [ohm:1580765:0]        ib_iface.c:1059 UCX  ERROR ibv_create_cq(cqe=256) failed: Connection timed out
[1741413105.759386] [ohm:1580816:0]        ib_iface.c:1059 UCX  ERROR ibv_create_cq(cqe=256) failed: Connection timed out
[1741413105.759935] [ohm:1580792:0]        ib_iface.c:1059 UCX  ERROR ibv_create_cq(cqe=256) failed: Connection timed out
[1741413105.765353] [ohm:1580803:0]        ib_iface.c:1059 UCX  ERROR ibv_create_cq(cqe=256) failed: Connection timed out
[1741413105.766191] [ohm:1580776:0]        ib_iface.c:1059 UCX  ERROR ibv_create_cq(cqe=256) failed: Connection timed out
[1741413105.766914] [ohm:1580821:0]        ib_iface.c:1059 UCX  ERROR ibv_create_cq(cqe=256) failed: Connection timed out
[1741413105.768265] [ohm:1580784:0]        ib_iface.c:1059 UCX  ERROR ibv_create_cq(cqe=256) failed: Connection timed out
[1741413105.769954] [ohm:1580796:0]        ib_iface.c:1059 UCX  ERROR ibv_create_cq(cqe=256) failed: Connection timed out
[1741413105.770353] [ohm:1580899:0]        ib_iface.c:1059 UCX  ERROR ibv_create_cq(cqe=256) failed: Connection timed out
[1741413105.773828] [ohm:1580838:0]        ib_iface.c:1059 UCX  ERROR ibv_create_cq(cqe=256) failed: Connection timed out
[1741413105.776143] [ohm:1580839:0]        ib_iface.c:1059 UCX  ERROR ibv_create_cq(cqe=256) failed: Connection timed out
[1741413105.777248] [ohm:1580902:0]        ib_iface.c:1059 UCX  ERROR ibv_create_cq(cqe=256) failed: Connection timed out
[1741413105.781572] [ohm:1580846:0]        ib_iface.c:1059 UCX  ERROR ibv_create_cq(cqe=256) failed: Connection timed out
[1741413105.786321] [ohm:1580864:0]        ib_iface.c:1059 UCX  ERROR ibv_create_cq(cqe=256) failed: Connection timed out
[1741413105.786905] [ohm:1580886:0]        ib_iface.c:1059 UCX  ERROR ibv_create_cq(cqe=256) failed: Connection timed out
[1741413105.792495] [ohm:1580882:0]        ib_iface.c:1059 UCX  ERROR ibv_create_cq(cqe=256) failed: Connection timed out
[1741413105.793716] [ohm:1580804:0]        ib_iface.c:1059 UCX  ERROR ibv_create_cq(cqe=256) failed: Connection timed out
[1741413105.794864] [ohm:1580774:0]        ib_iface.c:1059 UCX  ERROR ibv_create_cq(cqe=256) failed: Connection timed out
[1741413105.795944] [ohm:1580782:0]        ib_iface.c:1059 UCX  ERROR ibv_create_cq(cqe=256) failed: Connection timed out
[1741413105.796280] [ohm:1580870:0]        ib_iface.c:1059 UCX  ERROR ibv_create_cq(cqe=256) failed: Connection timed out
[1741413105.797921] [ohm:1580867:0]        ib_iface.c:1059 UCX  ERROR ibv_create_cq(cqe=256) failed: Connection timed out
[1741413105.798620] [ohm:1580790:0]        ib_iface.c:1059 UCX  ERROR ibv_create_cq(cqe=256) failed: Connection timed out
[1741413105.798690] [ohm:1580791:0]        ib_iface.c:1059 UCX  ERROR ibv_create_cq(cqe=256) failed: Connection timed out
[1741413105.798870] [ohm:1580824:0]        ib_iface.c:1059 UCX  ERROR ibv_create_cq(cqe=256) failed: Connection timed out
[1741413105.800389] [ohm:1580906:0]        ib_iface.c:1059 UCX  ERROR ibv_create_cq(cqe=256) failed: Connection timed out
[1741413105.801304] [ohm:1580889:0]        ib_iface.c:1059 UCX  ERROR ibv_create_cq(cqe=256) failed: Connection timed out
[1741413105.801954] [ohm:1580814:0]        ib_iface.c:1059 UCX  ERROR ibv_create_cq(cqe=256) failed: Connection timed out


           ************************************************************
           *        Program running with 64 parallel MPI-processes    *
           *              working on a common directory               *
           ************************************************************

-------------------------------------------------------------------------------------------
                                      ORCA LEAN-SCF
                              memory conserving SCF solver
-------------------------------------------------------------------------------------------

----------------------------------------D-I-I-S--------------------------------------------
Iteration    Energy (Eh)           Delta-E    RMSDP     MaxDP     DIISErr   Damp  Time(sec)
-------------------------------------------------------------------------------------------
               ***  Starting incremental Fock matrix formation  ***
    1    -908.1135382537411260     0.00e+00  1.60e-03  2.68e-01  1.47e-01  0.700   7.8
    2    -908.3801707149434606    -2.67e-01  1.29e-03  1.72e-01  6.78e-02  0.700   6.7
                               ***Turning on AO-DIIS***
    3    -908.4966270461038675    -1.16e-01  9.32e-04  1.29e-01  2.68e-02  0.700   5.9
    4    -908.5685750427408038    -7.19e-02  2.17e-03  2.63e-01  1.66e-02  0.000   5.9
    5    -908.7304389600556078    -1.62e-01  2.37e-04  5.14e-02  4.06e-03  0.000   6.0
                              *** Initializing SOSCF ***
---------------------------------------S-O-S-C-F--------------------------------------
Iteration    Energy (Eh)           Delta-E    RMSDP     MaxDP     MaxGrad    Time(sec)
--------------------------------------------------------------------------------------
    6    -908.7317953504464185    -1.36e-03  1.19e-04  3.33e-02  2.19e-03     6.6
               *** Restarting incremental Fock matrix formation ***
    7    -908.7324519709798096    -6.57e-04  1.75e-04  3.29e-02  5.87e-03     7.5
    8    -908.7328934244530956    -4.41e-04  2.16e-04  6.31e-02  3.31e-03     6.7
    9    -908.7330893886276044    -1.96e-04  7.92e-05  4.89e-03  1.24e-03     6.8
   10    -908.7331549029320286    -6.55e-05  3.53e-05  1.08e-02  6.73e-04     6.5
   11    -908.7331741932027853    -1.93e-05  9.64e-06  1.25e-03  1.91e-04     6.4
   12    -908.7331778083805602    -3.62e-06  6.89e-06  1.16e-03  1.87e-04     6.2
   13    -908.7331801015131987    -2.29e-06  5.63e-06  1.00e-03  8.97e-05     6.1
   14    -908.7331804562634261    -3.55e-07  1.62e-06  3.38e-04  3.94e-05     6.1
   15    -908.7331805906362661    -1.34e-07  1.14e-06  1.59e-04  1.88e-05     5.9
   16    -908.7331806433242036    -5.27e-08  1.51e-06  3.09e-04  7.04e-06     5.8
   17    -908.7331806561585381    -1.28e-08  1.07e-06  2.11e-04  4.66e-06     5.5
   18    -908.7331805943470044     6.18e-08  2.07e-06  6.12e-04  1.87e-06     5.4
                  *** Gradient check signals convergence ***

               *****************************************************
               *                     SUCCESS                       *
               *           SCF CONVERGED AFTER  18 CYCLES          *
               *****************************************************

Recomputing exchange energy using gridx3       ... done (    8.020 sec)
Old exchange energy                            :    -35.035869279 Eh
New exchange energy                            :    -35.035885497 Eh
Exchange energy change after final integration :     -0.000016217 Eh
Total energy after final integration           :   -908.733196811 Eh
             **** ENERGY FILE WAS UPDATED (orca.en.tmp) ****

----------------
TOTAL SCF ENERGY
----------------

Total Energy       :       -908.73319681141095 Eh          -24727.88743 eV

Components:
Nuclear Repulsion  :       1452.55217160440611 Eh           39525.95405 eV
Electronic Energy  :      -2361.28535219875357 Eh          -64253.84104 eV
One Electron Energy:      -4122.00723333933092 Eh         -112165.51920 eV
Two Electron Energy:       1760.72188114057758 Eh           47911.67817 eV

Virial components:
Potential Energy   :      -1814.42679465466153 Eh          -49373.06316 eV
Kinetic Energy     :        905.69359784325047 Eh           24645.17573 eV
Virial Ratio       :          2.00335610075571

DFT components:
N(Alpha)           :       67.000097123401 electrons
N(Beta)            :       65.000093758348 electrons
N(Total)           :      132.000190881749 electrons
E(XC)              :      -86.249954165818 Eh       

---------------
SCF CONVERGENCE
---------------

  Last Energy change         ...   -6.1812e-08  Tolerance :   1.0000e-08
  Last MAX-Density change    ...    6.1198e-04  Tolerance :   1.0000e-07
  Last RMS-Density change    ...    2.0713e-06  Tolerance :   5.0000e-09
  Last DIIS Error            ...    2.1858e-03  Tolerance :   5.0000e-07
  Last Orbital Gradient      ...    1.8741e-06  Tolerance :   1.0000e-05
  Last Orbital Rotation      ...    9.0267e-06  Tolerance :   1.0000e-05


----------------------
UHF SPIN CONTAMINATION
----------------------

Warning: in a DFT calculation there is little theoretical justification to 
         calculate <S**2> as in Hartree-Fock theory. We will do it anyways
         but you should keep in mind that the values have only limited relevance

Expectation value of <S**2>     :     2.016030
Ideal value S*(S+1) for S=1.0   :     2.000000
Deviation                       :     0.016030

----------------
ORBITAL ENERGIES
----------------
                 SPIN UP ORBITALS
  NO   OCC          E(Eh)            E(eV) 
   0   1.0000     -19.342654      -526.3404 
   1   1.0000     -19.332420      -526.0619 
   2   1.0000     -19.329893      -525.9931 
   3   1.0000     -19.320366      -525.7339 
   4   1.0000     -14.570375      -396.4801 
   5   1.0000     -14.562568      -396.2676 
   6   1.0000     -14.555633      -396.0789 
   7   1.0000     -14.555292      -396.0696 
   8   1.0000     -10.511672      -286.0371 
   9   1.0000     -10.498228      -285.6713 
  10   1.0000     -10.497532      -285.6524 
  11   1.0000     -10.478521      -285.1351 
  12   1.0000     -10.450052      -284.3604 
  13   1.0000     -10.439971      -284.0861 
  14   1.0000     -10.435704      -283.9699 
  15   1.0000     -10.422323      -283.6058 
  16   1.0000     -10.388244      -282.6785 
  17   1.0000     -10.365697      -282.0649 
  18   1.0000      -1.224689       -33.3255 
  19   1.0000      -1.220037       -33.1989 
  20   1.0000      -1.204380       -32.7728 
  21   1.0000      -1.179848       -32.1053 
  22   1.0000      -1.115326       -30.3496 
  23   1.0000      -1.096139       -29.8275 
  24   1.0000      -1.066520       -29.0215 
  25   1.0000      -1.051858       -28.6225 
  26   1.0000      -0.987714       -26.8771 
  27   1.0000      -0.953655       -25.9503 
  28   1.0000      -0.893399       -24.3106 
  29   1.0000      -0.849620       -23.1193 
  30   1.0000      -0.833542       -22.6818 
  31   1.0000      -0.805175       -21.9099 
  32   1.0000      -0.781736       -21.2721 
  33   1.0000      -0.778198       -21.1758 
  34   1.0000      -0.710365       -19.3300 
  35   1.0000      -0.696348       -18.9486 
  36   1.0000      -0.688656       -18.7393 
  37   1.0000      -0.681908       -18.5557 
  38   1.0000      -0.649975       -17.6867 
  39   1.0000      -0.635585       -17.2952 
  40   1.0000      -0.615336       -16.7441 
  41   1.0000      -0.605445       -16.4750 
  42   1.0000      -0.594171       -16.1682 
  43   1.0000      -0.586947       -15.9716 
  44   1.0000      -0.578124       -15.7316 
  45   1.0000      -0.573301       -15.6003 
  46   1.0000      -0.570043       -15.5117 
  47   1.0000      -0.562973       -15.3193 
  48   1.0000      -0.557994       -15.1838 
  49   1.0000      -0.555541       -15.1170 
  50   1.0000      -0.551457       -15.0059 
  51   1.0000      -0.545306       -14.8385 
  52   1.0000      -0.532659       -14.4944 
  53   1.0000      -0.526387       -14.3237 
  54   1.0000      -0.510725       -13.8975 
  55   1.0000      -0.504166       -13.7191 
  56   1.0000      -0.493972       -13.4417 
  57   1.0000      -0.427757       -11.6398 
  58   1.0000      -0.418956       -11.4004 
  59   1.0000      -0.415643       -11.3102 
  60   1.0000      -0.409737       -11.1495 
  61   1.0000      -0.399797       -10.8790 
  62   1.0000      -0.399391       -10.8680 
  63   1.0000      -0.392067       -10.6687 
  64   1.0000      -0.382162       -10.3991 
  65   1.0000      -0.350918        -9.5490 
  66   1.0000      -0.336509        -9.1569 
  67   0.0000       0.006653         0.1810 
  68   0.0000       0.026656         0.7253 
  69   0.0000       0.031205         0.8491 
  70   0.0000       0.037392         1.0175 
  71   0.0000       0.051377         1.3980 
  72   0.0000       0.056862         1.5473 
  73   0.0000       0.058165         1.5828 
  74   0.0000       0.061830         1.6825 
  75   0.0000       0.063985         1.7411 
  76   0.0000       0.065841         1.7916 
  77   0.0000       0.071678         1.9504 

                 SPIN DOWN ORBITALS
  NO   OCC          E(Eh)            E(eV) 
   0   1.0000     -19.338729      -526.2336 
   1   1.0000     -19.329850      -525.9920 
   2   1.0000     -19.327139      -525.9182 
   3   1.0000     -19.320207      -525.7295 
   4   1.0000     -14.569702      -396.4618 
   5   1.0000     -14.562394      -396.2629 
   6   1.0000     -14.555199      -396.0671 
   7   1.0000     -14.554606      -396.0510 
   8   1.0000     -10.511710      -286.0382 
   9   1.0000     -10.498548      -285.6800 
  10   1.0000     -10.498299      -285.6732 
  11   1.0000     -10.479708      -285.1674 
  12   1.0000     -10.449591      -284.3478 
  13   1.0000     -10.439512      -284.0736 
  14   1.0000     -10.424003      -283.6515 
  15   1.0000     -10.411252      -283.3046 
  16   1.0000     -10.388833      -282.6945 
  17   1.0000     -10.366043      -282.0744 
  18   1.0000      -1.223055       -33.2810 
  19   1.0000      -1.218959       -33.1696 
  20   1.0000      -1.200274       -32.6611 
  21   1.0000      -1.173437       -31.9309 
  22   1.0000      -1.111871       -30.2555 
  23   1.0000      -1.093356       -29.7517 
  24   1.0000      -1.063973       -28.9522 
  25   1.0000      -1.050168       -28.5765 
  26   1.0000      -0.974290       -26.5118 
  27   1.0000      -0.936303       -25.4781 
  28   1.0000      -0.887580       -24.1523 
  29   1.0000      -0.843769       -22.9601 
  30   1.0000      -0.825680       -22.4679 
  31   1.0000      -0.800610       -21.7857 
  32   1.0000      -0.779687       -21.2164 
  33   1.0000      -0.775883       -21.1129 
  34   1.0000      -0.703268       -19.1369 
  35   1.0000      -0.691847       -18.8261 
  36   1.0000      -0.682863       -18.5817 
  37   1.0000      -0.673517       -18.3273 
  38   1.0000      -0.638493       -17.3743 
  39   1.0000      -0.631611       -17.1870 
  40   1.0000      -0.610725       -16.6187 
  41   1.0000      -0.598556       -16.2875 
  42   1.0000      -0.587559       -15.9883 
  43   1.0000      -0.582227       -15.8432 
  44   1.0000      -0.572123       -15.5683 
  45   1.0000      -0.566290       -15.4095 
  46   1.0000      -0.562857       -15.3161 
  47   1.0000      -0.559362       -15.2210 
  48   1.0000      -0.551122       -14.9968 
  49   1.0000      -0.549441       -14.9511 
  50   1.0000      -0.544293       -14.8110 
  51   1.0000      -0.537714       -14.6319 
  52   1.0000      -0.522801       -14.2261 
  53   1.0000      -0.520311       -14.1584 
  54   1.0000      -0.503305       -13.6956 
  55   1.0000      -0.493229       -13.4214 
  56   1.0000      -0.487578       -13.2677 
  57   1.0000      -0.424360       -11.5474 
  58   1.0000      -0.414642       -11.2830 
  59   1.0000      -0.405585       -11.0365 
  60   1.0000      -0.401565       -10.9271 
  61   1.0000      -0.395706       -10.7677 
  62   1.0000      -0.387216       -10.5367 
  63   1.0000      -0.384729       -10.4690 
  64   1.0000      -0.370619       -10.0851 
  65   0.0000      -0.066210        -1.8017 
  66   0.0000      -0.062381        -1.6975 
  67   0.0000       0.006429         0.1749 
  68   0.0000       0.026574         0.7231 
  69   0.0000       0.031702         0.8626 
  70   0.0000       0.037442         1.0189 
  71   0.0000       0.056638         1.5412 
  72   0.0000       0.057677         1.5695 
  73   0.0000       0.060013         1.6330 
  74   0.0000       0.063633         1.7315 
  75   0.0000       0.065848         1.7918 
*Only the first 10 virtual orbitals were printed.

                    ********************************
                    * MULLIKEN POPULATION ANALYSIS *
                    ********************************

--------------------------------------------
MULLIKEN ATOMIC CHARGES AND SPIN POPULATIONS
--------------------------------------------
   0 O :   -0.663190    0.145595
   1 O :   -0.693308    0.199132
   2 O :   -0.671833    0.001769
   3 O :   -0.626132    0.005724
   4 N :   -0.176006    0.017983
   5 N :   -0.445206    0.036707
   6 N :    0.132159    0.035355
   7 N :    0.016567    0.028350
   8 C :   -0.010728    0.471136
   9 C :   -0.346919    0.425807
  10 C :    0.307747    0.123241
  11 C :    0.925731    0.139477
  12 C :   -1.360114   -0.024288
  13 C :   -1.547652    0.005433
  14 C :    0.495296    0.160753
  15 C :    0.524908    0.111252
  16 C :    0.395754   -0.011982
  17 C :    0.397572   -0.005661
  18 H :    0.584496    0.014998
  19 H :    0.535096    0.031251
  20 H :    0.307101    0.006411
  21 H :    0.321419    0.029396
  22 H :    0.309755    0.010199
  23 H :    0.461497    0.025079
  24 H :    0.297316    0.006046
  25 H :    0.266170    0.010770
  26 H :    0.070980    0.004322
  27 H :    0.209961   -0.003452
  28 H :   -0.008972   -0.000338
  29 H :   -0.009464   -0.000465
Sum of atomic charges         :    0.0000000
Sum of atomic spin populations:    2.0000000

-----------------------------------------------------
MULLIKEN REDUCED ORBITAL CHARGES AND SPIN POPULATIONS
-----------------------------------------------------
CHARGE
  0 O s       :     4.093902  s :     4.093902
      pz      :     1.645322  p :     4.539395
      px      :     1.330570
      py      :     1.563504
      dz2     :     0.003625  d :     0.028002
      dxz     :     0.004075
      dyz     :     0.004833
      dx2y2   :     0.010036
      dxy     :     0.005434
[...]
[1741413411.207776] [ohm:1583445:0]        ib_iface.c:1059 UCX  ERROR ibv_create_cq(cqe=256) failed: Connection timed out
[1741413411.208080] [ohm:1583406:0]        ib_iface.c:1059 UCX  ERROR ibv_create_cq(cqe=256) failed: Connection timed out
[1741413411.211185] [ohm:1583424:0]        ib_iface.c:1059 UCX  ERROR ibv_create_cq(cqe=256) failed: Connection timed out
[1741413411.212068] [ohm:1583410:0]        ib_iface.c:1059 UCX  ERROR ibv_create_cq(cqe=256) failed: Connection timed out
[1741413411.213827] [ohm:1583357:0]        ib_iface.c:1059 UCX  ERROR ibv_create_cq(cqe=256) failed: Connection timed out
[1741413411.214498] [ohm:1583437:0]        ib_iface.c:1059 UCX  ERROR ibv_create_cq(cqe=256) failed: Connection timed out
[1741413411.214834] [ohm:1583384:0]        ib_iface.c:1059 UCX  ERROR ibv_create_cq(cqe=256) failed: Connection timed out
[1741413411.215016] [ohm:1583454:0]        ib_iface.c:1059 UCX  ERROR ibv_create_cq(cqe=256) failed: Connection timed out
[1741413411.215017] [ohm:1583471:0]        ib_iface.c:1059 UCX  ERROR ibv_create_cq(cqe=256) failed: Connection timed out
[1741413411.216109] [ohm:1583352:0]        ib_iface.c:1059 UCX  ERROR ibv_create_cq(cqe=256) failed: Connection timed out


           ************************************************************
           *        Program running with 64 parallel MPI-processes    *
           *              working on a common directory               *
           ************************************************************

------------------------------------------------------------------------------
                              ORCA PROPERTY CALCULATIONS
------------------------------------------------------------------------------

GBWName                                 ... orca.gbw
Number of atoms                         ...     30
Number of basis functions               ...    882
Max core memory                         ...   1024 MB

Electric properties:
Dipole moment                           ... YES
Quadrupole moment                       ...  NO
Static polarizability (Dipole/Dipole)   ...  NO
Static polarizability (Dipole/Quad.)    ...  NO
Static polarizability (Quad./Quad.)     ...  NO
Static polarizability (Velocity)        ...  NO

Atomic electric properties:
Dipole moment                           ...  NO
Quadrupole moment                       ...  NO
Static polarizability                   ...  NO

Choice of electric origin               ... Center of mass
Position of electric origin             ...    -0.015654    -0.081324    -0.039231

General magnetic properties:
Magnetizability                         ...  NO

EPR properties:
g-Tensor (aka g-matrix)                 ...  NO
Zero-Field splitting spin-orbit         ...  NO
Zero-field splitting spin-spin          ...  NO
Hyperfine couplings                     ...  NO (   0 nuclei)
Quadrupole couplings                    ...  NO (   0 nuclei)
Contact density                         ...  NO (   0 nuclei)

NMR properties:
Chemical shifts                         ...  NO (   0 nuclei)
Spin-rotation constants                 ...  NO (   0 nuclei)
Spin-spin couplings                     ...  NO (   0 nuclei,    0 pairs)

Choice of magnetic origin               ... GIAO
Position of magnetic origin             ...     0.000000     0.000000     0.000000

Properties with geometric perturbations:
SCF Hessian                             ...  NO
IR spectrum                             ...  NO
VCD spectrum                            ...  NO
X-ray spectroscopy properties:
SCF XES/XAS/RIXS spectra                ...  NO


-------------
DIPOLE MOMENT
-------------

Method             : SCF
Type of density    : Electron Density
Multiplicity       :   3
Irrep              :   0
Energy             :  -908.7331968114109486 Eh
Relativity type    : 
Basis              : AO
                                X                 Y                 Z
Electronic contribution:     -4.895945110      -8.323393827      -6.444296970
Nuclear contribution   :      5.735673474       9.383911291       9.085361388
                        -----------------------------------------
Total Dipole Moment    :      0.839728365       1.060517465       2.641064418
                        -----------------------------------------
Magnitude (a.u.)       :      2.967332519
Magnitude (Debye)      :      7.542359862



--------------------
Rotational spectrum 
--------------------
 
Rotational constants in cm-1:             0.021528             0.013031             0.012573 
Rotational constants in MHz :           645.402786           390.664965           376.933820 

Dipole components along the rotational axes: 
x,y,z [a.u.] :    -1.502920    -2.368439     0.967880 
x,y,z [Debye]:    -3.820119    -6.020093     2.460155 

 

-------------
DIPOLE MOMENT
-------------

Method             : TDA/CIS
Type of density    : Electron Density
Level              : Relaxed density
State              :   2
Multiplicity       :   3
Irrep              :   0
Energy             :     0.0000000000000000 Eh
Relativity type    : 
Basis              : AO
                                X                 Y                 Z
Electronic contribution:     -5.020287467      -8.292126633      -6.342751417
Nuclear contribution   :      5.735673474       9.383911291       9.085361388
                        -----------------------------------------
Total Dipole Moment    :      0.715386008       1.091784658       2.742609970
                        -----------------------------------------
Magnitude (a.u.)       :      3.037380504
Magnitude (Debye)      :      7.720407691



--------------------
Rotational spectrum 
--------------------
 
Rotational constants in cm-1:             0.021528             0.013031             0.012573 
Rotational constants in MHz :           645.402786           390.664965           376.933820 

Dipole components along the rotational axes: 
x,y,z [a.u.] :    -1.408281    -2.496773     1.004265 
x,y,z [Debye]:    -3.579566    -6.346293     2.552638 

 

Dipole moment calculation done in   0.2 sec 

Maximum memory used throughout the entire PROP-calculation: 81.9 MB
[1741413413.603065] [ohm:1583701:0]        ib_iface.c:1059 UCX  ERROR ibv_create_cq(cqe=256) failed: Connection timed out
[1741413413.616858] [ohm:1583697:0]        ib_iface.c:1059 UCX  ERROR ibv_create_cq(cqe=256) failed: Connection timed out
[1741413413.619627] [ohm:1583699:0]        ib_iface.c:1059 UCX  ERROR ibv_create_cq(cqe=256) failed: Connection timed out
[1741413413.623147] [ohm:1583698:0]        ib_iface.c:1059 UCX  ERROR ibv_create_cq(cqe=256) failed: Connection timed out
[1741413413.642290] [ohm:1583703:0]        ib_iface.c:1059 UCX  ERROR ibv_create_cq(cqe=256) failed: Connection timed out
[1741413413.652763] [ohm:1583700:0]        ib_iface.c:1059 UCX  ERROR ibv_create_cq(cqe=256) failed: Connection timed out
[1741413413.658366] [ohm:1583704:0]        ib_iface.c:1059 UCX  ERROR ibv_create_cq(cqe=256) failed: Connection timed out
[1741413413.660869] [ohm:1583709:0]        ib_iface.c:1059 UCX  ERROR ibv_create_cq(cqe=256) failed: Connection timed out
[1741413413.665468] [ohm:1583719:0]        ib_iface.c:1059 UCX  ERROR ibv_create_cq(cqe=256) failed: Connection timed out
[1741413413.665483] [ohm:1583706:0]        ib_iface.c:1059 UCX  ERROR ibv_create_cq(cqe=256) failed: Connection timed out
[1741413413.671435] [ohm:1583705:0]        ib_iface.c:1059 UCX  ERROR ibv_create_cq(cqe=256) failed: Connection timed out
[1741413413.675115] [ohm:1583718:0]        ib_iface.c:1059 UCX  ERROR ibv_create_cq(cqe=256) failed: Connection timed out
[1741413413.691117] [ohm:1583716:0]        ib_iface.c:1059 UCX  ERROR ibv_create_cq(cqe=256) failed: Connection timed out
[1741413413.692719] [ohm:1583714:0]        ib_iface.c:1059 UCX  ERROR ibv_create_cq(cqe=256) failed: Connection timed out
[1741413413.697072] [ohm:1583721:0]        ib_iface.c:1059 UCX  ERROR ibv_create_cq(cqe=256) failed: Connection timed out
[1741413413.698115] [ohm:1583722:0]        ib_iface.c:1059 UCX  ERROR ibv_create_cq(cqe=256) failed: Connection timed out
[1741413413.701122] [ohm:1583738:0]        ib_iface.c:1059 UCX  ERROR ibv_create_cq(cqe=256) failed: Connection timed out
[1741413413.708809] [ohm:1583717:0]        ib_iface.c:1059 UCX  ERROR ibv_create_cq(cqe=256) failed: Connection timed out
[1741413413.781225] [ohm:1583724:0]        ib_iface.c:1059 UCX  ERROR ibv_create_cq(cqe=256) failed: Connection timed out
[1741413413.781917] [ohm:1583726:0]        ib_iface.c:1059 UCX  ERROR ibv_create_cq(cqe=256) failed: Connection timed out
[1741413413.784501] [ohm:1583760:0]        ib_iface.c:1059 UCX  ERROR ibv_create_cq(cqe=256) failed: Connection timed out
[1741413413.790738] [ohm:1583723:0]        ib_iface.c:1059 UCX  ERROR ibv_create_cq(cqe=256) failed: Connection timed out
[1741413413.794671] [ohm:1583715:0]        ib_iface.c:1059 UCX  ERROR ibv_create_cq(cqe=256) failed: Connection timed out
[1741413413.811088] [ohm:1583783:0]        ib_iface.c:1059 UCX  ERROR ibv_create_cq(cqe=256) failed: Connection timed out
[1741413413.815779] [ohm:1583729:0]        ib_iface.c:1059 UCX  ERROR ibv_create_cq(cqe=256) failed: Connection timed out
[1741413413.818733] [ohm:1583803:0]        ib_iface.c:1059 UCX  ERROR ibv_create_cq(cqe=256) failed: Connection timed out
[1741413413.821601] [ohm:1583839:0]        ib_iface.c:1059 UCX  ERROR ibv_create_cq(cqe=256) failed: Connection timed out
[1741413413.826231] [ohm:1583712:0]        ib_iface.c:1059 UCX  ERROR ibv_create_cq(cqe=256) failed: Connection timed out
[1741413413.827823] [ohm:1583758:0]        ib_iface.c:1059 UCX  ERROR ibv_create_cq(cqe=256) failed: Connection timed out
[1741413413.837518] [ohm:1583755:0]        ib_iface.c:1059 UCX  ERROR ibv_create_cq(cqe=256) failed: Connection timed out
[1741413413.840015] [ohm:1583750:0]        ib_iface.c:1059 UCX  ERROR ibv_create_cq(cqe=256) failed: Connection timed out
[1741413413.840385] [ohm:1583770:0]        ib_iface.c:1059 UCX  ERROR ibv_create_cq(cqe=256) failed: Connection timed out
[1741413413.843056] [ohm:1583829:0]        ib_iface.c:1059 UCX  ERROR ibv_create_cq(cqe=256) failed: Connection timed out
[1741413413.849495] [ohm:1583753:0]        ib_iface.c:1059 UCX  ERROR ibv_create_cq(cqe=256) failed: Connection timed out
[1741413413.854961] [ohm:1583713:0]        ib_iface.c:1059 UCX  ERROR ibv_create_cq(cqe=256) failed: Connection timed out
[1741413413.855409] [ohm:1583835:0]        ib_iface.c:1059 UCX  ERROR ibv_create_cq(cqe=256) failed: Connection timed out
[1741413413.863765] [ohm:1583833:0]        ib_iface.c:1059 UCX  ERROR ibv_create_cq(cqe=256) failed: Connection timed out
[1741413413.866319] [ohm:1583789:0]        ib_iface.c:1059 UCX  ERROR ibv_create_cq(cqe=256) failed: Connection timed out
[1741413413.866342] [ohm:1583817:0]        ib_iface.c:1059 UCX  ERROR ibv_create_cq(cqe=256) failed: Connection timed out
[1741413413.869966] [ohm:1583799:0]        ib_iface.c:1059 UCX  ERROR ibv_create_cq(cqe=256) failed: Connection timed out
[1741413413.875383] [ohm:1583810:0]        ib_iface.c:1059 UCX  ERROR ibv_create_cq(cqe=256) failed: Connection timed out
[1741413413.876607] [ohm:1583707:0]        ib_iface.c:1059 UCX  ERROR ibv_create_cq(cqe=256) failed: Connection timed out
[1741413413.877695] [ohm:1583786:0]        ib_iface.c:1059 UCX  ERROR ibv_create_cq(cqe=256) failed: Connection timed out
[1741413413.882012] [ohm:1583767:0]        ib_iface.c:1059 UCX  ERROR ibv_create_cq(cqe=256) failed: Connection timed out
[1741413413.886490] [ohm:1583801:0]        ib_iface.c:1059 UCX  ERROR ibv_create_cq(cqe=256) failed: Connection timed out
[1741413413.897701] [ohm:1583708:0]        ib_iface.c:1059 UCX  ERROR ibv_create_cq(cqe=256) failed: Connection timed out
[1741413413.897789] [ohm:1583725:0]        ib_iface.c:1059 UCX  ERROR ibv_create_cq(cqe=256) failed: Connection timed out
[1741413413.897961] [ohm:1583780:0]        ib_iface.c:1059 UCX  ERROR ibv_create_cq(cqe=256) failed: Connection timed out
[1741413413.900959] [ohm:1583792:0]        ib_iface.c:1059 UCX  ERROR ibv_create_cq(cqe=256) failed: Connection timed out
[1741413413.901723] [ohm:1583710:0]        ib_iface.c:1059 UCX  ERROR ibv_create_cq(cqe=256) failed: Connection timed out
[1741413413.906521] [ohm:1583814:0]        ib_iface.c:1059 UCX  ERROR ibv_create_cq(cqe=256) failed: Connection timed out
[1741413413.912088] [ohm:1583828:0]        ib_iface.c:1059 UCX  ERROR ibv_create_cq(cqe=256) failed: Connection timed out
[1741413413.917238] [ohm:1583821:0]        ib_iface.c:1059 UCX  ERROR ibv_create_cq(cqe=256) failed: Connection timed out
[1741413413.925424] [ohm:1583720:0]        ib_iface.c:1059 UCX  ERROR ibv_create_cq(cqe=256) failed: Connection timed out
[1741413413.925628] [ohm:1583807:0]        ib_iface.c:1059 UCX  ERROR ibv_create_cq(cqe=256) failed: Connection timed out
[1741413413.926681] [ohm:1583733:0]        ib_iface.c:1059 UCX  ERROR ibv_create_cq(cqe=256) failed: Connection timed out
[1741413413.927872] [ohm:1583759:0]        ib_iface.c:1059 UCX  ERROR ibv_create_cq(cqe=256) failed: Connection timed out
[1741413413.929196] [ohm:1583727:0]        ib_iface.c:1059 UCX  ERROR ibv_create_cq(cqe=256) failed: Connection timed out
[1741413413.929675] [ohm:1583711:0]        ib_iface.c:1059 UCX  ERROR ibv_create_cq(cqe=256) failed: Connection timed out
[1741413413.929881] [ohm:1583825:0]        ib_iface.c:1059 UCX  ERROR ibv_create_cq(cqe=256) failed: Connection timed out
[1741413413.930215] [ohm:1583743:0]        ib_iface.c:1059 UCX  ERROR ibv_create_cq(cqe=256) failed: Connection timed out
[1741413413.932086] [ohm:1583775:0]        ib_iface.c:1059 UCX  ERROR ibv_create_cq(cqe=256) failed: Connection timed out
[1741413413.932344] [ohm:1583795:0]        ib_iface.c:1059 UCX  ERROR ibv_create_cq(cqe=256) failed: Connection timed out
[1741413413.932958] [ohm:1583702:0]        ib_iface.c:1059 UCX  ERROR ibv_create_cq(cqe=256) failed: Connection timed out

--------------------------------
SUGGESTED CITATIONS FOR THIS RUN
--------------------------------

Below you find a list of papers that are relevant to this ORCA run
We neither can nor want to force you to cite these papers, but we appreciate if you do
You receive ORCA, which is the product of decades of hard work by many enthusiastic individuals, for free
The only thing we kindly ask in return is that you cite our papers,
We deeply appreciate it, if you show your appreciation for ORCA by not just citing the generic ORCA reference.

Please note that relegating all ORCA citations to the supporting information does *not* help us.
SI sections are not indexed - citations you put there will not count into any citation statistics
But we need these citations in order to attract the funding resources that allow us to do what we are doing

Therefore, if you are a happy ORCA user, please consider citing a few of the papers listed below in the main body of your paper

In addition to the list printed below, the program has created the file orca.bibtex that contains the list in bibtex format
You can import this file easily into all common literature databanks and citation aid programs


List of essential papers. We consider these as the minimum necessary citations

  1. Neese,F.
     Software update: the ORCA program system, version 5.0
     WIRES Comput. Molec. Sci., 2022 12(1)e1606
     doi.org/10.1002/wcms.1606

List of papers to cite with high priority. The work reported in these papers was absolutely
necessary for this run to complete.
Our perspective: the developers of density functionals and basis sets usually get cited in chemistry papers
Good! But without the algorithms to do something with them, the functionals or basis sets would not do anything.
Hence, in our opinion, the algorithm design and method developments papers are equally worthy of getting cited

  1. Neese,F.; Olbrich,G.
     Efficient use of the resolution of the identity approximation in time-dependent density functional calculations with hybrid density functionals
     Chem. Phys. Lett., 2002 362 170-178
     doi.org/10.1016/s0009-2614(02)01053-9
  2. Neese,F.
     An improvement of the resolution of the identity approximation for the formation of the Coulomb matrix
     J. Comp. Chem., 2003 24(14)1740-1747
     doi.org/10.1002/jcc.10318
  3. Neese,F.; Wennmohs,F.; Hansen,A.; Becker,U.
     Efficient, approximate and parallel Hartree-Fock and hybrid DFT calculations. A 'chain-of-spheres' algorithm for the Hartree-Fock exchange
     Chem. Phys., 2009 356(1-3)98-109
     doi.org/10.1016/j.chemphys.2008.10.036
  4. Petrenko,T.; Kossmann,S.; Neese,F.
     Efficient time-dependent density functional theory approximations for hybrid density functionals: Analytical gradients and parallelization
     J. Chem. Phys., 2011 134 054116
     doi.org/10.1063/1.3533441
  5. Helmich-Paris,B.; de Souza,B.; Neese,F.; Izsák,R.
     An improved chain of spheres for exchange algorithm
     J. Chem. Phys., 2021 155 104109
     doi.org/doi: 10.1063/5.0058766.
  6. Neese,F.
     The SHARK Integral Generation and Digestion System
     J. Comp. Chem., 2022  1-16
     doi.org/10.1002/jcc.26942
  7. Lehtola,S.; Steigemann,C.; Oliveira,M.; Marques,M.
     Recent developments in Libxc - A comprehensive library of functionals for density functional theory
     Software X, 2018 7 
     doi.org/10.1016/j.softx.2017.11.002
  8. Grimme,S.; Antony,J.; Ehrlich,S.; Krieg,H.
     A consistent and accurate ab initio parametrization of density functional dispersion correction (DFT-D) for the 94 elements H-Pu
     J. Chem. Phys., 2010 132 154104-XXXX
     doi.org/10.1063/1.3382344
  9. Grimme,S.; Ehrlich,S.; Goerigk,L.
     Effect of the damping function in dispersion corrected density functional theory
     J. Comput. Chem., 2011 32(7)1456-1465
     doi.org/10.1002/jcc.21759

List of suggested additional citations. These are papers that are important in the 'surrounding' of 
of this run, or papers that preceded the highly important papers. If you like your results we are grateful for a citation.

  1. Izsak,R.; Neese,F.
     An overlap fitted chain of spheres exchange method
     J. Chem. Phys., 2011 135 144105
     doi.org/10.1063/1.3646921
  2. Izsak,R.; Hansen,A.; Neese,F.
     The resolution of identity and chain of spheres approximations for the LPNO-CCSD singles Fock term
     Molec. Phys., 2012 110 2413-2417
     doi.org/10.1080/00268976.2012.687466
  3. Neese,F.
     The ORCA program system
     WIRES Comput. Molec. Sci., 2012 2(1)73-78
     doi.org/10.1002/wcms.81
  4. Izsak,R.; Neese,F.; Klopper,W.
     Robust fitting techniques in the chain of spheres approximation to the Fock exchange: The role of the complementary space
     J. Chem. Phys., 2013 139 
     doi.org/10.1063/1.4819264
  5. Neese,F.
     Software update: the ORCA program system, version 4.0
     WIRES Comput. Molec. Sci., 2018 8(1)1-6
     doi.org/10.1002/wcms.1327
  6. Neese,F.; Wennmohs,F.; Becker,U.; Riplinger,C.
     The ORCA quantum chemistry program package
     J. Chem. Phys., 2020 152 Art. No. L224108
     doi.org/10.1063/5.0004608

List of optional additional citations

  1. Neese,F.
     Approximate second-order SCF convergence for spin unrestricted wavefunctions
     Chem. Phys. Lett., 2000 325(1-3)93-98
     doi.org/10.1016/s0009-2614(00)00662-x

Timings for individual modules:

Sum of individual times          ...      318.889 sec (=   5.315 min)
Startup calculation              ...        6.448 sec (=   0.107 min)   2.0 %
SCF iterations                   ...      131.584 sec (=   2.193 min)  41.3 %
Property integrals               ...        4.214 sec (=   0.070 min)   1.3 %
Property calculations            ...        2.754 sec (=   0.046 min)   0.9 %
CIS module                       ...      173.890 sec (=   2.898 min)  54.5 %
                             ****ORCA TERMINATED NORMALLY****
TOTAL RUN TIME: 0 days 0 hours 5 minutes 20 seconds 895 msec
