7
Properties=species:S:1:pos:R:3:momenta:R:3:forces:R:3 Coordinates=T from=T ORCA-job=T orca=T E=T -153.773453807806=T energy=-4183.704629952914 free_energy=-4183.704629952914 stress="-1.804490980177143e-06 -4.298026903752612e-06 1.2047084589731272e-06 -4.298026903752612e-06 1.1205810446997661e-05 1.226597378372037e-06 1.2047084589731272e-06 1.226597378372037e-06 -1.31621500322086e-06" pbc="F F F"
O        0.57805865       1.19318274       0.22862811       0.34597925      -0.18413853      -0.58518297       0.74908227      -1.54520345      -0.11249672
C        0.57931584      -0.25139546       0.00741572      -1.06393458       0.45613344       0.30573005      -0.53655470       0.08852217       0.08248396
C       -0.79704413      -0.77481486       0.08157733       0.56970876      -0.00171653       0.11929241       0.19483867      -0.33943777      -0.30967621
H        1.26833582      -0.81712455       0.68253067      -0.11038489      -0.00543902      -0.15423517      -0.15703279       0.96128395       0.18324602
H        1.03003908      -0.54663576      -0.94460319       0.07325997       0.18422147       0.15104094       0.13802104       0.66597193      -0.24638817
H       -1.12054799      -1.54764823      -0.60484737       0.23567885      -0.35736899       0.05170633      -0.03640665       0.06973772       0.20510649
H       -1.46483744      -0.35102776       0.79244775      -0.05030736      -0.09169185       0.11164842      -0.35194786       0.09912545       0.19772462
