
                                 *****************
                                 * O   R   C   A *
                                 *****************

                                            #,                                       
                                            ###                                      
                                            ####                                     
                                            #####                                    
                                            ######                                   
                                           ########,                                 
                                     ,,################,,,,,                         
                               ,,#################################,,                 
                          ,,##########################################,,             
                       ,#########################################, ''#####,          
                    ,#############################################,,   '####,        
                  ,##################################################,,,,####,       
                ,###########''''           ''''###############################       
              ,#####''   ,,,,##########,,,,          '''####'''          '####       
            ,##' ,,,,###########################,,,                        '##       
           ' ,,###''''                  '''############,,,                           
         ,,##''                                '''############,,,,        ,,,,,,###''
      ,#''                                            '''#######################'''  
     '                                                          ''''####''''         
             ,#######,   #######,   ,#######,      ##                                
            ,#'     '#,  ##    ##  ,#'     '#,    #''#        ,####,   ,####,        
            ##       ##  ##   ,#'  ##            #'  '#       #'       #'  '#        
            ##       ##  #######   ##           ,######,      #####,   #    #        
            '#,     ,#'  ##    ##  '#,     ,#' ,#      #,     #,   #   #,  ,#        
             '#######'   ##     ##  '#######'  #'      '#     '####' # '####'        



                #########################################################
                #                        -***-                          #
                #          Department of theory and spectroscopy        #
                #                                                       #
                #                      Frank Neese                      #
                #                                                       #
                #     Directorship, Architecture, Infrastructure        #
                #                    SHARK, DRIVERS                     #
                #        Core code/Algorithms in most modules           #
                #                                                       #
                #        Max Planck Institute fuer Kohlenforschung      #
                #                Kaiser Wilhelm Platz 1                 #
                #                 D-45470 Muelheim/Ruhr                 #
                #                      Germany                          #
                #                                                       #
                #                  All rights reserved                  #
                #                        -***-                          #
                #########################################################


                         Program Version 6.0.0  -   RELEASE  -


 With contributions from (in alphabetic order):
   Daniel Aravena         : Magnetic Suceptibility
   Michael Atanasov       : Ab Initio Ligand Field Theory (pilot matlab implementation)
   Alexander A. Auer      : GIAO ZORA, VPT2 properties, NMR spectrum
   Ute Becker             : All parallelization in ORCA, NUMFREQ, NUMCALC
   Giovanni Bistoni       : ED, misc. LED, open-shell LED, HFLD
   Martin Brehm           : Molecular dynamics
   Dmytro Bykov           : pre 5.0 version of the SCF Hessian
   Marcos Casanova-Páez   : Triplet and SCS-CIS(D). UHF-(DLPNO)-IP/EA/STEOM-CCSD. UHF-CVS-IP/STEOM-CCSD
   Vijay G. Chilkuri      : MRCI spin determinant printing, contributions to CSF-ICE
   Pauline Colinet        : FMM embedding
   Dipayan Datta          : RHF DLPNO-CCSD density
   Achintya Kumar Dutta   : EOM-CC, STEOM-CC
   Nicolas Foglia         : Exact transition moments, OPA infrastructure, MCD improvements
   Dmitry Ganyushin       : Spin-Orbit,Spin-Spin,Magnetic field MRCI
   Miquel Garcia          : C-PCM and meta-GGA Hessian, CCSD/C-PCM, Gaussian charge scheme
   Tiago L. C. Gouveia    : GS-ROHF, GS-ROCIS
   Yang Guo               : DLPNO-NEVPT2, F12-NEVPT2, CIM, IAO-localization
   Andreas Hansen         : Spin unrestricted coupled pair/coupled cluster methods
   Ingolf Harden          : AUTO-CI MPn and infrastructure 
   Benjamin Helmich-Paris : MC-RPA, TRAH-(SCF,CASSCF), AVAS, COSX integrals, SCF dyn. polar.
   Lee Huntington         : MR-EOM, pCC
   Robert Izsak           : Overlap fitted RIJCOSX, COSX-SCS-MP3, EOM
   Riya Kayal             : Wick's Theorem for AUTO-CI, AUTO-CI UHF-CCSDT
   Emily Kempfer          : AUTO-CI, RHF CISDT and CCSDT
   Christian Kollmar      : KDIIS, OOCD, Brueckner-CCSD(T), CCSD density, CASPT2, CASPT2-K, improved NEVPT2
   Axel Koslowski         : Symmetry handling
   Simone Kossmann        : Meta GGA functionals, TD-DFT gradient, OOMP2, (MP2 Hessian; deprecated post 5.0)
   Lucas Lang             : DCDCAS
   Marvin Lechner         : AUTO-CI (C++ implementation), FIC-MRCC
   Spencer Leger          : CASSCF response
   Dagmar Lenk            : GEPOL surface, SMD, ORCA-2-JSON
   Dimitrios Liakos       : Extrapolation schemes; Compound Job, initial MDCI parallelization
   Dimitrios Manganas     : Further ROCIS development; embedding schemes. LFT, Crystal Embedding
   Dimitrios Pantazis     : SARC Basis sets
   Anastasios Papadopoulos: AUTO-CI, single reference methods and gradients
   Taras Petrenko         : pre 6.0 DFT Hessian and TD-DFT gradient, (ASA, deprecated), ECA, 1-Electron XAS/XES, NRVS
   Peter Pinski           : DLPNO-MP2, DLPNO-MP2 Gradient
   Christoph Reimann      : Effective Core Potentials
   Marius Retegan         : Local ZFS, SOC
   Christoph Riplinger    : Optimizer, TS searches, QM/MM, DLPNO-CCSD(T), (RO)-DLPNO pert. Triples
   Michael Roemelt        : Original ROCIS implementation
   Masaaki Saitow         : Open-shell DLPNO-CCSD energy and density
   Barbara Sandhoefer     : DKH picture change effects
   Kantharuban Sivalingam : CASSCF convergence/infrastructure, NEVPT2 and variants, FIC-MRCI
   Bernardo de Souza      : ESD, SOC TD-DFT
   Georgi Stoychev        : AutoAux, RI-MP2 NMR, DLPNO-MP2 response, X2C
   Van Anh Tran           : RI-MP2 g-tensors
   Willem Van den Heuvel  : Paramagnetic NMR
   Zikuan Wang            : NOTCH, Electric field optimization 
   Frank Wennmohs         : Technical directorship and infrastructure
   Hang Xu                : AUTO-CI-Response properties 


 We gratefully acknowledge several colleagues who have allowed us to
 interface, adapt or use parts of their codes:
   Stefan Grimme, W. Hujo, H. Kruse, P. Pracht,  : VdW corrections, initial TS optimization,
                  C. Bannwarth, S. Ehlert,         DFT functionals, gCP, sTDA/sTD-DF
                  L. Wittmann, M. Mueller
   Ed Valeev, F. Pavosevic, A. Kumar             : LibInt (2-el integral package), F12 methods
   Garnet Chan, S. Sharma, J. Yang, R. Olivares  : DMRG
   Ulf Ekstrom                                   : XCFun DFT Library
   Mihaly Kallay                                 : mrcc  (arbitrary order and MRCC methods)
   Frank Weinhold                                : gennbo (NPA and NBO analysis)
   Simon Mueller                                 : openCOSMO-RS
   Christopher J. Cramer and Donald G. Truhlar   : smd solvation model
   Lars Goerigk                                  : TD-DFT with DH, B97 family of functionals
   V. Asgeirsson, H. Jonsson                     : NEB implementation
   FAccTs GmbH                                   : IRC, NEB, NEB-TS, DLPNO-Multilevel, CI-OPT
                                                   MM, QMMM, 2- and 3-layer-ONIOM, Crystal-QMMM,
                                                   LR-CPCM, SF, NACMEs, symmetry and pop. for TD-DFT,
                                                   nearIR, NL-DFT gradient (VV10), updates on ESD,
                                                   ML-optimized integration grids, MBIS, APM,
                                                   GOAT, DOCKER, SOLVATOR, interface openCOSMO-RS
   S Lehtola, MJT Oliveira, MAL Marques          : LibXC Library
   Liviu Ungur et al                             : ANISO software


 Your calculation uses the libint2 library for the computation of 2-el integrals
 For citations please refer to: http://libint.valeyev.net

 Your ORCA version has been built with support for libXC version: 6.2.2
 For citations please refer to: https://libxc.gitlab.io

 This ORCA versions uses:
   CBLAS   interface :  Fast vector & matrix operations
   LAPACKE interface :  Fast linear algebra routines
   SCALAPACK package :  Parallel linear algebra routines
   Shared memory     :  Shared parallel matrices
   BLAS/LAPACK       :  OpenBLAS 0.3.27  USE64BITINT DYNAMIC_ARCH NO_AFFINITY Zen SINGLE_THREADED
        Core in use  :  Zen
   Copyright (c) 2011-2014, The OpenBLAS Project


Your calculation utilizes the atom-pairwise dispersion correction
with the Becke-Johnson damping scheme (D3BJ)


Warning: RI is on but no J-basis has been assigned. Assigning Def2/J (nothing to worry about!)
================================================================================

----- Orbital basis set information -----
Your calculation utilizes the basis: def2-TZVPPD
   F. Weigend and R. Ahlrichs, Phys. Chem. Chem. Phys. 7, 3297 (2005).
   D. Rappoport and F. Furche, J. Chem. Phys. 133, 134105 (2010)
   D. Rappoport, J. Chem. Phys. 155, 124102 (2021).

----- AuxJ basis set information -----
Your calculation utilizes the auxiliary basis: def2/J
   F. Weigend, Phys. Chem. Chem. Phys. 8, 1057 (2006).

================================================================================
                                        WARNINGS
                       Please study these warnings very carefully!
================================================================================

Using LibXC functional ID 531 : wB97M-V exchange-correlation functional
[ 1]  N. Mardirossian and M. Head-Gordon.,  J. Chem. Phys. 144, 214110 (2016)
Using LibXC functional ID 531 : wB97M-V exchange-correlation functional
[ 1]  N. Mardirossian and M. Head-Gordon.,  J. Chem. Phys. 144, 214110 (2016)

WARNING: B97M-V or wB97M-V functional requested.
  ===> : libXC variant has now been activated.
         Any manually given DFX/HFX/RangeSep scaling parameters are IGNORED!

Your calculation utilizes LibXC
 by S Lehtola, C Steigemann, MJT Oliveira & MAL Marques
Please cite in your paper:
 S Lehtola, C Steigemann, MJT Oliveira & MAL Marques, SoftwareX, 7, (2018), 1.
   


WARNING: your system is open-shell and RHF/RKS was chosen
  ===> : WILL SWITCH to UHF/UKS

INFO   : Checking CIS options ...

WARNING: CIS/ROCIS methods need fully converged wavefunctions
  ===> : Setting SCFConvForced true
         You can overwrite this default with %scf ConvForced false 


================================================================================
                                       INPUT FILE
================================================================================
NAME = orca.inp
|  1> ! EnGrad wB97M-D3BJ def2-TZVPPD 
|  2> %pal nprocs 8 end%pal nprocs 16 end 
|  3> %tddft 
|  4>  sf true 
|  5>  nroots 2 Iroot 1 end 
|  6> *xyz 0 3 
|  7> O   0.59414395776798 1.1876840953348 0.31908582032432
|  8> C   0.60039308740096 0.16232482352908 -0.32165409112694
|  9> C   -0.4417644477547 -0.82170372198089 0.17825440197601
| 10> H   0.04172847364236 -1.51379377768068 0.8706021196197
| 11> H   1.29558805125726 -0.05039704437894 -1.14597425383719
| 12> H   -0.89107908176485 -1.42510350029851 -0.6113438439543
| 13> H   -1.19681004054903 -0.25741087452485 0.71102984699841
| 14> *
| 15> 
| 16>                          ****END OF INPUT****
================================================================================

                     *******************************
                     * Energy+Gradient Calculation *
                     *******************************

---------------------------------
CARTESIAN COORDINATES (ANGSTROEM)
---------------------------------
  O      0.594144    1.187684    0.319086
  C      0.600393    0.162325   -0.321654
  C     -0.441764   -0.821704    0.178254
  H      0.041728   -1.513794    0.870602
  H      1.295588   -0.050397   -1.145974
  H     -0.891079   -1.425104   -0.611344
  H     -1.196810   -0.257411    0.711030

----------------------------
CARTESIAN COORDINATES (A.U.)
----------------------------
  NO LB      ZA    FRAG     MASS         X           Y           Z
   0 O     8.0000    0    15.999    1.122769    2.244398    0.602985
   1 C     6.0000    0    12.011    1.134579    0.306749   -0.607838
   2 C     6.0000    0    12.011   -0.834814   -1.552795    0.336852
   3 H     1.0000    0     1.008    0.078855   -2.860656    1.645200
   4 H     1.0000    0     1.008    2.448307   -0.095237   -2.165577
   5 H     1.0000    0     1.008   -1.683895   -2.693055   -1.155272
   6 H     1.0000    0     1.008   -2.261643   -0.486436    1.343652

--------------------------------
INTERNAL COORDINATES (ANGSTROEM)
--------------------------------
 O      0   0   0     0.000000000000     0.00000000     0.00000000
 C      1   0   0     1.209110549960     0.00000000     0.00000000
 C      2   1   0     1.517996379421   111.81818742     0.00000000
 H      3   2   1     1.091833051508   108.40418269   264.36723769
 H      2   1   3     1.099113443421   124.39074276   181.85869717
 H      3   2   1     1.090614653664   113.76986902   145.58634053
 H      3   2   1     1.082760333457   107.63482136    22.24201069

---------------------------
INTERNAL COORDINATES (A.U.)
---------------------------
 O      0   0   0     0.000000000000     0.00000000     0.00000000
 C      1   0   0     2.284887805060     0.00000000     0.00000000
 C      2   1   0     2.868597429391   111.81818742     0.00000000
 H      3   2   1     2.063265451314   108.40418269   264.36723769
 H      2   1   3     2.077023398176   124.39074276   181.85869717
 H      3   2   1     2.060963013065   113.76986902   145.58634053
 H      3   2   1     2.046120498906   107.63482136    22.24201069

---------------------
BASIS SET INFORMATION
---------------------
There are 3 groups of distinct atoms

 Group   1 Type O   : 12s7p3d1f contracted to 6s4p3d1f pattern {621111/4111/111/1}
 Group   2 Type C   : 12s6p3d1f contracted to 6s3p3d1f pattern {621111/411/111/1}
 Group   3 Type H   : 5s3p1d contracted to 3s3p1d pattern {311/111/1}

Atom   0O    basis set group =>   1
Atom   1C    basis set group =>   2
Atom   2C    basis set group =>   2
Atom   3H    basis set group =>   3
Atom   4H    basis set group =>   3
Atom   5H    basis set group =>   3
Atom   6H    basis set group =>   3
---------------------------------
AUXILIARY/J BASIS SET INFORMATION
---------------------------------
There are 3 groups of distinct atoms

 Group   1 Type O   : 12s5p4d2f1g contracted to 6s4p3d1f1g pattern {711111/2111/211/2/1}
 Group   2 Type C   : 12s5p4d2f1g contracted to 6s4p3d1f1g pattern {711111/2111/211/2/1}
 Group   3 Type H   : 5s2p1d contracted to 3s1p1d pattern {311/2/1}

Atom   0O    basis set group =>   1
Atom   1C    basis set group =>   2
Atom   2C    basis set group =>   2
Atom   3H    basis set group =>   3
Atom   4H    basis set group =>   3
Atom   5H    basis set group =>   3
Atom   6H    basis set group =>   3
[1740997267.717221] [ohm:3160509:0]        ib_iface.c:1059 UCX  ERROR ibv_create_cq(cqe=256) failed: Connection timed out
[1740997267.717254] [ohm:3160511:0]        ib_iface.c:1059 UCX  ERROR ibv_create_cq(cqe=256) failed: Connection timed out
[1740997267.717233] [ohm:3160513:0]        ib_iface.c:1059 UCX  ERROR ibv_create_cq(cqe=256) failed: Connection timed out
[1740997267.722670] [ohm:3160515:0]        ib_iface.c:1059 UCX  ERROR ibv_create_cq(cqe=256) failed: Connection timed out
[1740997267.722913] [ohm:3160512:0]        ib_iface.c:1059 UCX  ERROR ibv_create_cq(cqe=256) failed: Connection timed out
[1740997267.723213] [ohm:3160514:0]        ib_iface.c:1059 UCX  ERROR ibv_create_cq(cqe=256) failed: Connection timed out
[1740997267.723419] [ohm:3160508:0]        ib_iface.c:1059 UCX  ERROR ibv_create_cq(cqe=256) failed: Connection timed out
[1740997267.724207] [ohm:3160518:0]        ib_iface.c:1059 UCX  ERROR ibv_create_cq(cqe=256) failed: Connection timed out
[1740997267.724421] [ohm:3160520:0]        ib_iface.c:1059 UCX  ERROR ibv_create_cq(cqe=256) failed: Connection timed out
[1740997267.724527] [ohm:3160510:0]        ib_iface.c:1059 UCX  ERROR ibv_create_cq(cqe=256) failed: Connection timed out
[1740997267.725661] [ohm:3160521:0]        ib_iface.c:1059 UCX  ERROR ibv_create_cq(cqe=256) failed: Connection timed out
[1740997267.729129] [ohm:3160516:0]        ib_iface.c:1059 UCX  ERROR ibv_create_cq(cqe=256) failed: Connection timed out
[1740997267.738009] [ohm:3160531:0]        ib_iface.c:1059 UCX  ERROR ibv_create_cq(cqe=256) failed: Connection timed out
[1740997267.739662] [ohm:3160524:0]        ib_iface.c:1059 UCX  ERROR ibv_create_cq(cqe=256) failed: Connection timed out
[1740997267.747354] [ohm:3160536:0]        ib_iface.c:1059 UCX  ERROR ibv_create_cq(cqe=256) failed: Connection timed out
[1740997267.750182] [ohm:3160538:0]        ib_iface.c:1059 UCX  ERROR ibv_create_cq(cqe=256) failed: Connection timed out


           ************************************************************
           *        Program running with 16 parallel MPI-processes    *
           *              working on a common directory               *
           ************************************************************
------------------------------------------------------------------------------
                             ORCA STARTUP CALCULATIONS
                           -- RI-GTO INTEGRALS CHOSEN --
------------------------------------------------------------------------------
------------------------------------------------------------------------------
                   ___                                                        
                  /   \      - P O W E R E D   B Y -                         
                 /     \                                                     
                 |  |  |   _    _      __       _____    __    __             
                 |  |  |  | |  | |    /  \     |  _  \  |  |  /  |          
                  \  \/   | |  | |   /    \    | | | |  |  | /  /          
                 / \  \   | |__| |  /  /\  \   | |_| |  |  |/  /          
                |  |  |   |  __  | /  /__\  \  |    /   |      \           
                |  |  |   | |  | | |   __   |  |    \   |  |\   \          
                \     /   | |  | | |  |  |  |  | |\  \  |  | \   \       
                 \___/    |_|  |_| |__|  |__|  |_| \__\ |__|  \__/        
                                                                              
                      - O R C A' S   B I G   F R I E N D -                    
                                      &                                       
                       - I N T E G R A L  F E E D E R -                       
                                                                              
 v1 FN, 2020, v2 2021, v3 2022-2024                                           
------------------------------------------------------------------------------


----------------------
SHARK INTEGRAL PACKAGE
----------------------

Number of atoms                             ...      7
Number of basis functions                   ...    182
Number of shells                            ...     68
Maximum angular momentum                    ...      3
Integral batch strategy                     ... SHARK/LIBINT Hybrid
RI-J (if used) integral strategy            ... SPLIT-RIJ (Revised 2003 algorithm where possible)
Printlevel                                  ...      1
Contraction scheme used                     ... SEGMENTED contraction
Prescreening option                         ... SCHWARTZ
   Thresh                                   ... 2.500e-11
   Tcut                                     ... 2.500e-12
   Tpresel                                  ... 2.500e-12 
Coulomb Range Separation                    ... NOT USED
Exchange Range Separation                   ... Long Range
   Mu parameter                             ... 3.000e-01
   Scaling (regular/separated)              ... 1.500e-01 8.500e-01
Multipole approximations                    ... NOT USED
Finite Nucleus Model                        ... NOT USED
CABS basis                                  ... NOT available
Auxiliary Coulomb fitting basis             ... AVAILABLE
   # of basis functions in Aux-J            ...    191
   # of shells in Aux-J                     ...     65
   Maximum angular momentum in Aux-J        ...      4
Auxiliary J/K fitting basis                 ... NOT available
Auxiliary Correlation fitting basis         ... NOT available
Auxiliary 'external' fitting basis          ... NOT available

Checking pre-screening integrals            ... done (  0.0 sec) Dimension = 68
Check shell pair data                       ... done (  0.0 sec)
Shell pair information
Shell pair cut-off parameter TPreSel        ...   2.5e-12
Total number of shell pairs                 ...      2346
Shell pairs after pre-screening             ...      2329
Total number of primitive shell pairs       ...      5434
Primitive shell pairs kept                  ...      4837
          la=0 lb=0:    455 shell pairs
          la=1 lb=0:    656 shell pairs
          la=1 lb=1:    253 shell pairs
          la=2 lb=0:    387 shell pairs
          la=2 lb=1:    286 shell pairs
          la=2 lb=2:     91 shell pairs
          la=3 lb=0:     90 shell pairs
          la=3 lb=1:     66 shell pairs
          la=3 lb=2:     39 shell pairs
          la=3 lb=3:      6 shell pairs

Calculating one electron integrals          ... done (  0.0 sec)
Calculating RI/J V-Matrix + Cholesky decomp.... done (  0.0 sec)
Calculating Nuclear repulsion               ... done (  0.0 sec) ENN=     70.411792130026 Eh

Diagonalization of the overlap matrix:
Smallest eigenvalue                        ... 1.745e-05
Time for diagonalization                   ...    0.003 sec
Threshold for overlap eigenvalues          ... 1.000e-07
Number of eigenvalues below threshold      ... 0
Time for construction of square roots      ...    0.001 sec
Total time needed                          ...    0.005 sec

-------------------
DFT GRID GENERATION
-------------------

General Integration Accuracy     IntAcc      ... 4.388
Radial Grid Type                 RadialGrid  ... OptM3 with GC (2021)
Angular Grid (max. ang.)         AngularGrid ... 4 (Lebedev-302)
Angular grid pruning method      GridPruning ... 4 (adaptive)
Weight generation scheme         WeightScheme... mBecke (2022)
Basis function cutoff            BFCut       ... 1.0000e-11
Integration weight cutoff        WCut        ... 1.0000e-14
Partially contracted basis set               ... off
Rotationally invariant grid construction     ... off
Angular grids for H and He will be reduced by one unit
Diffuse basis detected: some atoms will have their outermost
                        angular grid increased by 1.

Total number of grid points                  ...    33143
Total number of batches                      ...      521
Average number of points per batch           ...       63
Average number of grid points per atom       ...     4735

--------------------
COSX GRID GENERATION
--------------------

GRIDX 1
-------
General Integration Accuracy     IntAcc      ... 3.816
Radial Grid Type                 RadialGrid  ... OptM3 with GC (2021)
Angular Grid (max. ang.)         AngularGrid ... 1 (Lebedev-50)
Angular grid pruning method      GridPruning ... 4 (adaptive)
Weight generation scheme         WeightScheme... mBecke (2022)
Basis function cutoff            BFCut       ... 1.0000e-11
Integration weight cutoff        WCut        ... 1.0000e-14
Partially contracted basis set               ... on
Rotationally invariant grid construction     ... off
Angular grids for H and He will be reduced by one unit
Diffuse basis detected: some atoms will have their outermost
                        angular grid increased by 1.

Total number of grid points                  ...     4174
Total number of batches                      ...       36
Average number of points per batch           ...      115
Average number of grid points per atom       ...      596
UseSFitting                                  ... on

GRIDX 2
-------
General Integration Accuracy     IntAcc      ... 4.020
Radial Grid Type                 RadialGrid  ... OptM3 with GC (2021)
Angular Grid (max. ang.)         AngularGrid ... 2 (Lebedev-110)
Angular grid pruning method      GridPruning ... 4 (adaptive)
Weight generation scheme         WeightScheme... mBecke (2022)
Basis function cutoff            BFCut       ... 1.0000e-11
Integration weight cutoff        WCut        ... 1.0000e-14
Partially contracted basis set               ... on
Rotationally invariant grid construction     ... off
Angular grids for H and He will be reduced by one unit
Diffuse basis detected: some atoms will have their outermost
                        angular grid increased by 1.

Total number of grid points                  ...    10294
Total number of batches                      ...       84
Average number of points per batch           ...      122
Average number of grid points per atom       ...     1471
UseSFitting                                  ... on

GRIDX 3
-------
General Integration Accuracy     IntAcc      ... 4.338
Radial Grid Type                 RadialGrid  ... OptM3 with GC (2021)
Angular Grid (max. ang.)         AngularGrid ... 3 (Lebedev-194)
Angular grid pruning method      GridPruning ... 4 (adaptive)
Weight generation scheme         WeightScheme... mBecke (2022)
Basis function cutoff            BFCut       ... 1.0000e-11
Integration weight cutoff        WCut        ... 1.0000e-14
Partially contracted basis set               ... on
Rotationally invariant grid construction     ... off
Angular grids for H and He will be reduced by one unit
Diffuse basis detected: some atoms will have their outermost
                        angular grid increased by 1.

Total number of grid points                  ...    23191
Total number of batches                      ...      184
Average number of points per batch           ...      126
Average number of grid points per atom       ...     3313
UseSFitting                                  ... on
Initializing property integral containers    ... done (  0.0 sec)

SHARK setup successfully completed in   0.3 seconds

Maximum memory used throughout the entire STARTUP-calculation: 13.8 MB
[1740997268.696787] [ohm:3160607:0]        ib_iface.c:1059 UCX  ERROR ibv_create_cq(cqe=256) failed: Connection timed out
[1740997268.700959] [ohm:3160609:0]        ib_iface.c:1059 UCX  ERROR ibv_create_cq(cqe=256) failed: Connection timed out
[1740997268.718565] [ohm:3160605:0]        ib_iface.c:1059 UCX  ERROR ibv_create_cq(cqe=256) failed: Connection timed out
[1740997268.718564] [ohm:3160614:0]        ib_iface.c:1059 UCX  ERROR ibv_create_cq(cqe=256) failed: Connection timed out
[1740997268.719942] [ohm:3160611:0]        ib_iface.c:1059 UCX  ERROR ibv_create_cq(cqe=256) failed: Connection timed out
[1740997268.720549] [ohm:3160608:0]        ib_iface.c:1059 UCX  ERROR ibv_create_cq(cqe=256) failed: Connection timed out
[1740997268.720537] [ohm:3160606:0]        ib_iface.c:1059 UCX  ERROR ibv_create_cq(cqe=256) failed: Connection timed out
[1740997268.720682] [ohm:3160604:0]        ib_iface.c:1059 UCX  ERROR ibv_create_cq(cqe=256) failed: Connection timed out
[1740997268.721364] [ohm:3160610:0]        ib_iface.c:1059 UCX  ERROR ibv_create_cq(cqe=256) failed: Connection timed out
[1740997268.721444] [ohm:3160612:0]        ib_iface.c:1059 UCX  ERROR ibv_create_cq(cqe=256) failed: Connection timed out
[1740997268.734685] [ohm:3160617:0]        ib_iface.c:1059 UCX  ERROR ibv_create_cq(cqe=256) failed: Connection timed out
[1740997268.738787] [ohm:3160623:0]        ib_iface.c:1059 UCX  ERROR ibv_create_cq(cqe=256) failed: Connection timed out
[1740997268.740920] [ohm:3160616:0]        ib_iface.c:1059 UCX  ERROR ibv_create_cq(cqe=256) failed: Connection timed out
[1740997268.741896] [ohm:3160632:0]        ib_iface.c:1059 UCX  ERROR ibv_create_cq(cqe=256) failed: Connection timed out
[1740997268.744443] [ohm:3160619:0]        ib_iface.c:1059 UCX  ERROR ibv_create_cq(cqe=256) failed: Connection timed out
[1740997268.744446] [ohm:3160628:0]        ib_iface.c:1059 UCX  ERROR ibv_create_cq(cqe=256) failed: Connection timed out


           ************************************************************
           *        Program running with 16 parallel MPI-processes    *
           *              working on a common directory               *
           ************************************************************
-------------------------------------------------------------------------------
                                 ORCA GUESS
                   Start orbitals & Density for SCF / CASSCF
-------------------------------------------------------------------------------

------------
SCF SETTINGS
------------
Hamiltonian:
 Density Functional     Method          .... DFT(GTOs)
  Functional kind                       .... Exchange-Correlation
  Functional name                       .... wB97M-V exchange-correlation functional
  Functional family                     .... Hybrid MGGA
  Functional refs                              
    [ 0] N. Mardirossian and M. Head-Gordon.,  J. Chem. Phys. 144, 214110 (2016), doi: 10.1063/1.4952647
  Fraction of HF Exchange (short range) .... 0.1500
  Fraction of HF Exchange (long range)  .... 1.0000
  Range separation parameter mu         .... 0.3000
  Functional external parameters        .... 17
    Parameter  0 _cx00      =  8.500000e-01 : u^00 coefficient for exchange
    Parameter  1 _cx01      =  1.007000e+00 : u^01 coefficient for exchange
    Parameter  2 _cx10      =  2.590000e-01 : u^10 coefficient for exchange
    Parameter  3 _css00     =  4.430000e-01 : u^00 coefficient for same-spin correlation
    Parameter  4 _css04     = -1.437000e+00 : u^04 coefficient for same-spin correlation
    Parameter  5 _css10     = -4.535000e+00 : u^10 coefficient for same-spin correlation
    Parameter  6 _css20     = -3.390000e+00 : u^20 coefficient for same-spin correlation
    Parameter  7 _css43     =  4.278000e+00 : u^43 coefficient for same-spin correlation
    Parameter  8 _cos00     =  1.000000e+00 : u^00 coefficient for opposite-spin correlation
    Parameter  9 _cos10     =  1.358000e+00 : u^10 coefficient for opposite-spin correlation
    Parameter 10 _cos20     =  2.924000e+00 : u^20 coefficient for opposite-spin correlation
    Parameter 11 _cos21     = -8.812000e+00 : u^21 coefficient for opposite-spin correlation
    Parameter 12 _cos60     = -1.390000e+00 : u^60 coefficient for opposite-spin correlation
    Parameter 13 _cos61     =  9.142000e+00 : u^61 coefficient for opposite-spin correlation
    Parameter 14 _alpha     =  1.000000e+00 : fraction of HF exchange
    Parameter 15 _beta      = -8.500000e-01 : fraction of short-range exchange
    Parameter 16 _omega     =  3.000000e-01 : range-separation constant
 Long-range corrected/Screened/Range-Separated Hybrid DFT is turned on
   Amount of maximum screened exact exchange              ....  0.850000
   Range separation parameter mu (erf(mu*r12)/r12)        ....  0.300000
 RI-approximation to the Coulomb term is turned on
   Number of AuxJ basis functions       .... 191
   RIJ-COSX (HFX calculated with COS-X)).... on


General Settings:
 Integral files         IntName         .... orca
 Hartree-Fock type      HFTyp           .... UHF
 Total Charge           Charge          ....    0
 Multiplicity           Mult            ....    3
 Number of Electrons    NEL             ....   24
 Basis Dimension        Dim             ....  182
 Nuclear Repulsion      ENuc            ....     70.4117921300 Eh

Convergence Acceleration:
 AO-DIIS                CNVDIIS         .... on
   Start iteration      DIISMaxIt       ....    12
   Startup error        DIISStart       ....  0.200000
   # of expansion vecs  DIISMaxEq       ....     5
   Bias factor          DIISBfac        ....   1.050
   Max. coefficient     DIISMaxC        ....  10.000
 MO-DIIS                CNVKDIIS        .... off
 Trust-Rad. Augm. Hess. CNVTRAH         .... auto
   Auto Start mean grad. ratio tolernc. ....  1.125000
   Auto Start start iteration           ....    50
   Auto Start num. interpolation iter.  ....    10
   Max. Number of Micro iterations      ....    24
   Max. Number of Macro iterations      .... Maxiter - #DIIS iter
   Number of Davidson start vectors     ....     2
   Converg. threshold    (grad. norm)   ....   1.000e-05
   Grad. Scal. Fac. for Micro threshold ....   0.100
   Minimum threshold for Micro iter.    ....   1.000e-02
   NR start threshold (gradient norm)   ....   1.000e-04
   Initial trust radius                 ....   0.400
   Minimum AH scaling param. (alpha)    ....   1.000
   Maximum AH scaling param. (alpha)    .... 1000.000
   Quad. conv. algorithm                .... NR
   White noise on init. David. guess    .... on
   Maximum white noise                  ....   0.010
   Pseudo random numbers                .... off
   Inactive MOs                         .... canonical
   Orbital update algorithm             .... Taylor
   Preconditioner                       .... Diag
   Full preconditioner red. dimension   ....   250
 SOSCF                  CNVSOSCF        .... on
   Start iteration      SOSCFMaxIt      ....   150
   Startup grad/error   SOSCFStart      ....  0.003300
   Hessian update       SOSCFHessUp     .... L-BFGS
 Level Shifting         CNVShift        .... on
   Level shift para.    LevelShift      ....    0.2500
   Turn off err/grad.   ShiftErr        ....    0.0010
 Zerner damping         CNVZerner       .... off
 Static damping         CNVDamp         .... on
   Fraction old density DampFac         ....    0.7000
   Max. Damping (<1)    DampMax         ....    0.9800
   Min. Damping (>=0)   DampMin         ....    0.0000
   Turn off err/grad.   DampErr         ....    0.1000

SCF Procedure:
 Maximum # iterations   MaxIter         ....   125
 SCF integral mode      SCFMode         .... Direct
   Integral package                     .... SHARK and LIBINT hybrid scheme
 Reset frequency        DirectResetFreq ....    20
 Integral Threshold     Thresh          ....  2.500e-11 Eh
 Primitive CutOff       TCut            ....  2.500e-12 Eh

Convergence Tolerance:
 Convergence Check Mode ConvCheckMode   .... Total+1el-Energy
 Convergence forced     ConvForced      .... 1
 Energy Change          TolE            ....  1.000e-08 Eh
 1-El. energy change                    ....  1.000e-05 Eh
 Orbital Gradient       TolG            ....  1.000e-05
 Orbital Rotation angle TolX            ....  1.000e-05
 DIIS Error             TolErr          ....  5.000e-07

------------------------------
INITIAL GUESS: MODEL POTENTIAL
------------------------------
Loading Hartree-Fock densities                     ... done
Calculating cut-offs                               ... done
Initializing the effective Hamiltonian             ... done
Setting up the integral package (SHARK)            ... done
Starting the Coulomb interaction                   ... done (   0.0 sec)
Making the grid                                    ... done (   0.0 sec)
Mapping shells                                     ... done
Starting the XC term evaluation                    ... done (   0.0 sec)
  promolecular density results
     # of electrons  =     23.998624062
     EX              =    -19.517114452
     EC              =     -0.771842566
     EX+EC           =    -20.288957018
Transforming the Hamiltonian                       ... done (   0.0 sec)
Diagonalizing the Hamiltonian                      ... done (   0.0 sec)
Back transforming the eigenvectors                 ... done (   0.0 sec)
Now organizing SCF variables                       ... done
                      ------------------
                      INITIAL GUESS DONE (   0.1 sec)
                      ------------------
             **** ENERGY FILE WAS UPDATED (orca.en.tmp) ****
Finished Guess after   0.5 sec
Maximum memory used throughout the entire GUESS-calculation: 9.7 MB
[1740997269.458415] [ohm:3160691:0]        ib_iface.c:1059 UCX  ERROR ibv_create_cq(cqe=256) failed: Connection timed out
[1740997269.458666] [ohm:3160695:0]        ib_iface.c:1059 UCX  ERROR ibv_create_cq(cqe=256) failed: Connection timed out
[1740997269.461806] [ohm:3160693:0]        ib_iface.c:1059 UCX  ERROR ibv_create_cq(cqe=256) failed: Connection timed out
[1740997269.461939] [ohm:3160692:0]        ib_iface.c:1059 UCX  ERROR ibv_create_cq(cqe=256) failed: Connection timed out
[1740997269.464664] [ohm:3160690:0]        ib_iface.c:1059 UCX  ERROR ibv_create_cq(cqe=256) failed: Connection timed out
[1740997269.466217] [ohm:3160697:0]        ib_iface.c:1059 UCX  ERROR ibv_create_cq(cqe=256) failed: Connection timed out
[1740997269.468233] [ohm:3160700:0]        ib_iface.c:1059 UCX  ERROR ibv_create_cq(cqe=256) failed: Connection timed out
[1740997269.470855] [ohm:3160698:0]        ib_iface.c:1059 UCX  ERROR ibv_create_cq(cqe=256) failed: Connection timed out
[1740997269.472094] [ohm:3160696:0]        ib_iface.c:1059 UCX  ERROR ibv_create_cq(cqe=256) failed: Connection timed out
[1740997269.472527] [ohm:3160694:0]        ib_iface.c:1059 UCX  ERROR ibv_create_cq(cqe=256) failed: Connection timed out
[1740997269.487021] [ohm:3160707:0]        ib_iface.c:1059 UCX  ERROR ibv_create_cq(cqe=256) failed: Connection timed out
[1740997269.487193] [ohm:3160702:0]        ib_iface.c:1059 UCX  ERROR ibv_create_cq(cqe=256) failed: Connection timed out
[1740997269.487255] [ohm:3160714:0]        ib_iface.c:1059 UCX  ERROR ibv_create_cq(cqe=256) failed: Connection timed out
[1740997269.487527] [ohm:3160716:0]        ib_iface.c:1059 UCX  ERROR ibv_create_cq(cqe=256) failed: Connection timed out
[1740997269.518910] [ohm:3160722:0]        ib_iface.c:1059 UCX  ERROR ibv_create_cq(cqe=256) failed: Connection timed out
[1740997269.520040] [ohm:3160719:0]        ib_iface.c:1059 UCX  ERROR ibv_create_cq(cqe=256) failed: Connection timed out


           ************************************************************
           *        Program running with 16 parallel MPI-processes    *
           *              working on a common directory               *
           ************************************************************

-------------------------------------------------------------------------------------------
                                      ORCA LEAN-SCF
                              memory conserving SCF solver
-------------------------------------------------------------------------------------------

----------------------------------------D-I-I-S--------------------------------------------
Iteration    Energy (Eh)           Delta-E    RMSDP     MaxDP     DIISErr   Damp  Time(sec)
-------------------------------------------------------------------------------------------
               ***  Starting incremental Fock matrix formation  ***
    1    -153.7070394321578704     0.00e+00  8.14e-04  2.42e-02  7.87e-02  0.700   0.4
    2    -153.7367784256739469    -2.97e-02  7.39e-04  2.21e-02  4.76e-02  0.700   0.3
                               ***Turning on AO-DIIS***
    3    -153.7528471494693179    -1.61e-02  5.94e-04  1.98e-02  2.48e-02  0.700   0.3
    4    -153.7626213735444765    -9.77e-03  1.45e-03  4.61e-02  1.68e-02  0.000   0.3
    5    -153.7845948399896372    -2.20e-02  1.22e-04  4.48e-03  4.37e-03  0.000   0.3
                              *** Initializing SOSCF ***
---------------------------------------S-O-S-C-F--------------------------------------
Iteration    Energy (Eh)           Delta-E    RMSDP     MaxDP     MaxGrad    Time(sec)
--------------------------------------------------------------------------------------
    6    -153.7849444774881817    -3.50e-04  8.05e-05  1.99e-03  2.67e-03     0.3
               *** Restarting incremental Fock matrix formation ***
    7    -153.7851421280557247    -1.98e-04  5.39e-05  1.22e-03  2.84e-03     0.4
    8    -153.7852179801101045    -7.59e-05  8.74e-05  1.89e-03  1.12e-03     0.4
    9    -153.7852655636836801    -4.76e-05  2.48e-05  7.22e-04  2.94e-04     0.4
   10    -153.7852685717006977    -3.01e-06  9.07e-06  2.81e-04  9.84e-05     0.3
   11    -153.7852688241026158    -2.52e-07  2.31e-06  5.10e-05  5.55e-05     0.3
   12    -153.7852689024536232    -7.84e-08  1.75e-06  4.55e-05  2.40e-05     0.3
   13    -153.7852689159889792    -1.35e-08  5.57e-07  1.55e-05  1.63e-05     0.3
   14    -153.7852689175605008    -1.57e-09  6.67e-07  3.17e-05  1.04e-05     0.3
                 **** Energy Check signals convergence ****

               *****************************************************
               *                     SUCCESS                       *
               *           SCF CONVERGED AFTER  14 CYCLES          *
               *****************************************************

Recomputing exchange energy using gridx3       ... done (    0.410 sec)
Old exchange energy                            :     -6.202851939 Eh
New exchange energy                            :     -6.202837851 Eh
Exchange energy change after final integration :      0.000014088 Eh
Total energy after final integration           :   -153.785254829 Eh
             **** ENERGY FILE WAS UPDATED (orca.en.tmp) ****

----------------
TOTAL SCF ENERGY
----------------

Total Energy       :       -153.78525482919159 Eh           -4184.70953 eV

Components:
Nuclear Repulsion  :         70.41179213002587 Eh            1916.00227 eV
Electronic Energy  :       -224.19706104758637 Eh           -6100.71219 eV
One Electron Energy:       -347.12907518233840 Eh           -9445.86235 eV
Two Electron Energy:        122.93201413475202 Eh            3345.15017 eV

Virial components:
Potential Energy   :       -307.35893827137170 Eh           -8363.66191 eV
Kinetic Energy     :        153.57368344218011 Eh            4178.95238 eV
Virial Ratio       :          2.00137765392006

DFT components:
N(Alpha)           :       12.999987441374 electrons
N(Beta)            :       10.999989590191 electrons
N(Total)           :       23.999977031565 electrons
E(XC)              :      -14.750089875751 Eh       

---------------
SCF CONVERGENCE
---------------

  Last Energy change         ...    1.5715e-09  Tolerance :   1.0000e-08
  Last MAX-Density change    ...    3.1709e-05  Tolerance :   1.0000e-07
  Last RMS-Density change    ...    6.6746e-07  Tolerance :   5.0000e-09
  Last DIIS Error            ...    2.6718e-03  Tolerance :   5.0000e-07
  Last Orbital Gradient      ...    1.0409e-05  Tolerance :   1.0000e-05
  Last Orbital Rotation      ...    7.2666e-05  Tolerance :   1.0000e-05


----------------------
UHF SPIN CONTAMINATION
----------------------

Warning: in a DFT calculation there is little theoretical justification to 
         calculate <S**2> as in Hartree-Fock theory. We will do it anyways
         but you should keep in mind that the values have only limited relevance

Expectation value of <S**2>     :     2.005413
Ideal value S*(S+1) for S=1.0   :     2.000000
Deviation                       :     0.005413

----------------
ORBITAL ENERGIES
----------------
                 SPIN UP ORBITALS
  NO   OCC          E(Eh)            E(eV) 
   0   1.0000     -19.411840      -528.2230 
   1   1.0000     -10.382871      -282.5323 
   2   1.0000     -10.366816      -282.0954 
   3   1.0000      -1.247586       -33.9485 
   4   1.0000      -0.874822       -23.8051 
   5   1.0000      -0.722469       -19.6594 
   6   1.0000      -0.639293       -17.3960 
   7   1.0000      -0.584146       -15.8954 
   8   1.0000      -0.581759       -15.8305 
   9   1.0000      -0.513915       -13.9843 
  10   1.0000      -0.508604       -13.8398 
  11   1.0000      -0.436425       -11.8757 
  12   1.0000      -0.226706        -6.1690 
  13   0.0000       0.043055         1.1716 
  14   0.0000       0.060494         1.6461 
  15   0.0000       0.079071         2.1516 
  16   0.0000       0.088353         2.4042 
  17   0.0000       0.108774         2.9599 
  18   0.0000       0.126411         3.4398 
  19   0.0000       0.134457         3.6588 
  20   0.0000       0.145526         3.9600 
  21   0.0000       0.171277         4.6607 
  22   0.0000       0.187622         5.1054 
  23   0.0000       0.198348         5.3973 

                 SPIN DOWN ORBITALS
  NO   OCC          E(Eh)            E(eV) 
   0   1.0000     -19.383951      -527.4641 
   1   1.0000     -10.372491      -282.2498 
   2   1.0000     -10.364394      -282.0295 
   3   1.0000      -1.189220       -32.3603 
   4   1.0000      -0.855005       -23.2659 
   5   1.0000      -0.679242       -18.4831 
   6   1.0000      -0.585661       -15.9366 
   7   1.0000      -0.542340       -14.7578 
   8   1.0000      -0.532550       -14.4914 
   9   1.0000      -0.501962       -13.6591 
  10   1.0000      -0.468851       -12.7581 
  11   0.0000      -0.079555        -2.1648 
  12   0.0000       0.042231         1.1492 
  13   0.0000       0.059961         1.6316 
  14   0.0000       0.078067         2.1243 
  15   0.0000       0.080006         2.1771 
  16   0.0000       0.088868         2.4182 
  17   0.0000       0.108917         2.9638 
  18   0.0000       0.126957         3.4547 
  19   0.0000       0.135933         3.6989 
  20   0.0000       0.145005         3.9458 
  21   0.0000       0.174625         4.7518 
*Only the first 10 virtual orbitals were printed.

                    ********************************
                    * MULLIKEN POPULATION ANALYSIS *
                    ********************************

--------------------------------------------
MULLIKEN ATOMIC CHARGES AND SPIN POPULATIONS
--------------------------------------------
   0 O :   -0.294869    0.985295
   1 C :   -0.025141    0.785702
   2 C :   -0.595341    0.117602
   3 H :    0.187304    0.035664
   4 H :    0.284486    0.045797
   5 H :    0.205751    0.019955
   6 H :    0.237811    0.009985
Sum of atomic charges         :   -0.0000000
Sum of atomic spin populations:    2.0000000

-----------------------------------------------------
MULLIKEN REDUCED ORBITAL CHARGES AND SPIN POPULATIONS
-----------------------------------------------------
CHARGE
  0 O s       :     4.010559  s :     4.010559
      pz      :     1.466440  p :     4.233389
      px      :     1.381424
      py      :     1.385525
      dz2     :     0.012357  d :     0.048924
      dxz     :     0.005331
      dyz     :     0.010592
      dx2y2   :     0.007619
      dxy     :     0.013026
      f0      :     0.000145  f :     0.001998
      f+1     :     0.000017
      f-1     :     0.000605
      f+2     :     0.000316
      f-2     :     0.000346
      f+3     :     0.000347
      f-3     :     0.000222

  1 C s       :     3.305075  s :     3.305075
      pz      :     0.927673  p :     2.595164
      px      :     0.962958
      py      :     0.704534
      dz2     :     0.034756  d :     0.109950
      dxz     :     0.017333
      dyz     :     0.018378
      dx2y2   :     0.006338
      dxy     :     0.033145
      f0      :     0.001065  f :     0.014952
      f+1     :     0.000637
      f-1     :     0.003966
      f+2     :     0.002308
      f-2     :     0.002757
      f+3     :     0.002503
      f-3     :     0.001717

  2 C s       :     3.289752  s :     3.289752
      pz      :     1.140158  p :     3.206741
      px      :     0.998136
      py      :     1.068448
      dz2     :    -0.001341  d :     0.095712
      dxz     :     0.018829
      dyz     :     0.039204
      dx2y2   :     0.021093
      dxy     :     0.017927
      f0      :     0.000187  f :     0.003136
      f+1     :     0.000310
      f-1     :     0.000402
      f+2     :     0.000154
      f-2     :     0.000948
      f+3     :     0.000632
      f-3     :     0.000503

  3 H s       :     0.753361  s :     0.753361
      pz      :     0.024809  p :     0.057169
      px      :     0.009555
      py      :     0.022805
      dz2     :     0.000516  d :     0.002166
      dxz     :     0.000404
      dyz     :     0.000402
      dx2y2   :     0.000401
      dxy     :     0.000443

  4 H s       :     0.673513  s :     0.673513
      pz      :     0.012135  p :     0.039486
      px      :     0.020151
      py      :     0.007200
      dz2     :     0.000760  d :     0.002515
      dxz     :     0.000546
      dyz     :     0.000551
      dx2y2   :     0.000344
      dxy     :     0.000314

  5 H s       :     0.744516  s :     0.744516
      pz      :     0.009691  p :     0.047563
      px      :     0.012360
      py      :     0.025513
      dz2     :     0.000621  d :     0.002170
      dxz     :     0.000410
      dyz     :     0.000477
      dx2y2   :     0.000307
      dxy     :     0.000355

  6 H s       :     0.722587  s :     0.722587
      pz      :     0.015548  p :     0.037390
      px      :     0.017241
      py      :     0.004601
      dz2     :     0.000397  d :     0.002212
      dxz     :     0.000431
      dyz     :     0.000356
      dx2y2   :     0.000558
      dxy     :     0.000469


SPIN
  0 O s       :     0.004034  s :     0.004034
      pz      :     0.286489  p :     0.971372
      px      :     0.527779
      py      :     0.157104
      dz2     :     0.003843  d :     0.010018
      dxz     :     0.000974
      dyz     :     0.002525
      dx2y2   :     0.001202
      dxy     :     0.001475
      f0      :    -0.000023  f :    -0.000129
      f+1     :     0.000010
      f-1     :     0.000031
      f+2     :    -0.000103
      f-2     :    -0.000005
      f+3     :     0.000011
      f-3     :    -0.000050

  1 C s       :     0.003345  s :     0.003345
      pz      :     0.302480  p :     0.707003
      px      :     0.315420
      py      :     0.089103
      dz2     :     0.028202  d :     0.073739
      dxz     :     0.008893
      dyz     :     0.007276
      dx2y2   :     0.000888
      dxy     :     0.028480
      f0      :     0.000011  f :     0.001616
      f+1     :    -0.000137
      f-1     :     0.000539
      f+2     :    -0.000135
      f-2     :     0.000680
      f+3     :     0.000491
      f-3     :     0.000167

  2 C s       :     0.049272  s :     0.049272
      pz      :    -0.008490  p :     0.044706
      px      :     0.010542
      py      :     0.042654
      dz2     :    -0.005407  d :     0.022700
      dxz     :    -0.002752
      dyz     :     0.016265
      dx2y2   :     0.014398
      dxy     :     0.000196
      f0      :     0.000033  f :     0.000923
      f+1     :     0.000204
      f-1     :     0.000073
      f+2     :     0.000069
      f-2     :     0.000133
      f+3     :     0.000190
      f-3     :     0.000222

  3 H s       :     0.024029  s :     0.024029
      pz      :     0.005657  p :     0.011459
      px      :     0.003572
      py      :     0.002230
      dz2     :     0.000008  d :     0.000176
      dxz     :     0.000053
      dyz     :     0.000021
      dx2y2   :     0.000054
      dxy     :     0.000039

  4 H s       :     0.006923  s :     0.006923
      pz      :     0.011874  p :     0.038031
      px      :     0.019250
      py      :     0.006907
      dz2     :     0.000551  d :     0.000844
      dxz     :    -0.000038
      dyz     :     0.000058
      dx2y2   :     0.000152
      dxy     :     0.000121

  5 H s       :     0.015220  s :     0.015220
      pz      :     0.000971  p :     0.004570
      px      :     0.000620
      py      :     0.002978
      dz2     :     0.000089  d :     0.000164
      dxz     :     0.000011
      dyz     :     0.000018
      dx2y2   :     0.000010
      dxy     :     0.000036

  6 H s       :     0.008892  s :     0.008892
      pz      :    -0.002019  p :     0.000951
      px      :     0.001940
      py      :     0.001030
      dz2     :     0.000014  d :     0.000142
      dxz     :     0.000033
      dyz     :     0.000024
      dx2y2   :     0.000072
      dxy     :    -0.000001



                     *******************************
                     * LOEWDIN POPULATION ANALYSIS *
                     *******************************

-------------------------------------------
LOEWDIN ATOMIC CHARGES AND SPIN POPULATIONS
-------------------------------------------
   0 O :    0.153077    0.973077
   1 C :   -0.264495    0.667373
   2 C :    0.150178    0.172274
   3 H :   -0.018758    0.033484
   4 H :    0.011676    0.129909
   5 H :   -0.012574    0.019265
   6 H :   -0.019104    0.004619

----------------------------------------------------
LOEWDIN REDUCED ORBITAL CHARGES AND SPIN POPULATIONS
----------------------------------------------------
CHARGE
  0 O s       :     3.375962  s :     3.375962
      pz      :     1.414691  p :     4.145532
      px      :     1.256392
      py      :     1.474449
      dz2     :     0.068905  d :     0.317444
      dxz     :     0.030503
      dyz     :     0.078327
      dx2y2   :     0.056317
      dxy     :     0.083393
      f0      :     0.000550  f :     0.007984
      f+1     :     0.000038
      f-1     :     0.002447
      f+2     :     0.001239
      f-2     :     0.001392
      f+3     :     0.001379
      f-3     :     0.000940

  1 C s       :     2.692878  s :     2.692878
      pz      :     0.886933  p :     2.622851
      px      :     0.874719
      py      :     0.861199
      dz2     :     0.140800  d :     0.844734
      dxz     :     0.118230
      dyz     :     0.210819
      dx2y2   :     0.197338
      dxy     :     0.177547
      f0      :     0.007151  f :     0.104032
      f+1     :     0.003395
      f-1     :     0.028495
      f+2     :     0.016566
      f-2     :     0.018132
      f+3     :     0.017932
      f-3     :     0.012361

  2 C s       :     2.644375  s :     2.644375
      pz      :     0.920477  p :     2.685450
      px      :     0.889148
      py      :     0.875825
      dz2     :     0.045705  d :     0.487724
      dxz     :     0.095256
      dyz     :     0.138821
      dx2y2   :     0.089682
      dxy     :     0.118260
      f0      :     0.004164  f :     0.032273
      f+1     :     0.003944
      f-1     :     0.003999
      f+2     :     0.002118
      f-2     :     0.006309
      f+3     :     0.005920
      f-3     :     0.005818

  3 H s       :     0.702036  s :     0.702036
      pz      :     0.103966  p :     0.286570
      px      :     0.084879
      py      :     0.097724
      dz2     :     0.007133  d :     0.030152
      dxz     :     0.005228
      dyz     :     0.007046
      dx2y2   :     0.005077
      dxy     :     0.005667

  4 H s       :     0.683286  s :     0.683286
      pz      :     0.111396  p :     0.274726
      px      :     0.104725
      py      :     0.058605
      dz2     :     0.009599  d :     0.030312
      dxz     :     0.008232
      dyz     :     0.004815
      dx2y2   :     0.003971
      dxy     :     0.003696

  5 H s       :     0.703522  s :     0.703522
      pz      :     0.104725  p :     0.279202
      px      :     0.082952
      py      :     0.091525
      dz2     :     0.007145  d :     0.029850
      dxz     :     0.006498
      dyz     :     0.007423
      dx2y2   :     0.004298
      dxy     :     0.004487

  6 H s       :     0.694853  s :     0.694853
      pz      :     0.091079  p :     0.293126
      px      :     0.105125
      py      :     0.096922
      dz2     :     0.005485  d :     0.031125
      dxz     :     0.006765
      dyz     :     0.004986
      dx2y2   :     0.006796
      dxy     :     0.007093


SPIN
  0 O s       :     0.009176  s :     0.009176
      pz      :     0.256052  p :     0.850267
      px      :     0.460490
      py      :     0.133725
      dz2     :     0.041099  d :     0.110617
      dxz     :     0.013872
      dyz     :     0.010956
      dx2y2   :     0.009030
      dxy     :     0.035661
      f0      :     0.000052  f :     0.003017
      f+1     :     0.000023
      f-1     :     0.001434
      f+2     :    -0.000081
      f-2     :     0.000704
      f+3     :     0.000710
      f-3     :     0.000174

  1 C s       :     0.003849  s :     0.003849
      pz      :     0.184203  p :     0.447475
      px      :     0.195859
      py      :     0.067413
      dz2     :     0.067722  d :     0.184455
      dxz     :     0.025011
      dyz     :     0.015315
      dx2y2   :     0.007764
      dxy     :     0.068643
      f0      :     0.001421  f :     0.031593
      f+1     :    -0.000061
      f-1     :     0.009576
      f+2     :     0.001319
      f-2     :     0.010044
      f+3     :     0.006280
      f-3     :     0.003014

  2 C s       :     0.009493  s :     0.009493
      pz      :     0.003759  p :     0.067212
      px      :     0.018906
      py      :     0.044546
      dz2     :     0.016583  d :     0.089785
      dxz     :    -0.000251
      dyz     :     0.040927
      dx2y2   :     0.030663
      dxy     :     0.001862
      f0      :     0.000202  f :     0.005784
      f+1     :     0.001500
      f-1     :     0.000498
      f+2     :     0.000276
      f-2     :     0.000551
      f+3     :     0.001171
      f-3     :     0.001587

  3 H s       :     0.020364  s :     0.020364
      pz      :     0.003574  p :     0.012047
      px      :     0.002730
      py      :     0.005743
      dz2     :     0.000021  d :     0.001073
      dxz     :     0.000251
      dyz     :     0.000198
      dx2y2   :     0.000509
      dxy     :     0.000094

  4 H s       :     0.042840  s :     0.042840
      pz      :     0.032772  p :     0.078608
      px      :     0.033756
      py      :     0.012080
      dz2     :     0.005705  d :     0.008460
      dxz     :     0.000119
      dyz     :     0.000281
      dx2y2   :     0.001294
      dxy     :     0.001060

  5 H s       :     0.012886  s :     0.012886
      pz      :     0.000172  p :     0.005495
      px      :     0.001301
      py      :     0.004022
      dz2     :     0.000588  d :     0.000883
      dxz     :     0.000003
      dyz     :     0.000076
      dx2y2   :     0.000015
      dxy     :     0.000202

  6 H s       :     0.002106  s :     0.002106
      pz      :     0.000310  p :     0.001146
      px      :     0.001836
      py      :    -0.001001
      dz2     :     0.000037  d :     0.001367
      dxz     :     0.000423
      dyz     :     0.000106
      dx2y2   :     0.000828
      dxy     :    -0.000027



                      *****************************
                      * MAYER POPULATION ANALYSIS *
                      *****************************

  NA   - Mulliken gross atomic population
  ZA   - Total nuclear charge
  QA   - Mulliken gross atomic charge
  VA   - Mayer's total valence
  BVA  - Mayer's bonded valence
  FA   - Mayer's free valence

  ATOM       NA         ZA         QA         VA         BVA        FA
  0 O      8.2949     8.0000    -0.2949     2.0910     1.4307     0.6603
  1 C      6.0251     6.0000    -0.0251     3.3434     2.8089     0.5345
  2 C      6.5953     6.0000    -0.5953     3.7183     3.7047     0.0136
  3 H      0.8127     1.0000     0.1873     1.0513     1.0500     0.0013
  4 H      0.7155     1.0000     0.2845     0.9393     0.9351     0.0042
  5 H      0.7942     1.0000     0.2058     1.0308     1.0303     0.0005
  6 H      0.7622     1.0000     0.2378     0.9929     0.9928     0.0001

  Mayer bond orders larger than 0.100000
B(  0-O ,  1-C ) :   1.2528 B(  0-O ,  2-C ) :   0.1117 B(  1-C ,  2-C ) :   0.6697 
B(  1-C ,  4-H ) :   0.9174 B(  2-C ,  3-H ) :   0.9925 B(  2-C ,  5-H ) :   0.9928 
B(  2-C ,  6-H ) :   0.9609 

-------
TIMINGS
-------

Total SCF time: 0 days 0 hours 0 min 5 sec 

Total time                  ....       5.396 sec
Sum of individual times     ....       5.390 sec  ( 99.9%)

SCF preparation             ....       0.418 sec  (  7.8%)
Fock matrix formation       ....       4.435 sec  ( 82.2%)
  Startup                   ....       0.029 sec  (  0.6% of F)
  Split-RI-J                ....       0.185 sec  (  4.2% of F)
  Chain of spheres X        ....       2.909 sec  ( 65.6% of F)
  XC integration            ....       1.218 sec  ( 27.5% of F)
    XC Preparation          ....       0.000 sec  (  0.0% of XC)
    Basis function eval.    ....       0.083 sec  (  6.8% of XC)
    Density eval.           ....       0.364 sec  ( 29.9% of XC)
    XC-Functional eval.     ....       0.035 sec  (  2.9% of XC)
    XC-Potential eval.      ....       0.600 sec  ( 49.3% of XC)
Diagonalization             ....       0.000 sec  (  0.0%)
Density matrix formation    ....       0.065 sec  (  1.2%)
Total Energy calculation    ....       0.044 sec  (  0.8%)
Population analysis         ....       0.019 sec  (  0.4%)
Orbital Transformation      ....       0.051 sec  (  0.9%)
Orbital Orthonormalization  ....       0.000 sec  (  0.0%)
DIIS solution               ....       0.227 sec  (  4.2%)
SOSCF solution              ....       0.128 sec  (  2.4%)
Finished LeanSCF after   5.4 sec

Maximum memory used throughout the entire LEANSCF-calculation: 14.8 MB
[1740997275.167650] [ohm:3160804:0]        ib_iface.c:1059 UCX  ERROR ibv_create_cq(cqe=256) failed: Connection timed out
[1740997275.167911] [ohm:3160802:0]        ib_iface.c:1059 UCX  ERROR ibv_create_cq(cqe=256) failed: Connection timed out
[1740997275.167921] [ohm:3160806:0]        ib_iface.c:1059 UCX  ERROR ibv_create_cq(cqe=256) failed: Connection timed out
[1740997275.184553] [ohm:3160800:0]        ib_iface.c:1059 UCX  ERROR ibv_create_cq(cqe=256) failed: Connection timed out
[1740997275.201170] [ohm:3160813:0]        ib_iface.c:1059 UCX  ERROR ibv_create_cq(cqe=256) failed: Connection timed out
[1740997275.201616] [ohm:3160803:0]        ib_iface.c:1059 UCX  ERROR ibv_create_cq(cqe=256) failed: Connection timed out
[1740997275.201844] [ohm:3160799:0]        ib_iface.c:1059 UCX  ERROR ibv_create_cq(cqe=256) failed: Connection timed out
[1740997275.201860] [ohm:3160801:0]        ib_iface.c:1059 UCX  ERROR ibv_create_cq(cqe=256) failed: Connection timed out
[1740997275.203548] [ohm:3160811:0]        ib_iface.c:1059 UCX  ERROR ibv_create_cq(cqe=256) failed: Connection timed out
[1740997275.204277] [ohm:3160805:0]        ib_iface.c:1059 UCX  ERROR ibv_create_cq(cqe=256) failed: Connection timed out
[1740997275.206047] [ohm:3160809:0]        ib_iface.c:1059 UCX  ERROR ibv_create_cq(cqe=256) failed: Connection timed out
[1740997275.206764] [ohm:3160807:0]        ib_iface.c:1059 UCX  ERROR ibv_create_cq(cqe=256) failed: Connection timed out
[1740997275.219830] [ohm:3160820:0]        ib_iface.c:1059 UCX  ERROR ibv_create_cq(cqe=256) failed: Connection timed out
[1740997275.220359] [ohm:3160815:0]        ib_iface.c:1059 UCX  ERROR ibv_create_cq(cqe=256) failed: Connection timed out
[1740997275.226919] [ohm:3160827:0]        ib_iface.c:1059 UCX  ERROR ibv_create_cq(cqe=256) failed: Connection timed out
[1740997275.227119] [ohm:3160824:0]        ib_iface.c:1059 UCX  ERROR ibv_create_cq(cqe=256) failed: Connection timed out


           ************************************************************
           *        Program running with 16 parallel MPI-processes    *
           *              working on a common directory               *
           ************************************************************

------------------------------------------------------------------------------
                         ORCA PROPERTY INTEGRAL CALCULATIONS
------------------------------------------------------------------------------

GBWName                                   ... orca.gbw
Number of atoms                           ...      7
Number of basis functions                 ...    182
Max core memory                           ...   1024 MB

Dipole integrals                          ... YES
Quadrupole integrals                      ...  NO
Linear momentum integrals                 ... YES
Angular momentum integrals                ... YES
Higher moments length integrals           ...  NO
Higher moments velocity integrals         ...  NO
Kinetic energy integrals                  ...  NO
GIAO right hand sides                     ...  NO
GIAO dipole derivative integrals          ...  NO
SOC integrals                             ...  NO
EPR diamagnetic integrals (GIAO)          ...  NO
EPR gauge integrals                       ...  NO
Field gradient integrals                  ...  NO (   0 nuclei)
Spin-dipole/Fermi contact integrals       ...  NO (   0 nuclei)
Contact density integrals                 ...  NO (   0 nuclei)
Nucleus-orbit integrals                   ...  NO (   0 nuclei)
Geometric perturbations                   ...  NO (   7 nuclei)

Choice of electric origin   ... Center of mass
Position of electric origin ... (  0.4570,  0.3350,  0.1375) 
Choice of magnetic origin   ... GIAO
Position of magnetic origin ... (  0.0000,  0.0000,  0.0000) 

Calculating integrals                     ... Electric Dipole (Length)     done (  0.0 sec)
Calculating integrals                     ... Linear Momentum              done (  0.0 sec)
Calculating integrals                     ... Angular Momentum  (ElOri)    done (  0.0 sec)

Property integrals calculated in   0.0 sec

Maximum memory used throughout the entire PROPINT-calculation: 10.3 MB
[1740997275.873343] [ohm:3160886:0]        ib_iface.c:1059 UCX  ERROR ibv_create_cq(cqe=256) failed: Connection timed out
[1740997275.873589] [ohm:3160888:0]        ib_iface.c:1059 UCX  ERROR ibv_create_cq(cqe=256) failed: Connection timed out
[1740997275.873677] [ohm:3160884:0]        ib_iface.c:1059 UCX  ERROR ibv_create_cq(cqe=256) failed: Connection timed out
[1740997275.878198] [ohm:3160882:0]        ib_iface.c:1059 UCX  ERROR ibv_create_cq(cqe=256) failed: Connection timed out
[1740997275.879667] [ohm:3160885:0]        ib_iface.c:1059 UCX  ERROR ibv_create_cq(cqe=256) failed: Connection timed out
[1740997275.879966] [ohm:3160883:0]        ib_iface.c:1059 UCX  ERROR ibv_create_cq(cqe=256) failed: Connection timed out
[1740997275.879963] [ohm:3160887:0]        ib_iface.c:1059 UCX  ERROR ibv_create_cq(cqe=256) failed: Connection timed out
[1740997275.886418] [ohm:3160892:0]        ib_iface.c:1059 UCX  ERROR ibv_create_cq(cqe=256) failed: Connection timed out
[1740997275.889806] [ohm:3160889:0]        ib_iface.c:1059 UCX  ERROR ibv_create_cq(cqe=256) failed: Connection timed out
[1740997275.893315] [ohm:3160890:0]        ib_iface.c:1059 UCX  ERROR ibv_create_cq(cqe=256) failed: Connection timed out
[1740997275.896612] [ohm:3160899:0]        ib_iface.c:1059 UCX  ERROR ibv_create_cq(cqe=256) failed: Connection timed out
[1740997275.897544] [ohm:3160908:0]        ib_iface.c:1059 UCX  ERROR ibv_create_cq(cqe=256) failed: Connection timed out
[1740997275.902236] [ohm:3160914:0]        ib_iface.c:1059 UCX  ERROR ibv_create_cq(cqe=256) failed: Connection timed out
[1740997275.903082] [ohm:3160894:0]        ib_iface.c:1059 UCX  ERROR ibv_create_cq(cqe=256) failed: Connection timed out
[1740997275.903549] [ohm:3160904:0]        ib_iface.c:1059 UCX  ERROR ibv_create_cq(cqe=256) failed: Connection timed out
[1740997275.906508] [ohm:3160911:0]        ib_iface.c:1059 UCX  ERROR ibv_create_cq(cqe=256) failed: Connection timed out


           ************************************************************
           *        Program running with 16 parallel MPI-processes    *
           *              working on a common directory               *
           ************************************************************
------------------------------------------------------------------------------
                        ORCA TD-DFT/TDA CALCULATION
------------------------------------------------------------------------------

Input orbitals are from        ... orca.gbw
CI-vector output               ... orca.cis
Solver                         ... FN-2001
Tamm-Dancoff approximation     ... operative
CIS-Integral strategy          ... AO-integrals
Integral handling              ... AO integral Direct
Max. core memory used          ... 512 MB
Reference state                ... UHF
Follow IRoot                   ... off
Number of operators            ... 2
Orbital ranges used for CIS calculation:
 Operator 0:  Orbitals   3... 12  to  11...181

-------------------
XC-INTEGRATION GRID
-------------------

General Integration Accuracy     IntAcc      ... 3.467
Radial Grid Type                 RadialGrid  ... OptM3 with GC (2021)
Angular Grid (max. ang.)         AngularGrid ... 1 (Lebedev-50)
Angular grid pruning method      GridPruning ... 4 (adaptive)
Weight generation scheme         WeightScheme... mBecke (2022)
Basis function cutoff            BFCut       ... 1.0000e-11
Integration weight cutoff        WCut        ... 1.0000e-14
Partially contracted basis set               ... off
Rotationally invariant grid construction     ... off
Angular grids for H and He will be reduced by one unit
Diffuse basis detected: some atoms will have their outermost
                        angular grid increased by 1.

Total number of grid points                  ...     4743
Total number of batches                      ...       77
Average number of points per batch           ...       61
Average number of grid points per atom       ...      678

---------------------
COSX-INTEGRATION GRID
---------------------

General Integration Accuracy     IntAcc      ... 3.067
Radial Grid Type                 RadialGrid  ... OptM3 with GC (2021)
Angular Grid (max. ang.)         AngularGrid ... 1 (Lebedev-50)
Angular grid pruning method      GridPruning ... 4 (adaptive)
Weight generation scheme         WeightScheme... mBecke (2022)
Basis function cutoff            BFCut       ... 1.0000e-11
Integration weight cutoff        WCut        ... 1.0000e-14
Partially contracted basis set               ... on
Rotationally invariant grid construction     ... off
Angular grids for H and He will be reduced by one unit
Diffuse basis detected: some atoms will have their outermost
                        angular grid increased by 1.

Total number of grid points                  ...     2155
Total number of batches                      ...       22
Average number of points per batch           ...       97
Average number of grid points per atom       ...      308

---------------
TD-DFT XC SETUP
---------------

DFT calculation                         ... on
Name of the grid file                   ... orca.grid_cis.tmp
RI-approximation                        ... on
Aux-basis dimension                     ... 0
Functional (TD-DFT)
  Functional kind                       .... Exchange-Correlation
  Functional name                       .... wB97M-V exchange-correlation functional
  Functional family                     .... Hybrid MGGA
  Functional refs                              
    [ 0] N. Mardirossian and M. Head-Gordon.,  J. Chem. Phys. 144, 214110 (2016), doi: 10.1063/1.4952647
  Fraction of HF Exchange (short range) .... 0.1500
  Fraction of HF Exchange (long range)  .... 1.0000
  Range separation parameter mu         .... 0.3000
  Functional external parameters        .... 17
    Parameter  0 _cx00      =  8.500000e-01 : u^00 coefficient for exchange
    Parameter  1 _cx01      =  1.007000e+00 : u^01 coefficient for exchange
    Parameter  2 _cx10      =  2.590000e-01 : u^10 coefficient for exchange
    Parameter  3 _css00     =  4.430000e-01 : u^00 coefficient for same-spin correlation
    Parameter  4 _css04     = -1.437000e+00 : u^04 coefficient for same-spin correlation
    Parameter  5 _css10     = -4.535000e+00 : u^10 coefficient for same-spin correlation
    Parameter  6 _css20     = -3.390000e+00 : u^20 coefficient for same-spin correlation
    Parameter  7 _css43     =  4.278000e+00 : u^43 coefficient for same-spin correlation
    Parameter  8 _cos00     =  1.000000e+00 : u^00 coefficient for opposite-spin correlation
    Parameter  9 _cos10     =  1.358000e+00 : u^10 coefficient for opposite-spin correlation
    Parameter 10 _cos20     =  2.924000e+00 : u^20 coefficient for opposite-spin correlation
    Parameter 11 _cos21     = -8.812000e+00 : u^21 coefficient for opposite-spin correlation
    Parameter 12 _cos60     = -1.390000e+00 : u^60 coefficient for opposite-spin correlation
    Parameter 13 _cos61     =  9.142000e+00 : u^61 coefficient for opposite-spin correlation
    Parameter 14 _alpha     =  1.000000e+00 : fraction of HF exchange
    Parameter 15 _beta      = -8.500000e-01 : fraction of short-range exchange
    Parameter 16 _omega     =  3.000000e-01 : range-separation constant
Hybrid DFT                              ... on
   Exchange mixing (TD-DFT)             ...  0.150
   GGA exch. scaling (TD-DFT)           ...  0.000
   GGA corr. scaling (TD-DFT)           ...  1.000
Range-Separated Exchange                ... on
   Range Range separation parameter mu  .... 0.300
   Max. amount of RS exchange (TD-DFT)  ...  0.850

Building densities             ... done
Calculating rho(r) on the grid ... done
Building xc-kernel on the grid ... done
                    *** TD-DFT CALCULATION INITIALIZED ***

------------------------
DAVIDSON-DIAGONALIZATION
------------------------

Dimension of the eigenvalue problem            ...   1710
Number of roots to be determined               ...      2
Maximum size of the expansion space            ...     20
Maximum number of iterations                   ...    100
Convergence tolerance for the residual         ...    2.500e-07
Convergence tolerance for the energies         ...    2.500e-07
Orthogonality tolerance                        ...    1.000e-14
Level Shift                                    ...    0.000e+00
Constructing the preconditioner                ... o.k.
Building the initial guess                     ... o.k.
Number of trial vectors determined             ...     20


                       ****Iteration    0****
   Time for iteration     :  TOTAL=0.2 TRAFO=0.0 COSX=0.2
   Size of expansion space: 6
   Lowest Energy          :    -0.121246240435
   Maximum Energy change  :     0.121246240435 (vector 0)
   Maximum residual norm  :     0.004657614878

                       ****Iteration    1****
   Time for iteration     :  TOTAL=0.1 TRAFO=0.0 COSX=0.1
   Size of expansion space: 8
   Lowest Energy          :    -0.125096659687
   Maximum Energy change  :     0.011850152772 (vector 1)
   Maximum residual norm  :     0.000389278378

                       ****Iteration    2****
   Time for iteration     :  TOTAL=0.1 TRAFO=0.0 COSX=0.1
   Size of expansion space: 10
   Lowest Energy          :    -0.125181934956
   Maximum Energy change  :     0.000910388826 (vector 1)
   Maximum residual norm  :     0.000038173626

                       ****Iteration    3****
   Time for iteration     :  TOTAL=0.1 TRAFO=0.0 COSX=0.1
   Size of expansion space: 12
   Lowest Energy          :    -0.125184114984
   Maximum Energy change  :     0.000145258218 (vector 1)
   Maximum residual norm  :     0.000088596419

                       ****Iteration    4****
   Time for iteration     :  TOTAL=0.1 TRAFO=0.0 COSX=0.1
   Size of expansion space: 14
   Lowest Energy          :    -0.125184159491
   Maximum Energy change  :     0.023973282226 (vector 1)
   Maximum residual norm  :     0.005817628619

                       ****Iteration    5****
   Time for iteration     :  TOTAL=0.1 TRAFO=0.0 COSX=0.1
   Size of expansion space: 16
   Lowest Energy          :    -0.125184160340
   Maximum Energy change  :     0.004349676582 (vector 1)
   Maximum residual norm  :     0.000251756647

                       ****Iteration    6****
   Time for iteration     :  TOTAL=0.1 TRAFO=0.0 COSX=0.1
   Size of expansion space: 18
   Lowest Energy          :    -0.125184160363
   Maximum Energy change  :     0.000159205794 (vector 1)
   Maximum residual norm  :     0.000007315140

                       ****Iteration    7****
   Time for iteration     :  TOTAL=0.1 TRAFO=0.0 RIJ=0.0 COSX=0.1
   Size of expansion space: 20
   Lowest Energy          :    -0.125184160363
   Maximum Energy change  :     0.000005132578 (vector 1)
   Maximum residual norm  :     0.000000348060
   Rebuilding the expansion space

                       ****Iteration    8****
   Time for iteration     :  TOTAL=0.2 TRAFO=0.0 COSX=0.1
   Size of expansion space: 4
   Lowest Energy          :    -0.125183440678
   Maximum Energy change  :     0.000002079426 (vector 1)
   Maximum residual norm  :     0.000000068624

      *** CONVERGENCE OF RESIDUAL NORM REACHED ***

Storing the converged CI vectors               ... orca.cis3

                 *** DAVIDSON DONE ***

Total time for solving the CIS problem:     1.361sec

---------------------
SF-TDA EXCITED STATES
---------------------

the weight of the individual excitations are printed if larger than 1.0e-02

UHF/UKS reference: multiplicity estimated based on rounded <S**2> value, RELEVANCE IS LIMITED!

(SPIN-FLIP GROUND STATE)
STATE  1:  E=  -0.125183 au     -3.406 eV   -27474.6 cm**-1 <S**2> =   0.022020 Mult 1
    12a ->  11b  :     0.978550 (c= -0.98921707)

STATE  2:  E=   0.032248 au      0.878 eV     7077.6 cm**-1 <S**2> =   1.110672 Mult 3
    12a ->  14b  :     0.581102 (c=  0.76230060)
    12a ->  15b  :     0.251753 (c=  0.50174973)
    12a ->  16b  :     0.088703 (c=  0.29782966)
    12a ->  19b  :     0.015581 (c= -0.12482421)
    12a ->  21b  :     0.021750 (c=  0.14748038)
    12a ->  27b  :     0.010252 (c=  0.10125209)


-----------------------------
TD-DFT/TDA-EXCITATION SPECTRA
-----------------------------

Center of mass = (  0.4570,  0.3350,  0.1375)
Generating CIS-Spin-flip transition densities           ... done

UHF/UKS reference: multiplicity estimated based on rounded <S**2> value, use it judiciously!

----------------------------------------------------------------------------------------------------
          SPIN FLIP ABSORPTION SPECTRUM VIA TRANSITION ELECTRIC DIPOLE MOMENTS    
----------------------------------------------------------------------------------------------------
     Transition      Energy     Energy  Wavelength fosc(D2)      D2        DX        DY        DZ   
                      (eV)      (cm-1)    (nm)                 (au**2)    (au)      (au)      (au)  
----------------------------------------------------------------------------------------------------
  1-3A  ->  2-3A    4.283926   34552.2   289.4   0.000014009   0.00013   0.00567  -0.00524  -0.00860

----------------------------------------------------------------------------------------------------
          SPIN FLIP ABSORPTION SPECTRUM VIA TRANSITION VELOCITY DIPOLE MOMENTS    
----------------------------------------------------------------------------------------------------
[...]
      f-1     :     0.000572
      f+2     :    -0.000007
      f-2     :     0.000323
      f+3     :     0.000212
      f-3     :     0.000111
  2 C s       :    -0.001561  s :    -0.001561
      pz      :     0.000602  p :     0.008417
      px      :     0.003135
      py      :     0.004681
      dz2     :    -0.000170  d :    -0.007662
      dxz     :    -0.000155
      dyz     :    -0.003654
      dx2y2   :    -0.002841
      dxy     :    -0.000843
      f0      :     0.000034  f :    -0.000008
      f+1     :    -0.000017
      f-1     :    -0.000008
      f+2     :     0.000010
      f-2     :     0.000000
      f+3     :    -0.000015
      f-3     :    -0.000012
  3 H s       :    -0.000886  s :    -0.000886
      pz      :     0.000019  p :    -0.000259
      px      :     0.000147
      py      :    -0.000425
      dz2     :     0.000001  d :     0.000096
      dxz     :     0.000037
      dyz     :    -0.000007
      dx2y2   :     0.000048
      dxy     :     0.000017
  4 H s       :     0.003558  s :     0.003558
      pz      :    -0.003778  p :    -0.008561
      px      :    -0.002532
      py      :    -0.002251
      dz2     :     0.000158  d :     0.000295
      dxz     :     0.000028
      dyz     :     0.000004
      dx2y2   :     0.000070
      dxy     :     0.000035
  5 H s       :    -0.000248  s :    -0.000248
      pz      :     0.000217  p :    -0.000545
      px      :    -0.000148
      py      :    -0.000615
      dz2     :     0.000067  d :     0.000048
      dxz     :    -0.000006
      dyz     :    -0.000007
      dx2y2   :    -0.000002
      dxy     :    -0.000004
  6 H s       :    -0.000615  s :    -0.000615
      pz      :    -0.000110  p :     0.000515
      px      :     0.000251
      py      :     0.000374
      dz2     :     0.000003  d :     0.000075
      dxz     :    -0.000001
      dyz     :     0.000008
      dx2y2   :     0.000061
      dxy     :     0.000002


                      *****************************
                      * MAYER POPULATION ANALYSIS *
                      *****************************

  NA   - Mulliken gross atomic population
  ZA   - Total nuclear charge
  QA   - Mulliken gross atomic charge
  VA   - Mayer's total valence
  BVA  - Mayer's bonded valence
  FA   - Mayer's free valence

  ATOM       NA         ZA         QA         VA         BVA        FA
  0 O      8.5109     8.0000    -0.5109     1.7204     1.8521    -0.1317
  1 C      5.8003     6.0000     0.1997     3.4469     3.4531    -0.0062
  2 C      6.6606     6.0000    -0.6606     3.7994     3.7713     0.0281
  3 H      0.8044     1.0000     0.1956     1.0241     1.0253    -0.0012
  4 H      0.7000     1.0000     0.3000     0.9632     0.9554     0.0078
  5 H      0.7588     1.0000     0.2412     1.0225     1.0229    -0.0004
  6 H      0.7650     1.0000     0.2350     1.0268     1.0282    -0.0013

  Mayer bond orders larger than 0.100000
B(  0-O ,  1-C ) :   1.7915 B(  1-C ,  2-C ) :   0.7864 B(  1-C ,  4-H ) :   0.9221 
B(  2-C ,  3-H ) :   0.9753 B(  2-C ,  5-H ) :   1.0058 B(  2-C ,  6-H ) :   0.9574 



-------
TIMINGS
-------

Total TD-DFT gradient time  ....        7.534 sec

Fock matrix formation       ....       1.081 sec  ( 14.3%)
  Coulomb formation         ....       0.838 sec  ( 77.5% of F)
  XC integration            ....       0.243 sec  ( 22.5% of F)
Z-vector equation           ....       1.487 sec  ( 19.7%)
Densities                   ....       0.000 sec  (  0.0%)
One electron gradient       ....       0.010 sec  (  0.1%)
Two electron gradient       ....       0.000 sec  (  0.0%)
RI-J Coulomb gradient       ....       0.097 sec  (  1.3%)
COSX gradient               ....       0.521 sec  (  6.9%)
XC gradient                 ....       3.593 sec  ( 47.7%)

Maximum memory used throughout the entire CIS-calculation: 35.8 MB
=> NOW LEAVING ORCA_CIS


-------------------------------------------------------------------------------
                          DFT DISPERSION CORRECTION                            
                                                                               
                              DFTD3 V3.1  Rev 1                                
                          USING Becke-Johnson damping                          
-------------------------------------------------------------------------------
The WB97M functional is recognized
Active option DFTDOPT                   ...         4   

molecular C6(AA) [au] = 394.828905 


            DFT-D V3
 parameters
 s6 scaling factor         :     1.0000 
 a1 scaling factor         :     0.5660 
 s8 scaling factor         :     0.3908 
 a2 scaling factor         :     3.1280 
 ad hoc parameters k1-k3   :    16.0000     1.3333    -4.0000 

 Edisp/kcal,au: -3.490093510224  -0.005561817442 
 E6   /kcal   :  -2.812958354 
 E8   /kcal   :  -0.677135156 
 % E8         :  19.401633623 

-------------------------   ----------------
Dispersion correction           -0.005561817
-------------------------   ----------------


-------------------------   --------------------
FINAL SINGLE POINT ENERGY      -153.916000087311
-------------------------   --------------------

[1740997286.058440] [ohm:3161180:0]        ib_iface.c:1059 UCX  ERROR ibv_create_cq(cqe=256) failed: Connection timed out
[1740997286.060381] [ohm:3161184:0]        ib_iface.c:1059 UCX  ERROR ibv_create_cq(cqe=256) failed: Connection timed out
[1740997286.087041] [ohm:3161182:0]        ib_iface.c:1059 UCX  ERROR ibv_create_cq(cqe=256) failed: Connection timed out
[1740997286.136855] [ohm:3161196:0]        ib_iface.c:1059 UCX  ERROR ibv_create_cq(cqe=256) failed: Connection timed out
[1740997286.143153] [ohm:3161181:0]        ib_iface.c:1059 UCX  ERROR ibv_create_cq(cqe=256) failed: Connection timed out
[1740997286.156424] [ohm:3161187:0]        ib_iface.c:1059 UCX  ERROR ibv_create_cq(cqe=256) failed: Connection timed out
[1740997286.174613] [ohm:3161193:0]        ib_iface.c:1059 UCX  ERROR ibv_create_cq(cqe=256) failed: Connection timed out
[1740997286.179800] [ohm:3161183:0]        ib_iface.c:1059 UCX  ERROR ibv_create_cq(cqe=256) failed: Connection timed out
[1740997286.188493] [ohm:3161198:0]        ib_iface.c:1059 UCX  ERROR ibv_create_cq(cqe=256) failed: Connection timed out
[1740997286.188607] [ohm:3161190:0]        ib_iface.c:1059 UCX  ERROR ibv_create_cq(cqe=256) failed: Connection timed out
[1740997286.192383] [ohm:3161194:0]        ib_iface.c:1059 UCX  ERROR ibv_create_cq(cqe=256) failed: Connection timed out
[1740997286.244912] [ohm:3161203:0]        ib_iface.c:1059 UCX  ERROR ibv_create_cq(cqe=256) failed: Connection timed out
[1740997286.248344] [ohm:3161202:0]        ib_iface.c:1059 UCX  ERROR ibv_create_cq(cqe=256) failed: Connection timed out
[1740997286.269678] [ohm:3161216:0]        ib_iface.c:1059 UCX  ERROR ibv_create_cq(cqe=256) failed: Connection timed out
[1740997286.302093] [ohm:3161208:0]        ib_iface.c:1059 UCX  ERROR ibv_create_cq(cqe=256) failed: Connection timed out
[1740997286.316104] [ohm:3161213:0]        ib_iface.c:1059 UCX  ERROR ibv_create_cq(cqe=256) failed: Connection timed out


           ************************************************************
           *        Program running with 16 parallel MPI-processes    *
           *              working on a common directory               *
           ************************************************************

------------------------------------------------------------------------------
                              ORCA PROPERTY CALCULATIONS
------------------------------------------------------------------------------

GBWName                                 ... orca.gbw
Number of atoms                         ...      7
Number of basis functions               ...    182
Max core memory                         ...   1024 MB

Electric properties:
Dipole moment                           ... YES
Quadrupole moment                       ...  NO
Static polarizability (Dipole/Dipole)   ...  NO
Static polarizability (Dipole/Quad.)    ...  NO
Static polarizability (Quad./Quad.)     ...  NO
Static polarizability (Velocity)        ...  NO

Atomic electric properties:
Dipole moment                           ...  NO
Quadrupole moment                       ...  NO
Static polarizability                   ...  NO

Choice of electric origin               ... Center of mass
Position of electric origin             ...     0.457039     0.334992     0.137509

General magnetic properties:
Magnetizability                         ...  NO

EPR properties:
g-Tensor (aka g-matrix)                 ...  NO
Zero-Field splitting spin-orbit         ...  NO
Zero-field splitting spin-spin          ...  NO
Hyperfine couplings                     ...  NO (   0 nuclei)
Quadrupole couplings                    ...  NO (   0 nuclei)
Contact density                         ...  NO (   0 nuclei)

NMR properties:
Chemical shifts                         ...  NO (   0 nuclei)
Spin-rotation constants                 ...  NO (   0 nuclei)
Spin-spin couplings                     ...  NO (   0 nuclei,    0 pairs)

Choice of magnetic origin               ... GIAO
Position of magnetic origin             ...     0.000000     0.000000     0.000000

Properties with geometric perturbations:
SCF Hessian                             ...  NO
IR spectrum                             ...  NO
VCD spectrum                            ...  NO
X-ray spectroscopy properties:
SCF XES/XAS/RIXS spectra                ...  NO


-------------
DIPOLE MOMENT
-------------

Method             : SCF
Type of density    : Electron Density
Multiplicity       :   3
Irrep              :   0
Energy             :  -153.7852548291915866 Eh
Relativity type    : 
Basis              : AO
                                X                 Y                 Z
Electronic contribution:      1.507084658       3.150017503       0.240852492
Nuclear contribution   :     -1.606568516      -3.696281385      -0.434253476
                        -----------------------------------------
Total Dipole Moment    :     -0.099483858      -0.546263882      -0.193400984
                        -----------------------------------------
Magnitude (a.u.)       :      0.587967012
Magnitude (Debye)      :      1.494493376



--------------------
Rotational spectrum 
--------------------
 
Rotational constants in cm-1:             1.599626             0.376955             0.323148 
Rotational constants in MHz :         47955.582306         11300.820604          9687.719974 

Dipole components along the rotational axes: 
x,y,z [a.u.] :    -0.530526    -0.252552     0.021555 
x,y,z [Debye]:    -1.348491    -0.641936     0.054788 

 

-------------
DIPOLE MOMENT
-------------

Method             : TDA/CIS
Type of density    : Electron Density
Level              : Relaxed density
State              :   1
Multiplicity       :   3
Irrep              :   0
Energy             :     0.0000000000000000 Eh
Relativity type    : 
Basis              : AO
                                X                 Y                 Z
Electronic contribution:      1.485525031       2.634527823      -0.054738710
Nuclear contribution   :     -1.606568516      -3.696281385      -0.434253476
                        -----------------------------------------
Total Dipole Moment    :     -0.121043485      -1.061753562      -0.488992186
                        -----------------------------------------
Magnitude (a.u.)       :      1.175195945
Magnitude (Debye)      :      2.987110704



--------------------
Rotational spectrum 
--------------------
 
Rotational constants in cm-1:             1.599626             0.376955             0.323148 
Rotational constants in MHz :         47955.582306         11300.820604          9687.719974 

Dipole components along the rotational axes: 
x,y,z [a.u.] :    -0.998811    -0.618976     0.018185 
x,y,z [Debye]:    -2.538777    -1.573311     0.046222 

 

Dipole moment calculation done in   0.1 sec 

Maximum memory used throughout the entire PROP-calculation: 7.5 MB
[1740997287.852918] [ohm:3161268:0]        ib_iface.c:1059 UCX  ERROR ibv_create_cq(cqe=256) failed: Connection timed out
[1740997287.877575] [ohm:3161279:0]        ib_iface.c:1059 UCX  ERROR ibv_create_cq(cqe=256) failed: Connection timed out
[1740997287.912089] [ohm:3161267:0]        ib_iface.c:1059 UCX  ERROR ibv_create_cq(cqe=256) failed: Connection timed out
[1740997287.935375] [ohm:3161269:0]        ib_iface.c:1059 UCX  ERROR ibv_create_cq(cqe=256) failed: Connection timed out
[1740997287.935496] [ohm:3161273:0]        ib_iface.c:1059 UCX  ERROR ibv_create_cq(cqe=256) failed: Connection timed out
[1740997287.951542] [ohm:3161266:0]        ib_iface.c:1059 UCX  ERROR ibv_create_cq(cqe=256) failed: Connection timed out
[1740997287.955423] [ohm:3161270:0]        ib_iface.c:1059 UCX  ERROR ibv_create_cq(cqe=256) failed: Connection timed out
[1740997287.957666] [ohm:3161289:0]        ib_iface.c:1059 UCX  ERROR ibv_create_cq(cqe=256) failed: Connection timed out
[1740997287.965874] [ohm:3161275:0]        ib_iface.c:1059 UCX  ERROR ibv_create_cq(cqe=256) failed: Connection timed out
[1740997287.968271] [ohm:3161300:0]        ib_iface.c:1059 UCX  ERROR ibv_create_cq(cqe=256) failed: Connection timed out
[1740997287.969891] [ohm:3161288:0]        ib_iface.c:1059 UCX  ERROR ibv_create_cq(cqe=256) failed: Connection timed out
[1740997287.970797] [ohm:3161282:0]        ib_iface.c:1059 UCX  ERROR ibv_create_cq(cqe=256) failed: Connection timed out
[1740997287.979192] [ohm:3161284:0]        ib_iface.c:1059 UCX  ERROR ibv_create_cq(cqe=256) failed: Connection timed out
[1740997287.986269] [ohm:3161297:0]        ib_iface.c:1059 UCX  ERROR ibv_create_cq(cqe=256) failed: Connection timed out
[1740997287.998124] [ohm:3161303:0]        ib_iface.c:1059 UCX  ERROR ibv_create_cq(cqe=256) failed: Connection timed out
[1740997288.009054] [ohm:3161292:0]        ib_iface.c:1059 UCX  ERROR ibv_create_cq(cqe=256) failed: Connection timed out

--------------------------------
SUGGESTED CITATIONS FOR THIS RUN
--------------------------------

Below you find a list of papers that are relevant to this ORCA run
We neither can nor want to force you to cite these papers, but we appreciate if you do
You receive ORCA, which is the product of decades of hard work by many enthusiastic individuals, for free
The only thing we kindly ask in return is that you cite our papers,
We deeply appreciate it, if you show your appreciation for ORCA by not just citing the generic ORCA reference.

Please note that relegating all ORCA citations to the supporting information does *not* help us.
SI sections are not indexed - citations you put there will not count into any citation statistics
But we need these citations in order to attract the funding resources that allow us to do what we are doing

Therefore, if you are a happy ORCA user, please consider citing a few of the papers listed below in the main body of your paper

In addition to the list printed below, the program has created the file orca.bibtex that contains the list in bibtex format
You can import this file easily into all common literature databanks and citation aid programs


List of essential papers. We consider these as the minimum necessary citations

  1. Neese,F.
     Software update: the ORCA program system, version 5.0
     WIRES Comput. Molec. Sci., 2022 12(1)e1606
     doi.org/10.1002/wcms.1606

List of papers to cite with high priority. The work reported in these papers was absolutely
necessary for this run to complete.
Our perspective: the developers of density functionals and basis sets usually get cited in chemistry papers
Good! But without the algorithms to do something with them, the functionals or basis sets would not do anything.
Hence, in our opinion, the algorithm design and method developments papers are equally worthy of getting cited

  1. Neese,F.; Olbrich,G.
     Efficient use of the resolution of the identity approximation in time-dependent density functional calculations with hybrid density functionals
     Chem. Phys. Lett., 2002 362 170-178
     doi.org/10.1016/s0009-2614(02)01053-9
  2. Neese,F.
     An improvement of the resolution of the identity approximation for the formation of the Coulomb matrix
     J. Comp. Chem., 2003 24(14)1740-1747
     doi.org/10.1002/jcc.10318
  3. Neese,F.; Wennmohs,F.; Hansen,A.; Becker,U.
     Efficient, approximate and parallel Hartree-Fock and hybrid DFT calculations. A 'chain-of-spheres' algorithm for the Hartree-Fock exchange
     Chem. Phys., 2009 356(1-3)98-109
     doi.org/10.1016/j.chemphys.2008.10.036
  4. Petrenko,T.; Kossmann,S.; Neese,F.
     Efficient time-dependent density functional theory approximations for hybrid density functionals: Analytical gradients and parallelization
     J. Chem. Phys., 2011 134 054116
     doi.org/10.1063/1.3533441
  5. Helmich-Paris,B.; de Souza,B.; Neese,F.; Izsák,R.
     An improved chain of spheres for exchange algorithm
     J. Chem. Phys., 2021 155 104109
     doi.org/doi: 10.1063/5.0058766.
  6. Neese,F.
     The SHARK Integral Generation and Digestion System
     J. Comp. Chem., 2022  1-16
     doi.org/10.1002/jcc.26942
  7. Lehtola,S.; Steigemann,C.; Oliveira,M.; Marques,M.
     Recent developments in Libxc - A comprehensive library of functionals for density functional theory
     Software X, 2018 7 
     doi.org/10.1016/j.softx.2017.11.002
  8. Grimme,S.; Antony,J.; Ehrlich,S.; Krieg,H.
     A consistent and accurate ab initio parametrization of density functional dispersion correction (DFT-D) for the 94 elements H-Pu
     J. Chem. Phys., 2010 132 154104-XXXX
     doi.org/10.1063/1.3382344
  9. Grimme,S.; Ehrlich,S.; Goerigk,L.
     Effect of the damping function in dispersion corrected density functional theory
     J. Comput. Chem., 2011 32(7)1456-1465
     doi.org/10.1002/jcc.21759

List of suggested additional citations. These are papers that are important in the 'surrounding' of 
of this run, or papers that preceded the highly important papers. If you like your results we are grateful for a citation.

  1. Izsak,R.; Neese,F.
     An overlap fitted chain of spheres exchange method
     J. Chem. Phys., 2011 135 144105
     doi.org/10.1063/1.3646921
  2. Izsak,R.; Hansen,A.; Neese,F.
     The resolution of identity and chain of spheres approximations for the LPNO-CCSD singles Fock term
     Molec. Phys., 2012 110 2413-2417
     doi.org/10.1080/00268976.2012.687466
  3. Neese,F.
     The ORCA program system
     WIRES Comput. Molec. Sci., 2012 2(1)73-78
     doi.org/10.1002/wcms.81
  4. Izsak,R.; Neese,F.; Klopper,W.
     Robust fitting techniques in the chain of spheres approximation to the Fock exchange: The role of the complementary space
     J. Chem. Phys., 2013 139 
     doi.org/10.1063/1.4819264
  5. Neese,F.
     Software update: the ORCA program system, version 4.0
     WIRES Comput. Molec. Sci., 2018 8(1)1-6
     doi.org/10.1002/wcms.1327
  6. Neese,F.; Wennmohs,F.; Becker,U.; Riplinger,C.
     The ORCA quantum chemistry program package
     J. Chem. Phys., 2020 152 Art. No. L224108
     doi.org/10.1063/5.0004608

List of optional additional citations

  1. Neese,F.
     Approximate second-order SCF convergence for spin unrestricted wavefunctions
     Chem. Phys. Lett., 2000 325(1-3)93-98
     doi.org/10.1016/s0009-2614(00)00662-x

Timings for individual modules:

Sum of individual times          ...       19.733 sec (=   0.329 min)
Startup calculation              ...        1.001 sec (=   0.017 min)   5.1 %
SCF iterations                   ...        6.460 sec (=   0.108 min)  32.7 %
Property integrals               ...        0.715 sec (=   0.012 min)   3.6 %
Property calculations            ...        1.744 sec (=   0.029 min)   8.8 %
CIS module                       ...        9.813 sec (=   0.164 min)  49.7 %
                             ****ORCA TERMINATED NORMALLY****
TOTAL RUN TIME: 0 days 0 hours 0 minutes 21 seconds 500 msec
