7
Properties=species:S:1:pos:R:3:momenta:R:3:forces:R:3 Coordinates=T from=T ORCA-job=T orca=T E=T -153.889589183604=T energy=-4182.17184596435 free_energy=-4182.17184596435 stress="-1.950847132325219e-05 -2.4667231932170812e-05 5.196224538271755e-07 -2.4667231932170812e-05 5.38462695463482e-05 -2.2217272456523893e-06 5.196224538271755e-07 -2.2217272456523893e-06 -4.109858214520263e-06" pbc="F F F"
O        0.15099747       1.19156642       0.00264354       2.98130649      -0.65198556       0.43086969       2.46994443      -6.20694126       0.27711344
C        0.58472905      -0.59789686       0.03129613      -3.17901651       3.48290785       0.07893491      -0.99791333       7.47161248      -0.36426349
C       -0.74988350      -0.84291041      -0.02431682       0.26861014      -2.49077278      -0.08612273      -2.15093047      -0.68316512       0.37289573
H        1.12275933      -0.61331692       0.95529200      -0.24713990       0.17341691       0.02966505       0.49600339       0.19096480       0.17604084
H        1.09611080      -0.54922810      -0.90527959      -0.00361836       0.00772111      -0.22903239       0.94292012      -0.06259451      -0.17506786
H       -1.23958770      -0.70558974      -0.96186782      -0.00871960      -0.24735074      -0.24294910      -0.48668507      -0.31252525      -0.42930781
H       -1.35192715      -0.51295878       0.81063756       0.18857774      -0.27393678       0.01863456      -0.27333906      -0.39735113       0.14258916
