
                                 *****************
                                 * O   R   C   A *
                                 *****************

                                            #,                                       
                                            ###                                      
                                            ####                                     
                                            #####                                    
                                            ######                                   
                                           ########,                                 
                                     ,,################,,,,,                         
                               ,,#################################,,                 
                          ,,##########################################,,             
                       ,#########################################, ''#####,          
                    ,#############################################,,   '####,        
                  ,##################################################,,,,####,       
                ,###########''''           ''''###############################       
              ,#####''   ,,,,##########,,,,          '''####'''          '####       
            ,##' ,,,,###########################,,,                        '##       
           ' ,,###''''                  '''############,,,                           
         ,,##''                                '''############,,,,        ,,,,,,###''
      ,#''                                            '''#######################'''  
     '                                                          ''''####''''         
             ,#######,   #######,   ,#######,      ##                                
            ,#'     '#,  ##    ##  ,#'     '#,    #''#        ,####,   ,####,        
            ##       ##  ##   ,#'  ##            #'  '#       #'       #'  '#        
            ##       ##  #######   ##           ,######,      #####,   #    #        
            '#,     ,#'  ##    ##  '#,     ,#' ,#      #,     #,   #   #,  ,#        
             '#######'   ##     ##  '#######'  #'      '#     '####' # '####'        



                #########################################################
                #                        -***-                          #
                #          Department of theory and spectroscopy        #
                #                                                       #
                #                      Frank Neese                      #
                #                                                       #
                #     Directorship, Architecture, Infrastructure        #
                #                    SHARK, DRIVERS                     #
                #        Core code/Algorithms in most modules           #
                #                                                       #
                #        Max Planck Institute fuer Kohlenforschung      #
                #                Kaiser Wilhelm Platz 1                 #
                #                 D-45470 Muelheim/Ruhr                 #
                #                      Germany                          #
                #                                                       #
                #                  All rights reserved                  #
                #                        -***-                          #
                #########################################################


                         Program Version 6.0.0  -   RELEASE  -


 With contributions from (in alphabetic order):
   Daniel Aravena         : Magnetic Suceptibility
   Michael Atanasov       : Ab Initio Ligand Field Theory (pilot matlab implementation)
   Alexander A. Auer      : GIAO ZORA, VPT2 properties, NMR spectrum
   Ute Becker             : All parallelization in ORCA, NUMFREQ, NUMCALC
   Giovanni Bistoni       : ED, misc. LED, open-shell LED, HFLD
   Martin Brehm           : Molecular dynamics
   Dmytro Bykov           : pre 5.0 version of the SCF Hessian
   Marcos Casanova-Páez   : Triplet and SCS-CIS(D). UHF-(DLPNO)-IP/EA/STEOM-CCSD. UHF-CVS-IP/STEOM-CCSD
   Vijay G. Chilkuri      : MRCI spin determinant printing, contributions to CSF-ICE
   Pauline Colinet        : FMM embedding
   Dipayan Datta          : RHF DLPNO-CCSD density
   Achintya Kumar Dutta   : EOM-CC, STEOM-CC
   Nicolas Foglia         : Exact transition moments, OPA infrastructure, MCD improvements
   Dmitry Ganyushin       : Spin-Orbit,Spin-Spin,Magnetic field MRCI
   Miquel Garcia          : C-PCM and meta-GGA Hessian, CCSD/C-PCM, Gaussian charge scheme
   Tiago L. C. Gouveia    : GS-ROHF, GS-ROCIS
   Yang Guo               : DLPNO-NEVPT2, F12-NEVPT2, CIM, IAO-localization
   Andreas Hansen         : Spin unrestricted coupled pair/coupled cluster methods
   Ingolf Harden          : AUTO-CI MPn and infrastructure 
   Benjamin Helmich-Paris : MC-RPA, TRAH-(SCF,CASSCF), AVAS, COSX integrals, SCF dyn. polar.
   Lee Huntington         : MR-EOM, pCC
   Robert Izsak           : Overlap fitted RIJCOSX, COSX-SCS-MP3, EOM
   Riya Kayal             : Wick's Theorem for AUTO-CI, AUTO-CI UHF-CCSDT
   Emily Kempfer          : AUTO-CI, RHF CISDT and CCSDT
   Christian Kollmar      : KDIIS, OOCD, Brueckner-CCSD(T), CCSD density, CASPT2, CASPT2-K, improved NEVPT2
   Axel Koslowski         : Symmetry handling
   Simone Kossmann        : Meta GGA functionals, TD-DFT gradient, OOMP2, (MP2 Hessian; deprecated post 5.0)
   Lucas Lang             : DCDCAS
   Marvin Lechner         : AUTO-CI (C++ implementation), FIC-MRCC
   Spencer Leger          : CASSCF response
   Dagmar Lenk            : GEPOL surface, SMD, ORCA-2-JSON
   Dimitrios Liakos       : Extrapolation schemes; Compound Job, initial MDCI parallelization
   Dimitrios Manganas     : Further ROCIS development; embedding schemes. LFT, Crystal Embedding
   Dimitrios Pantazis     : SARC Basis sets
   Anastasios Papadopoulos: AUTO-CI, single reference methods and gradients
   Taras Petrenko         : pre 6.0 DFT Hessian and TD-DFT gradient, (ASA, deprecated), ECA, 1-Electron XAS/XES, NRVS
   Peter Pinski           : DLPNO-MP2, DLPNO-MP2 Gradient
   Christoph Reimann      : Effective Core Potentials
   Marius Retegan         : Local ZFS, SOC
   Christoph Riplinger    : Optimizer, TS searches, QM/MM, DLPNO-CCSD(T), (RO)-DLPNO pert. Triples
   Michael Roemelt        : Original ROCIS implementation
   Masaaki Saitow         : Open-shell DLPNO-CCSD energy and density
   Barbara Sandhoefer     : DKH picture change effects
   Kantharuban Sivalingam : CASSCF convergence/infrastructure, NEVPT2 and variants, FIC-MRCI
   Bernardo de Souza      : ESD, SOC TD-DFT
   Georgi Stoychev        : AutoAux, RI-MP2 NMR, DLPNO-MP2 response, X2C
   Van Anh Tran           : RI-MP2 g-tensors
   Willem Van den Heuvel  : Paramagnetic NMR
   Zikuan Wang            : NOTCH, Electric field optimization 
   Frank Wennmohs         : Technical directorship and infrastructure
   Hang Xu                : AUTO-CI-Response properties 


 We gratefully acknowledge several colleagues who have allowed us to
 interface, adapt or use parts of their codes:
   Stefan Grimme, W. Hujo, H. Kruse, P. Pracht,  : VdW corrections, initial TS optimization,
                  C. Bannwarth, S. Ehlert,         DFT functionals, gCP, sTDA/sTD-DF
                  L. Wittmann, M. Mueller
   Ed Valeev, F. Pavosevic, A. Kumar             : LibInt (2-el integral package), F12 methods
   Garnet Chan, S. Sharma, J. Yang, R. Olivares  : DMRG
   Ulf Ekstrom                                   : XCFun DFT Library
   Mihaly Kallay                                 : mrcc  (arbitrary order and MRCC methods)
   Frank Weinhold                                : gennbo (NPA and NBO analysis)
   Simon Mueller                                 : openCOSMO-RS
   Christopher J. Cramer and Donald G. Truhlar   : smd solvation model
   Lars Goerigk                                  : TD-DFT with DH, B97 family of functionals
   V. Asgeirsson, H. Jonsson                     : NEB implementation
   FAccTs GmbH                                   : IRC, NEB, NEB-TS, DLPNO-Multilevel, CI-OPT
                                                   MM, QMMM, 2- and 3-layer-ONIOM, Crystal-QMMM,
                                                   LR-CPCM, SF, NACMEs, symmetry and pop. for TD-DFT,
                                                   nearIR, NL-DFT gradient (VV10), updates on ESD,
                                                   ML-optimized integration grids, MBIS, APM,
                                                   GOAT, DOCKER, SOLVATOR, interface openCOSMO-RS
   S Lehtola, MJT Oliveira, MAL Marques          : LibXC Library
   Liviu Ungur et al                             : ANISO software


 Your calculation uses the libint2 library for the computation of 2-el integrals
 For citations please refer to: http://libint.valeyev.net

 Your ORCA version has been built with support for libXC version: 6.2.2
 For citations please refer to: https://libxc.gitlab.io

 This ORCA versions uses:
   CBLAS   interface :  Fast vector & matrix operations
   LAPACKE interface :  Fast linear algebra routines
   SCALAPACK package :  Parallel linear algebra routines
   Shared memory     :  Shared parallel matrices
   BLAS/LAPACK       :  OpenBLAS 0.3.27  USE64BITINT DYNAMIC_ARCH NO_AFFINITY Zen SINGLE_THREADED
        Core in use  :  Zen
   Copyright (c) 2011-2014, The OpenBLAS Project


Your calculation utilizes the atom-pairwise dispersion correction
with the Becke-Johnson damping scheme (D3BJ)


Warning: RI is on but no J-basis has been assigned. Assigning Def2/J (nothing to worry about!)
================================================================================

----- Orbital basis set information -----
Your calculation utilizes the basis: def2-TZVPPD
   F. Weigend and R. Ahlrichs, Phys. Chem. Chem. Phys. 7, 3297 (2005).
   D. Rappoport and F. Furche, J. Chem. Phys. 133, 134105 (2010)
   D. Rappoport, J. Chem. Phys. 155, 124102 (2021).

----- AuxJ basis set information -----
Your calculation utilizes the auxiliary basis: def2/J
   F. Weigend, Phys. Chem. Chem. Phys. 8, 1057 (2006).

================================================================================
                                        WARNINGS
                       Please study these warnings very carefully!
================================================================================

Using LibXC functional ID 531 : wB97M-V exchange-correlation functional
[ 1]  N. Mardirossian and M. Head-Gordon.,  J. Chem. Phys. 144, 214110 (2016)
Using LibXC functional ID 531 : wB97M-V exchange-correlation functional
[ 1]  N. Mardirossian and M. Head-Gordon.,  J. Chem. Phys. 144, 214110 (2016)

WARNING: B97M-V or wB97M-V functional requested.
  ===> : libXC variant has now been activated.
         Any manually given DFX/HFX/RangeSep scaling parameters are IGNORED!

Your calculation utilizes LibXC
 by S Lehtola, C Steigemann, MJT Oliveira & MAL Marques
Please cite in your paper:
 S Lehtola, C Steigemann, MJT Oliveira & MAL Marques, SoftwareX, 7, (2018), 1.
   


WARNING: your system is open-shell and RHF/RKS was chosen
  ===> : WILL SWITCH to UHF/UKS

INFO   : Checking CIS options ...

WARNING: CIS/ROCIS methods need fully converged wavefunctions
  ===> : Setting SCFConvForced true
         You can overwrite this default with %scf ConvForced false 


================================================================================
                                       INPUT FILE
================================================================================
NAME = orca.inp
|  1> ! Engrad def2-TZVPPD wB97M-D3BJ 
|  2> %pal nprocs 8 end%pal nprocs 64 end 
|  3> %tddft Nroots 2 Iroot 1 
|  4> sf true 
|  5> end 
|  6> *xyz 0 3 
|  7> O   2.95988846 1.25031012 -0.50119131
|  8> O   -0.79952605 0.2140543 -2.05922892
|  9> O   1.30914512 -2.72585584 -1.75006661
| 10> O   -3.13651243 -1.23612876 1.58684772
| 11> N   0.59085376 -1.83672998 0.25398105
| 12> N   -2.27036141 0.83676621 1.57142964
| 13> N   2.20329105 -0.78048257 -0.9833065
| 14> N   -2.07705203 -0.45400576 -0.30496491
| 15> C   1.62314303 0.20637999 1.14160586
| 16> C   -0.89518768 1.6373817 -0.1717179
| 17> C   0.70943483 -0.90423261 1.2118761
| 18> C   -1.35545884 1.7811354 1.16867643
| 19> C   1.82808606 1.21828487 2.16446591
| 20> C   0.01398718 2.66875305 -0.70464528
| 21> C   2.26136298 0.298369 -0.14746569
| 22> C   -1.14760953 0.45636244 -0.90493003
| 23> C   1.41581473 -1.87121083 -0.86164963
| 24> C   -2.53047067 -0.3906716 0.96861496
| 25> H   0.20343067 -1.14874938 2.14868412
| 26> H   -1.19898152 2.6176471 1.89699118
| 27> H   1.97593154 2.23739215 1.76932036
| 28> H   1.04020488 1.23701005 2.92029248
| 29> H   2.75563187 1.06985199 2.78604081
| 30> H   0.26993395 2.49428841 -1.73626535
| 31> H   -0.22155509 3.77051078 -0.45189235
| 32> H   0.98892374 2.62090102 -0.18698584
| 33> H   -0.01058268 -2.68141989 0.25954069
| 34> H   -2.57160883 0.98359718 2.49889237
| 35> H   2.80400413 -0.83774807 -1.76564552
| 36> H   -2.30651266 -1.28131515 -0.86656502
| 37> *
| 38> 
| 39>                          ****END OF INPUT****
================================================================================

                     *******************************
                     * Energy+Gradient Calculation *
                     *******************************

---------------------------------
CARTESIAN COORDINATES (ANGSTROEM)
---------------------------------
  O      2.959888    1.250310   -0.501191
  O     -0.799526    0.214054   -2.059229
  O      1.309145   -2.725856   -1.750067
  O     -3.136512   -1.236129    1.586848
  N      0.590854   -1.836730    0.253981
  N     -2.270361    0.836766    1.571430
  N      2.203291   -0.780483   -0.983306
  N     -2.077052   -0.454006   -0.304965
  C      1.623143    0.206380    1.141606
  C     -0.895188    1.637382   -0.171718
  C      0.709435   -0.904233    1.211876
  C     -1.355459    1.781135    1.168676
  C      1.828086    1.218285    2.164466
  C      0.013987    2.668753   -0.704645
  C      2.261363    0.298369   -0.147466
  C     -1.147610    0.456362   -0.904930
  C      1.415815   -1.871211   -0.861650
  C     -2.530471   -0.390672    0.968615
  H      0.203431   -1.148749    2.148684
  H     -1.198982    2.617647    1.896991
  H      1.975932    2.237392    1.769320
  H      1.040205    1.237010    2.920292
  H      2.755632    1.069852    2.786041
  H      0.269934    2.494288   -1.736265
  H     -0.221555    3.770511   -0.451892
  H      0.988924    2.620901   -0.186986
  H     -0.010583   -2.681420    0.259541
  H     -2.571609    0.983597    2.498892
  H      2.804004   -0.837748   -1.765646
  H     -2.306513   -1.281315   -0.866565

----------------------------
CARTESIAN COORDINATES (A.U.)
----------------------------
  NO LB      ZA    FRAG     MASS         X           Y           Z
   0 O     8.0000    0    15.999    5.593379    2.362744   -0.947114
   1 O     8.0000    0    15.999   -1.510885    0.404504   -3.891379
   2 O     8.0000    0    15.999    2.473926   -5.151121   -3.307147
   3 O     8.0000    0    15.999   -5.927150   -2.335945    2.998708
   4 N     7.0000    0    14.007    1.116552   -3.470917    0.479955
   5 N     7.0000    0    14.007   -4.290361    1.581259    2.969572
   6 N     7.0000    0    14.007    4.163617   -1.474898   -1.858180
   7 N     7.0000    0    14.007   -3.925060   -0.857947   -0.576300
   8 C     6.0000    0    12.011    3.067296    0.390002    2.157322
   9 C     6.0000    0    12.011   -1.691660    3.094203   -0.324500
  10 C     6.0000    0    12.011    1.340638   -1.708752    2.290114
  11 C     6.0000    0    12.011   -2.561446    3.365858    2.208478
  12 C     6.0000    0    12.011    3.454582    2.302225    4.090248
  13 C     6.0000    0    12.011    0.026432    5.043212   -1.331587
  14 C     6.0000    0    12.011    4.273357    0.563836   -0.278670
  15 C     6.0000    0    12.011   -2.168668    0.862400   -1.710070
  16 C     6.0000    0    12.011    2.675502   -3.536076   -1.628282
  17 C     6.0000    0    12.011   -4.781897   -0.738262    1.830417
  18 H     1.0000    0     1.008    0.384428   -2.170822    4.060425
  19 H     1.0000    0     1.008   -2.265747    4.946636    3.584794
  20 H     1.0000    0     1.008    3.733969    4.228058    3.343531
  21 H     1.0000    0     1.008    1.965702    2.337610    5.518553
  22 H     1.0000    0     1.008    5.207390    2.021727    5.264854
  23 H     1.0000    0     1.008    0.510101    4.713522   -3.281066
  24 H     1.0000    0     1.008   -0.418678    7.125233   -0.853953
  25 H     1.0000    0     1.008    1.868795    4.952785   -0.353352
  26 H     1.0000    0     1.008   -0.019998   -5.067149    0.490461
  27 H     1.0000    0     1.008   -4.859636    1.858729    4.722222
  28 H     1.0000    0     1.008    5.298800   -1.583114   -3.336586
  29 H     1.0000    0     1.008   -4.358677   -2.421335   -1.637571

--------------------------------
INTERNAL COORDINATES (ANGSTROEM)
--------------------------------
 O      0   0   0     0.000000000000     0.00000000     0.00000000
 O      1   0   0     4.199345755788     0.00000000     0.00000000
 O      2   1   0     3.631135782147    69.40988976     0.00000000
 O      2   1   3     4.567100952746   103.90136146    82.89520317
 N      3   2   1     2.307096507804    65.23687698    70.34127094
 N      4   2   1     2.246630557811    60.28213814    57.64360212
 N      1   2   3     2.220133700254    52.31083943   356.25591691
 N      2   1   3     2.270642880359   106.83666816    84.93381379
 C      1   2   3     2.361241411357    69.03613520   284.18761481
 C      6   4   2     2.360222721846   122.86612261   354.77640778
 C      5   3   2     1.342078888156   149.34474727   281.22665405
 C      6   4   2     1.375169090614   153.14208282   333.14618657
 C      9   1   2     1.453339538305    95.85443534   230.11546168
 C     10   6   4     1.474563454047   149.70334020   190.24087641
 C      1   2   3     1.232579229259    53.73971552   314.45349288
 C      2   1   3     1.229748458513    81.75080295   108.53149047
 C      3   2   1     1.237368671483    63.38320221    36.63727754
 C      4   2   1     1.210081059184    27.62586441    60.98044597
 H     11   5   3     1.092445846294   114.55790988   196.21176490
 H     12   6   4     1.120124703316   114.54207059   206.46744910
 H     13   9   1     1.102985920033   114.20975624    31.27517267
 H     13   9   1     1.091962082713   113.41226461   157.26086036
 H     13   9   1     1.126378668931   114.37778285   274.18321860
 H     14  10   6     1.077119598053   112.29446491   186.98094978
 H     14  10   6     1.154657654976   117.54905454   322.78387166
 H     14  10   6     1.104881173982   110.14731788    72.30022853
 H      5   3   2     1.036946355899    82.60567527   107.39798758
 H      6   4   2     0.986152349968    90.75360699   183.91202977
 H      7   1   2     0.988023220470    91.01805991   108.19659170
 H      8   2   1     1.025908227403    86.57023281   229.56581280

---------------------------
INTERNAL COORDINATES (A.U.)
---------------------------
 O      0   0   0     0.000000000000     0.00000000     0.00000000
 O      1   0   0     7.935613420084     0.00000000     0.00000000
 O      2   1   0     6.861852183340    69.40988976     0.00000000
 O      2   1   3     8.630570026660   103.90136146    82.89520317
 N      3   2   1     4.359780564276    65.23687698    70.34127094
 N      4   2   1     4.245516478361    60.28213814    57.64360212
 N      1   2   3     4.195444674170    52.31083943   356.25591691
 N      2   1   3     4.290893191816   106.83666816    84.93381379
 C      1   2   3     4.462099603539    69.03613520   284.18761481
 C      6   4   2     4.460174559347   122.86612261   354.77640778
 C      5   3   2     2.536161548732   149.34474727   281.22665405
 C      6   4   2     2.598692969093   153.14208282   333.14618657
 C      9   1   2     2.746413706995    95.85443534   230.11546168
 C     10   6   4     2.786521095237   149.70334020   190.24087641
 C      1   2   3     2.329237181659    53.73971552   314.45349288
 C      2   1   3     2.323887800201    81.75080295   108.53149047
 C      3   2   1     2.338287915797    63.38320221    36.63727754
 C      4   2   1     2.286721801704    27.62586441    60.98044597
 H     11   5   3     2.064423465635   114.55790988   196.21176490
 H     12   6   4     2.116728925107   114.54207059   206.46744910
 H     13   9   1     2.084341318433   114.20975624    31.27517267
 H     13   9   1     2.063509284953   113.41226461   157.26086036
 H     13   9   1     2.128547207371   114.37778285   274.18321860
 H     14  10   6     2.035461053800   112.29446491   186.98094978
 H     14  10   6     2.181986746341   117.54905454   322.78387166
 H     14  10   6     2.087922829352   110.14731788    72.30022853
 H      5   3   2     1.959544628217    82.60567527   107.39798758
 H      6   4   2     1.863557867762    90.75360699   183.91202977
 H      7   1   2     1.867093300643    91.01805991   108.19659170
 H      8   2   1     1.938685588329    86.57023281   229.56581280

---------------------
BASIS SET INFORMATION
---------------------
There are 4 groups of distinct atoms

 Group   1 Type O   : 12s7p3d1f contracted to 6s4p3d1f pattern {621111/4111/111/1}
 Group   2 Type N   : 12s6p3d1f contracted to 6s3p3d1f pattern {621111/411/111/1}
 Group   3 Type C   : 12s6p3d1f contracted to 6s3p3d1f pattern {621111/411/111/1}
 Group   4 Type H   : 5s3p1d contracted to 3s3p1d pattern {311/111/1}

Atom   0O    basis set group =>   1
Atom   1O    basis set group =>   1
Atom   2O    basis set group =>   1
Atom   3O    basis set group =>   1
Atom   4N    basis set group =>   2
Atom   5N    basis set group =>   2
Atom   6N    basis set group =>   2
Atom   7N    basis set group =>   2
Atom   8C    basis set group =>   3
Atom   9C    basis set group =>   3
Atom  10C    basis set group =>   3
Atom  11C    basis set group =>   3
Atom  12C    basis set group =>   3
Atom  13C    basis set group =>   3
Atom  14C    basis set group =>   3
Atom  15C    basis set group =>   3
Atom  16C    basis set group =>   3
Atom  17C    basis set group =>   3
Atom  18H    basis set group =>   4
Atom  19H    basis set group =>   4
Atom  20H    basis set group =>   4
Atom  21H    basis set group =>   4
Atom  22H    basis set group =>   4
Atom  23H    basis set group =>   4
Atom  24H    basis set group =>   4
Atom  25H    basis set group =>   4
Atom  26H    basis set group =>   4
Atom  27H    basis set group =>   4
Atom  28H    basis set group =>   4
Atom  29H    basis set group =>   4
---------------------------------
AUXILIARY/J BASIS SET INFORMATION
---------------------------------
There are 4 groups of distinct atoms

 Group   1 Type O   : 12s5p4d2f1g contracted to 6s4p3d1f1g pattern {711111/2111/211/2/1}
 Group   2 Type N   : 12s5p4d2f1g contracted to 6s4p3d1f1g pattern {711111/2111/211/2/1}
 Group   3 Type C   : 12s5p4d2f1g contracted to 6s4p3d1f1g pattern {711111/2111/211/2/1}
 Group   4 Type H   : 5s2p1d contracted to 3s1p1d pattern {311/2/1}

Atom   0O    basis set group =>   1
Atom   1O    basis set group =>   1
Atom   2O    basis set group =>   1
Atom   3O    basis set group =>   1
Atom   4N    basis set group =>   2
Atom   5N    basis set group =>   2
Atom   6N    basis set group =>   2
Atom   7N    basis set group =>   2
Atom   8C    basis set group =>   3
Atom   9C    basis set group =>   3
Atom  10C    basis set group =>   3
Atom  11C    basis set group =>   3
Atom  12C    basis set group =>   3
Atom  13C    basis set group =>   3
Atom  14C    basis set group =>   3
Atom  15C    basis set group =>   3
Atom  16C    basis set group =>   3
Atom  17C    basis set group =>   3
Atom  18H    basis set group =>   4
Atom  19H    basis set group =>   4
Atom  20H    basis set group =>   4
Atom  21H    basis set group =>   4
Atom  22H    basis set group =>   4
Atom  23H    basis set group =>   4
Atom  24H    basis set group =>   4
Atom  25H    basis set group =>   4
Atom  26H    basis set group =>   4
Atom  27H    basis set group =>   4
Atom  28H    basis set group =>   4
Atom  29H    basis set group =>   4
[1739892357.161101] [ohm:202858:0]        ib_iface.c:1059 UCX  ERROR ibv_create_cq(cqe=256) failed: Connection timed out
[1739892357.165714] [ohm:202854:0]        ib_iface.c:1059 UCX  ERROR ibv_create_cq(cqe=256) failed: Connection timed out
[1739892357.175196] [ohm:202856:0]        ib_iface.c:1059 UCX  ERROR ibv_create_cq(cqe=256) failed: Connection timed out
[1739892357.182593] [ohm:202880:0]        ib_iface.c:1059 UCX  ERROR ibv_create_cq(cqe=256) failed: Connection timed out
[1739892357.184761] [ohm:202865:0]        ib_iface.c:1059 UCX  ERROR ibv_create_cq(cqe=256) failed: Connection timed out
[1739892357.196423] [ohm:202930:0]        ib_iface.c:1059 UCX  ERROR ibv_create_cq(cqe=256) failed: Connection timed out
[1739892357.196838] [ohm:202869:0]        ib_iface.c:1059 UCX  ERROR ibv_create_cq(cqe=256) failed: Connection timed out
[1739892357.198010] [ohm:202913:0]        ib_iface.c:1059 UCX  ERROR ibv_create_cq(cqe=256) failed: Connection timed out
[1739892357.214862] [ohm:202853:0]        ib_iface.c:1059 UCX  ERROR ibv_create_cq(cqe=256) failed: Connection timed out
[1739892357.244935] [ohm:202859:0]        ib_iface.c:1059 UCX  ERROR ibv_create_cq(cqe=256) failed: Connection timed out
[1739892357.255656] [ohm:202871:0]        ib_iface.c:1059 UCX  ERROR ibv_create_cq(cqe=256) failed: Connection timed out
[1739892357.257219] [ohm:202867:0]        ib_iface.c:1059 UCX  ERROR ibv_create_cq(cqe=256) failed: Connection timed out
[1739892357.268677] [ohm:202971:0]        ib_iface.c:1059 UCX  ERROR ibv_create_cq(cqe=256) failed: Connection timed out
[1739892357.268866] [ohm:202904:0]        ib_iface.c:1059 UCX  ERROR ibv_create_cq(cqe=256) failed: Connection timed out
[1739892357.275901] [ohm:202968:0]        ib_iface.c:1059 UCX  ERROR ibv_create_cq(cqe=256) failed: Connection timed out
[1739892357.280424] [ohm:202877:0]        ib_iface.c:1059 UCX  ERROR ibv_create_cq(cqe=256) failed: Connection timed out
[1739892357.281550] [ohm:202872:0]        ib_iface.c:1059 UCX  ERROR ibv_create_cq(cqe=256) failed: Connection timed out
[1739892357.284250] [ohm:202870:0]        ib_iface.c:1059 UCX  ERROR ibv_create_cq(cqe=256) failed: Connection timed out
[1739892357.293295] [ohm:202878:0]        ib_iface.c:1059 UCX  ERROR ibv_create_cq(cqe=256) failed: Connection timed out
[1739892357.293978] [ohm:202881:0]        ib_iface.c:1059 UCX  ERROR ibv_create_cq(cqe=256) failed: Connection timed out
[1739892357.309384] [ohm:202907:0]        ib_iface.c:1059 UCX  ERROR ibv_create_cq(cqe=256) failed: Connection timed out
[1739892357.317833] [ohm:202873:0]        ib_iface.c:1059 UCX  ERROR ibv_create_cq(cqe=256) failed: Connection timed out
[1739892357.317992] [ohm:202902:0]        ib_iface.c:1059 UCX  ERROR ibv_create_cq(cqe=256) failed: Connection timed out
[1739892357.345403] [ohm:202862:0]        ib_iface.c:1059 UCX  ERROR ibv_create_cq(cqe=256) failed: Connection timed out
[1739892357.346044] [ohm:202868:0]        ib_iface.c:1059 UCX  ERROR ibv_create_cq(cqe=256) failed: Connection timed out
[1739892357.359271] [ohm:202860:0]        ib_iface.c:1059 UCX  ERROR ibv_create_cq(cqe=256) failed: Connection timed out
[1739892357.359255] [ohm:202866:0]        ib_iface.c:1059 UCX  ERROR ibv_create_cq(cqe=256) failed: Connection timed out
[1739892357.379382] [ohm:202857:0]        ib_iface.c:1059 UCX  ERROR ibv_create_cq(cqe=256) failed: Connection timed out
[1739892357.379826] [ohm:202975:0]        ib_iface.c:1059 UCX  ERROR ibv_create_cq(cqe=256) failed: Connection timed out
[1739892357.383214] [ohm:202890:0]        ib_iface.c:1059 UCX  ERROR ibv_create_cq(cqe=256) failed: Connection timed out
[1739892357.383417] [ohm:202966:0]        ib_iface.c:1059 UCX  ERROR ibv_create_cq(cqe=256) failed: Connection timed out
[1739892357.390958] [ohm:202855:0]        ib_iface.c:1059 UCX  ERROR ibv_create_cq(cqe=256) failed: Connection timed out
[1739892357.391226] [ohm:202938:0]        ib_iface.c:1059 UCX  ERROR ibv_create_cq(cqe=256) failed: Connection timed out
[1739892357.391298] [ohm:202933:0]        ib_iface.c:1059 UCX  ERROR ibv_create_cq(cqe=256) failed: Connection timed out
[1739892357.402012] [ohm:202994:0]        ib_iface.c:1059 UCX  ERROR ibv_create_cq(cqe=256) failed: Connection timed out
[1739892357.412233] [ohm:202887:0]        ib_iface.c:1059 UCX  ERROR ibv_create_cq(cqe=256) failed: Connection timed out
[1739892357.421048] [ohm:202863:0]        ib_iface.c:1059 UCX  ERROR ibv_create_cq(cqe=256) failed: Connection timed out
[1739892357.425495] [ohm:202992:0]        ib_iface.c:1059 UCX  ERROR ibv_create_cq(cqe=256) failed: Connection timed out
[1739892357.427195] [ohm:202918:0]        ib_iface.c:1059 UCX  ERROR ibv_create_cq(cqe=256) failed: Connection timed out
[1739892357.429315] [ohm:202908:0]        ib_iface.c:1059 UCX  ERROR ibv_create_cq(cqe=256) failed: Connection timed out
[1739892357.440006] [ohm:202884:0]        ib_iface.c:1059 UCX  ERROR ibv_create_cq(cqe=256) failed: Connection timed out
[1739892357.447072] [ohm:202953:0]        ib_iface.c:1059 UCX  ERROR ibv_create_cq(cqe=256) failed: Connection timed out
[1739892357.448870] [ohm:202978:0]        ib_iface.c:1059 UCX  ERROR ibv_create_cq(cqe=256) failed: Connection timed out
[1739892357.451002] [ohm:202998:0]        ib_iface.c:1059 UCX  ERROR ibv_create_cq(cqe=256) failed: Connection timed out
[1739892357.452878] [ohm:202936:0]        ib_iface.c:1059 UCX  ERROR ibv_create_cq(cqe=256) failed: Connection timed out
[1739892357.459416] [ohm:202923:0]        ib_iface.c:1059 UCX  ERROR ibv_create_cq(cqe=256) failed: Connection timed out
[1739892357.460256] [ohm:202874:0]        ib_iface.c:1059 UCX  ERROR ibv_create_cq(cqe=256) failed: Connection timed out
[1739892357.463995] [ohm:202864:0]        ib_iface.c:1059 UCX  ERROR ibv_create_cq(cqe=256) failed: Connection timed out
[1739892357.464081] [ohm:202989:0]        ib_iface.c:1059 UCX  ERROR ibv_create_cq(cqe=256) failed: Connection timed out
[1739892357.465909] [ohm:202879:0]        ib_iface.c:1059 UCX  ERROR ibv_create_cq(cqe=256) failed: Connection timed out
[1739892357.466288] [ohm:202894:0]        ib_iface.c:1059 UCX  ERROR ibv_create_cq(cqe=256) failed: Connection timed out
[1739892357.466759] [ohm:202961:0]        ib_iface.c:1059 UCX  ERROR ibv_create_cq(cqe=256) failed: Connection timed out
[1739892357.469512] [ohm:202949:0]        ib_iface.c:1059 UCX  ERROR ibv_create_cq(cqe=256) failed: Connection timed out
[1739892357.476875] [ohm:202926:0]        ib_iface.c:1059 UCX  ERROR ibv_create_cq(cqe=256) failed: Connection timed out
[1739892357.481081] [ohm:202941:0]        ib_iface.c:1059 UCX  ERROR ibv_create_cq(cqe=256) failed: Connection timed out
[1739892357.482040] [ohm:202876:0]        ib_iface.c:1059 UCX  ERROR ibv_create_cq(cqe=256) failed: Connection timed out
[1739892357.482657] [ohm:202944:0]        ib_iface.c:1059 UCX  ERROR ibv_create_cq(cqe=256) failed: Connection timed out
[1739892357.483638] [ohm:202987:0]        ib_iface.c:1059 UCX  ERROR ibv_create_cq(cqe=256) failed: Connection timed out
[1739892357.484657] [ohm:202898:0]        ib_iface.c:1059 UCX  ERROR ibv_create_cq(cqe=256) failed: Connection timed out
[1739892357.487770] [ohm:202957:0]        ib_iface.c:1059 UCX  ERROR ibv_create_cq(cqe=256) failed: Connection timed out
[1739892357.489936] [ohm:202875:0]        ib_iface.c:1059 UCX  ERROR ibv_create_cq(cqe=256) failed: Connection timed out
[1739892357.490724] [ohm:202983:0]        ib_iface.c:1059 UCX  ERROR ibv_create_cq(cqe=256) failed: Connection timed out
[1739892357.491397] [ohm:202946:0]        ib_iface.c:1059 UCX  ERROR ibv_create_cq(cqe=256) failed: Connection timed out
[1739892357.492518] [ohm:202861:0]        ib_iface.c:1059 UCX  ERROR ibv_create_cq(cqe=256) failed: Connection timed out


           ************************************************************
           *        Program running with 64 parallel MPI-processes    *
           *              working on a common directory               *
           ************************************************************
------------------------------------------------------------------------------
                             ORCA STARTUP CALCULATIONS
                           -- RI-GTO INTEGRALS CHOSEN --
------------------------------------------------------------------------------
------------------------------------------------------------------------------
                   ___                                                        
                  /   \      - P O W E R E D   B Y -                         
                 /     \                                                     
                 |  |  |   _    _      __       _____    __    __             
                 |  |  |  | |  | |    /  \     |  _  \  |  |  /  |          
                  \  \/   | |  | |   /    \    | | | |  |  | /  /          
                 / \  \   | |__| |  /  /\  \   | |_| |  |  |/  /          
                |  |  |   |  __  | /  /__\  \  |    /   |      \           
                |  |  |   | |  | | |   __   |  |    \   |  |\   \          
                \     /   | |  | | |  |  |  |  | |\  \  |  | \   \       
                 \___/    |_|  |_| |__|  |__|  |_| \__\ |__|  \__/        
                                                                              
                      - O R C A' S   B I G   F R I E N D -                    
                                      &                                       
                       - I N T E G R A L  F E E D E R -                       
                                                                              
 v1 FN, 2020, v2 2021, v3 2022-2024                                           
------------------------------------------------------------------------------


----------------------
SHARK INTEGRAL PACKAGE
----------------------

Number of atoms                             ...     30
Number of basis functions                   ...    882
Number of shells                            ...    322
Maximum angular momentum                    ...      3
Integral batch strategy                     ... SHARK/LIBINT Hybrid
RI-J (if used) integral strategy            ... SPLIT-RIJ (Revised 2003 algorithm where possible)
Printlevel                                  ...      1
Contraction scheme used                     ... SEGMENTED contraction
Prescreening option                         ... SCHWARTZ
   Thresh                                   ... 2.500e-11
   Tcut                                     ... 2.500e-12
   Tpresel                                  ... 2.500e-12 
Coulomb Range Separation                    ... NOT USED
Exchange Range Separation                   ... Long Range
   Mu parameter                             ... 3.000e-01
   Scaling (regular/separated)              ... 1.500e-01 8.500e-01
Multipole approximations                    ... NOT USED
Finite Nucleus Model                        ... NOT USED
CABS basis                                  ... NOT available
Auxiliary Coulomb fitting basis             ... AVAILABLE
   # of basis functions in Aux-J            ...   1014
   # of shells in Aux-J                     ...    330
   Maximum angular momentum in Aux-J        ...      4
Auxiliary J/K fitting basis                 ... NOT available
Auxiliary Correlation fitting basis         ... NOT available
Auxiliary 'external' fitting basis          ... NOT available

Checking pre-screening integrals            ... done (  0.0 sec) Dimension = 322
Check shell pair data                       ... done (  0.0 sec)
Shell pair information
Shell pair cut-off parameter TPreSel        ...   2.5e-12
Total number of shell pairs                 ...     52003
Shell pairs after pre-screening             ...     44932
Total number of primitive shell pairs       ...    129718
Primitive shell pairs kept                  ...     83654
          la=0 lb=0:   8704 shell pairs
          la=1 lb=0:  11903 shell pairs
          la=1 lb=1:   4111 shell pairs
          la=2 lb=0:   8069 shell pairs
          la=2 lb=1:   5570 shell pairs
          la=2 lb=2:   1923 shell pairs
          la=3 lb=0:   2045 shell pairs
          la=3 lb=1:   1467 shell pairs
          la=3 lb=2:    999 shell pairs
          la=3 lb=3:    141 shell pairs

Calculating one electron integrals          ... done (  0.2 sec)
Calculating RI/J V-Matrix + Cholesky decomp.... done (  0.1 sec)
Calculating Nuclear repulsion               ... done (  0.0 sec) ENN=   1426.750808052273 Eh

Diagonalization of the overlap matrix:
Smallest eigenvalue                        ... 6.710e-07
Time for diagonalization                   ...    0.124 sec
Threshold for overlap eigenvalues          ... 1.000e-07
Number of eigenvalues below threshold      ... 0

IMPORTANT:
Smallest eigenvalue of S below the DiffSThresh (1.000e-06) while
Thresh>1e-12 and/or TCut>1e-13! In order to avoid SCF convergence issues,
Thresh will be set to at least 1e-12 and TCut to at least 1e-13.
This can be turned off by adding %SCF DiffSThresh -1 END to the input.

Time for construction of square roots      ...    0.142 sec
Total time needed                          ...    0.282 sec

-------------------
DFT GRID GENERATION
-------------------

General Integration Accuracy     IntAcc      ... 4.388
Radial Grid Type                 RadialGrid  ... OptM3 with GC (2021)
Angular Grid (max. ang.)         AngularGrid ... 4 (Lebedev-302)
Angular grid pruning method      GridPruning ... 4 (adaptive)
Weight generation scheme         WeightScheme... mBecke (2022)
Basis function cutoff            BFCut       ... 1.0000e-11
Integration weight cutoff        WCut        ... 1.0000e-14
Partially contracted basis set               ... off
Rotationally invariant grid construction     ... off
Angular grids for H and He will be reduced by one unit
Diffuse basis detected: some atoms will have their outermost
                        angular grid increased by 1.

Total number of grid points                  ...   152291
Total number of batches                      ...     2397
Average number of points per batch           ...       63
Average number of grid points per atom       ...     5076

--------------------
COSX GRID GENERATION
--------------------

GRIDX 1
-------
General Integration Accuracy     IntAcc      ... 3.816
Radial Grid Type                 RadialGrid  ... OptM3 with GC (2021)
Angular Grid (max. ang.)         AngularGrid ... 1 (Lebedev-50)
Angular grid pruning method      GridPruning ... 4 (adaptive)
Weight generation scheme         WeightScheme... mBecke (2022)
Basis function cutoff            BFCut       ... 1.0000e-11
Integration weight cutoff        WCut        ... 1.0000e-14
Partially contracted basis set               ... on
Rotationally invariant grid construction     ... off
Angular grids for H and He will be reduced by one unit
Diffuse basis detected: some atoms will have their outermost
                        angular grid increased by 1.

Total number of grid points                  ...    19062
Total number of batches                      ...      165
Average number of points per batch           ...      115
Average number of grid points per atom       ...      635
UseSFitting                                  ... on

GRIDX 2
-------
General Integration Accuracy     IntAcc      ... 4.020
Radial Grid Type                 RadialGrid  ... OptM3 with GC (2021)
Angular Grid (max. ang.)         AngularGrid ... 2 (Lebedev-110)
Angular grid pruning method      GridPruning ... 4 (adaptive)
Weight generation scheme         WeightScheme... mBecke (2022)
Basis function cutoff            BFCut       ... 1.0000e-11
Integration weight cutoff        WCut        ... 1.0000e-14
Partially contracted basis set               ... on
Rotationally invariant grid construction     ... off
Angular grids for H and He will be reduced by one unit
Diffuse basis detected: some atoms will have their outermost
                        angular grid increased by 1.

Total number of grid points                  ...    46039
Total number of batches                      ...      376
Average number of points per batch           ...      122
Average number of grid points per atom       ...     1535
UseSFitting                                  ... on

GRIDX 3
-------
General Integration Accuracy     IntAcc      ... 4.338
Radial Grid Type                 RadialGrid  ... OptM3 with GC (2021)
Angular Grid (max. ang.)         AngularGrid ... 3 (Lebedev-194)
Angular grid pruning method      GridPruning ... 4 (adaptive)
Weight generation scheme         WeightScheme... mBecke (2022)
Basis function cutoff            BFCut       ... 1.0000e-11
Integration weight cutoff        WCut        ... 1.0000e-14
Partially contracted basis set               ... on
Rotationally invariant grid construction     ... off
Angular grids for H and He will be reduced by one unit
Diffuse basis detected: some atoms will have their outermost
                        angular grid increased by 1.

Total number of grid points                  ...   101295
Total number of batches                      ...      805
Average number of points per batch           ...      125
Average number of grid points per atom       ...     3376
UseSFitting                                  ... on
Initializing property integral containers    ... done (  0.0 sec)

SHARK setup successfully completed in   4.2 seconds

Maximum memory used throughout the entire STARTUP-calculation: 80.0 MB
[1739892363.485829] [ohm:203214:0]        ib_iface.c:1059 UCX  ERROR ibv_create_cq(cqe=256) failed: Connection timed out
[1739892363.500101] [ohm:203221:0]        ib_iface.c:1059 UCX  ERROR ibv_create_cq(cqe=256) failed: Connection timed out
[1739892363.502016] [ohm:203219:0]        ib_iface.c:1059 UCX  ERROR ibv_create_cq(cqe=256) failed: Connection timed out
[1739892363.505611] [ohm:203215:0]        ib_iface.c:1059 UCX  ERROR ibv_create_cq(cqe=256) failed: Connection timed out
[1739892363.505790] [ohm:203226:0]        ib_iface.c:1059 UCX  ERROR ibv_create_cq(cqe=256) failed: Connection timed out
[1739892363.513697] [ohm:203218:0]        ib_iface.c:1059 UCX  ERROR ibv_create_cq(cqe=256) failed: Connection timed out
[1739892363.519344] [ohm:203216:0]        ib_iface.c:1059 UCX  ERROR ibv_create_cq(cqe=256) failed: Connection timed out
[1739892363.519866] [ohm:203223:0]        ib_iface.c:1059 UCX  ERROR ibv_create_cq(cqe=256) failed: Connection timed out
[1739892363.561695] [ohm:203329:0]        ib_iface.c:1059 UCX  ERROR ibv_create_cq(cqe=256) failed: Connection timed out
[1739892363.569798] [ohm:203319:0]        ib_iface.c:1059 UCX  ERROR ibv_create_cq(cqe=256) failed: Connection timed out
[1739892363.572420] [ohm:203309:0]        ib_iface.c:1059 UCX  ERROR ibv_create_cq(cqe=256) failed: Connection timed out
[1739892363.576509] [ohm:203256:0]        ib_iface.c:1059 UCX  ERROR ibv_create_cq(cqe=256) failed: Connection timed out
[1739892363.584589] [ohm:203241:0]        ib_iface.c:1059 UCX  ERROR ibv_create_cq(cqe=256) failed: Connection timed out
[1739892363.589695] [ohm:203306:0]        ib_iface.c:1059 UCX  ERROR ibv_create_cq(cqe=256) failed: Connection timed out
[1739892363.615886] [ohm:203228:0]        ib_iface.c:1059 UCX  ERROR ibv_create_cq(cqe=256) failed: Connection timed out
[1739892363.620942] [ohm:203336:0]        ib_iface.c:1059 UCX  ERROR ibv_create_cq(cqe=256) failed: Connection timed out
[1739892363.630475] [ohm:203220:0]        ib_iface.c:1059 UCX  ERROR ibv_create_cq(cqe=256) failed: Connection timed out
[1739892363.650695] [ohm:203324:0]        ib_iface.c:1059 UCX  ERROR ibv_create_cq(cqe=256) failed: Connection timed out
[1739892363.650879] [ohm:203244:0]        ib_iface.c:1059 UCX  ERROR ibv_create_cq(cqe=256) failed: Connection timed out
[1739892363.680833] [ohm:203297:0]        ib_iface.c:1059 UCX  ERROR ibv_create_cq(cqe=256) failed: Connection timed out
[1739892363.687902] [ohm:203357:0]        ib_iface.c:1059 UCX  ERROR ibv_create_cq(cqe=256) failed: Connection timed out
[1739892363.692716] [ohm:203287:0]        ib_iface.c:1059 UCX  ERROR ibv_create_cq(cqe=256) failed: Connection timed out
[1739892363.697567] [ohm:203263:0]        ib_iface.c:1059 UCX  ERROR ibv_create_cq(cqe=256) failed: Connection timed out
[1739892363.706057] [ohm:203352:0]        ib_iface.c:1059 UCX  ERROR ibv_create_cq(cqe=256) failed: Connection timed out
[1739892363.709294] [ohm:203222:0]        ib_iface.c:1059 UCX  ERROR ibv_create_cq(cqe=256) failed: Connection timed out
[1739892363.710408] [ohm:203243:0]        ib_iface.c:1059 UCX  ERROR ibv_create_cq(cqe=256) failed: Connection timed out
[1739892363.710595] [ohm:203267:0]        ib_iface.c:1059 UCX  ERROR ibv_create_cq(cqe=256) failed: Connection timed out
[1739892363.717300] [ohm:203232:0]        ib_iface.c:1059 UCX  ERROR ibv_create_cq(cqe=256) failed: Connection timed out
[1739892363.718821] [ohm:203360:0]        ib_iface.c:1059 UCX  ERROR ibv_create_cq(cqe=256) failed: Connection timed out
[1739892363.725391] [ohm:203354:0]        ib_iface.c:1059 UCX  ERROR ibv_create_cq(cqe=256) failed: Connection timed out
[1739892363.728926] [ohm:203230:0]        ib_iface.c:1059 UCX  ERROR ibv_create_cq(cqe=256) failed: Connection timed out
[1739892363.729041] [ohm:203339:0]        ib_iface.c:1059 UCX  ERROR ibv_create_cq(cqe=256) failed: Connection timed out
[1739892363.732682] [ohm:203229:0]        ib_iface.c:1059 UCX  ERROR ibv_create_cq(cqe=256) failed: Connection timed out
[1739892363.740376] [ohm:203315:0]        ib_iface.c:1059 UCX  ERROR ibv_create_cq(cqe=256) failed: Connection timed out
[1739892363.742521] [ohm:203239:0]        ib_iface.c:1059 UCX  ERROR ibv_create_cq(cqe=256) failed: Connection timed out
[1739892363.747839] [ohm:203259:0]        ib_iface.c:1059 UCX  ERROR ibv_create_cq(cqe=256) failed: Connection timed out
[1739892363.761763] [ohm:203295:0]        ib_iface.c:1059 UCX  ERROR ibv_create_cq(cqe=256) failed: Connection timed out
[1739892363.763598] [ohm:203300:0]        ib_iface.c:1059 UCX  ERROR ibv_create_cq(cqe=256) failed: Connection timed out
[1739892363.765607] [ohm:203233:0]        ib_iface.c:1059 UCX  ERROR ibv_create_cq(cqe=256) failed: Connection timed out
[1739892363.766085] [ohm:203344:0]        ib_iface.c:1059 UCX  ERROR ibv_create_cq(cqe=256) failed: Connection timed out
[1739892363.768348] [ohm:203231:0]        ib_iface.c:1059 UCX  ERROR ibv_create_cq(cqe=256) failed: Connection timed out
[1739892363.779160] [ohm:203282:0]        ib_iface.c:1059 UCX  ERROR ibv_create_cq(cqe=256) failed: Connection timed out
[1739892363.784372] [ohm:203332:0]        ib_iface.c:1059 UCX  ERROR ibv_create_cq(cqe=256) failed: Connection timed out
[1739892363.790241] [ohm:203224:0]        ib_iface.c:1059 UCX  ERROR ibv_create_cq(cqe=256) failed: Connection timed out
[1739892363.791581] [ohm:203270:0]        ib_iface.c:1059 UCX  ERROR ibv_create_cq(cqe=256) failed: Connection timed out
[1739892363.794367] [ohm:203251:0]        ib_iface.c:1059 UCX  ERROR ibv_create_cq(cqe=256) failed: Connection timed out
[1739892363.794402] [ohm:203225:0]        ib_iface.c:1059 UCX  ERROR ibv_create_cq(cqe=256) failed: Connection timed out
[1739892363.796365] [ohm:203234:0]        ib_iface.c:1059 UCX  ERROR ibv_create_cq(cqe=256) failed: Connection timed out
[1739892363.800615] [ohm:203242:0]        ib_iface.c:1059 UCX  ERROR ibv_create_cq(cqe=256) failed: Connection timed out
[1739892363.800913] [ohm:203240:0]        ib_iface.c:1059 UCX  ERROR ibv_create_cq(cqe=256) failed: Connection timed out
[1739892363.802546] [ohm:203236:0]        ib_iface.c:1059 UCX  ERROR ibv_create_cq(cqe=256) failed: Connection timed out
[1739892363.803940] [ohm:203250:0]        ib_iface.c:1059 UCX  ERROR ibv_create_cq(cqe=256) failed: Connection timed out
[1739892363.807912] [ohm:203292:0]        ib_iface.c:1059 UCX  ERROR ibv_create_cq(cqe=256) failed: Connection timed out
[1739892363.808470] [ohm:203237:0]        ib_iface.c:1059 UCX  ERROR ibv_create_cq(cqe=256) failed: Connection timed out
[1739892363.808893] [ohm:203238:0]        ib_iface.c:1059 UCX  ERROR ibv_create_cq(cqe=256) failed: Connection timed out
[1739892363.809891] [ohm:203317:0]        ib_iface.c:1059 UCX  ERROR ibv_create_cq(cqe=256) failed: Connection timed out
[1739892363.809930] [ohm:203245:0]        ib_iface.c:1059 UCX  ERROR ibv_create_cq(cqe=256) failed: Connection timed out
[1739892363.810312] [ohm:203276:0]        ib_iface.c:1059 UCX  ERROR ibv_create_cq(cqe=256) failed: Connection timed out
[1739892363.810620] [ohm:203347:0]        ib_iface.c:1059 UCX  ERROR ibv_create_cq(cqe=256) failed: Connection timed out
[1739892363.810796] [ohm:203235:0]        ib_iface.c:1059 UCX  ERROR ibv_create_cq(cqe=256) failed: Connection timed out
[1739892363.812189] [ohm:203323:0]        ib_iface.c:1059 UCX  ERROR ibv_create_cq(cqe=256) failed: Connection timed out
[1739892363.812613] [ohm:203227:0]        ib_iface.c:1059 UCX  ERROR ibv_create_cq(cqe=256) failed: Connection timed out
[1739892363.818994] [ohm:203217:0]        ib_iface.c:1059 UCX  ERROR ibv_create_cq(cqe=256) failed: Connection timed out
[1739892363.830133] [ohm:203283:0]        ib_iface.c:1059 UCX  ERROR ibv_create_cq(cqe=256) failed: Connection timed out


           ************************************************************
           *        Program running with 64 parallel MPI-processes    *
           *              working on a common directory               *
           ************************************************************
-------------------------------------------------------------------------------
                                 ORCA GUESS
                   Start orbitals & Density for SCF / CASSCF
-------------------------------------------------------------------------------

------------
SCF SETTINGS
------------
Hamiltonian:
 Density Functional     Method          .... DFT(GTOs)
  Functional kind                       .... Exchange-Correlation
  Functional name                       .... wB97M-V exchange-correlation functional
  Functional family                     .... Hybrid MGGA
  Functional refs                              
    [ 0] N. Mardirossian and M. Head-Gordon.,  J. Chem. Phys. 144, 214110 (2016), doi: 10.1063/1.4952647
  Fraction of HF Exchange (short range) .... 0.1500
  Fraction of HF Exchange (long range)  .... 1.0000
  Range separation parameter mu         .... 0.3000
  Functional external parameters        .... 17
    Parameter  0 _cx00      =  8.500000e-01 : u^00 coefficient for exchange
    Parameter  1 _cx01      =  1.007000e+00 : u^01 coefficient for exchange
    Parameter  2 _cx10      =  2.590000e-01 : u^10 coefficient for exchange
    Parameter  3 _css00     =  4.430000e-01 : u^00 coefficient for same-spin correlation
    Parameter  4 _css04     = -1.437000e+00 : u^04 coefficient for same-spin correlation
    Parameter  5 _css10     = -4.535000e+00 : u^10 coefficient for same-spin correlation
    Parameter  6 _css20     = -3.390000e+00 : u^20 coefficient for same-spin correlation
    Parameter  7 _css43     =  4.278000e+00 : u^43 coefficient for same-spin correlation
    Parameter  8 _cos00     =  1.000000e+00 : u^00 coefficient for opposite-spin correlation
    Parameter  9 _cos10     =  1.358000e+00 : u^10 coefficient for opposite-spin correlation
    Parameter 10 _cos20     =  2.924000e+00 : u^20 coefficient for opposite-spin correlation
    Parameter 11 _cos21     = -8.812000e+00 : u^21 coefficient for opposite-spin correlation
    Parameter 12 _cos60     = -1.390000e+00 : u^60 coefficient for opposite-spin correlation
    Parameter 13 _cos61     =  9.142000e+00 : u^61 coefficient for opposite-spin correlation
    Parameter 14 _alpha     =  1.000000e+00 : fraction of HF exchange
    Parameter 15 _beta      = -8.500000e-01 : fraction of short-range exchange
    Parameter 16 _omega     =  3.000000e-01 : range-separation constant
 Long-range corrected/Screened/Range-Separated Hybrid DFT is turned on
   Amount of maximum screened exact exchange              ....  0.850000
   Range separation parameter mu (erf(mu*r12)/r12)        ....  0.300000
 RI-approximation to the Coulomb term is turned on
   Number of AuxJ basis functions       .... 1014
   RIJ-COSX (HFX calculated with COS-X)).... on


General Settings:
 Integral files         IntName         .... orca
 Hartree-Fock type      HFTyp           .... UHF
 Total Charge           Charge          ....    0
 Multiplicity           Mult            ....    3
 Number of Electrons    NEL             ....  132
 Basis Dimension        Dim             ....  882
 Nuclear Repulsion      ENuc            ....   1426.7508080523 Eh

Convergence Acceleration:
 AO-DIIS                CNVDIIS         .... on
   Start iteration      DIISMaxIt       ....    12
   Startup error        DIISStart       ....  0.200000
   # of expansion vecs  DIISMaxEq       ....     5
   Bias factor          DIISBfac        ....   1.050
   Max. coefficient     DIISMaxC        ....  10.000
 MO-DIIS                CNVKDIIS        .... off
 Trust-Rad. Augm. Hess. CNVTRAH         .... auto
   Auto Start mean grad. ratio tolernc. ....  1.125000
   Auto Start start iteration           ....    50
   Auto Start num. interpolation iter.  ....    10
   Max. Number of Micro iterations      ....    24
   Max. Number of Macro iterations      .... Maxiter - #DIIS iter
   Number of Davidson start vectors     ....     2
   Converg. threshold    (grad. norm)   ....   1.000e-05
   Grad. Scal. Fac. for Micro threshold ....   0.100
   Minimum threshold for Micro iter.    ....   1.000e-02
   NR start threshold (gradient norm)   ....   1.000e-04
   Initial trust radius                 ....   0.400
   Minimum AH scaling param. (alpha)    ....   1.000
   Maximum AH scaling param. (alpha)    .... 1000.000
   Quad. conv. algorithm                .... NR
   White noise on init. David. guess    .... on
   Maximum white noise                  ....   0.010
   Pseudo random numbers                .... off
   Inactive MOs                         .... canonical
   Orbital update algorithm             .... Taylor
   Preconditioner                       .... Diag
   Full preconditioner red. dimension   ....   250
 SOSCF                  CNVSOSCF        .... on
   Start iteration      SOSCFMaxIt      ....   150
   Startup grad/error   SOSCFStart      ....  0.003300
   Hessian update       SOSCFHessUp     .... L-BFGS
 Level Shifting         CNVShift        .... on
   Level shift para.    LevelShift      ....    0.2500
   Turn off err/grad.   ShiftErr        ....    0.0010
 Zerner damping         CNVZerner       .... off
 Static damping         CNVDamp         .... on
   Fraction old density DampFac         ....    0.7000
   Max. Damping (<1)    DampMax         ....    0.9800
   Min. Damping (>=0)   DampMin         ....    0.0000
   Turn off err/grad.   DampErr         ....    0.1000

SCF Procedure:
 Maximum # iterations   MaxIter         ....   125
 SCF integral mode      SCFMode         .... Direct
   Integral package                     .... SHARK and LIBINT hybrid scheme
 Reset frequency        DirectResetFreq ....    20
 Integral Threshold     Thresh          ....  1.000e-12 Eh
 Primitive CutOff       TCut            ....  1.000e-13 Eh

Convergence Tolerance:
 Convergence Check Mode ConvCheckMode   .... Total+1el-Energy
 Convergence forced     ConvForced      .... 1
 Energy Change          TolE            ....  1.000e-08 Eh
 1-El. energy change                    ....  1.000e-05 Eh
 Orbital Gradient       TolG            ....  1.000e-05
 Orbital Rotation angle TolX            ....  1.000e-05
 DIIS Error             TolErr          ....  5.000e-07

------------------------------
INITIAL GUESS: MODEL POTENTIAL
------------------------------
Loading Hartree-Fock densities                     ... done
Calculating cut-offs                               ... done
Initializing the effective Hamiltonian             ... done
Setting up the integral package (SHARK)            ... done
Starting the Coulomb interaction                   ... done (   0.1 sec)
Making the grid                                    ... done (   0.3 sec)
Mapping shells                                     ... done
Starting the XC term evaluation                    ... done (   0.1 sec)
  promolecular density results
     # of electrons  =    131.988891302
     EX              =   -113.531150806
     EC              =     -4.472501048
     EX+EC           =   -118.003651854
Transforming the Hamiltonian                       ... done (   0.1 sec)
Diagonalizing the Hamiltonian                      ... done (   0.1 sec)
Back transforming the eigenvectors                 ... done (   0.1 sec)
Now organizing SCF variables                       ... done
                      ------------------
                      INITIAL GUESS DONE (   1.1 sec)
                      ------------------
             **** ENERGY FILE WAS UPDATED (orca.en.tmp) ****
Finished Guess after   3.5 sec
Maximum memory used throughout the entire GUESS-calculation: 72.2 MB
[1739892367.563971] [ohm:203569:0]        ib_iface.c:1059 UCX  ERROR ibv_create_cq(cqe=256) failed: Connection timed out
[1739892367.578796] [ohm:203566:0]        ib_iface.c:1059 UCX  ERROR ibv_create_cq(cqe=256) failed: Connection timed out
[1739892367.642690] [ohm:203567:0]        ib_iface.c:1059 UCX  ERROR ibv_create_cq(cqe=256) failed: Connection timed out
[1739892367.661623] [ohm:203581:0]        ib_iface.c:1059 UCX  ERROR ibv_create_cq(cqe=256) failed: Connection timed out
[1739892367.667961] [ohm:203574:0]        ib_iface.c:1059 UCX  ERROR ibv_create_cq(cqe=256) failed: Connection timed out
[1739892367.670461] [ohm:203564:0]        ib_iface.c:1059 UCX  ERROR ibv_create_cq(cqe=256) failed: Connection timed out
[1739892367.676678] [ohm:203571:0]        ib_iface.c:1059 UCX  ERROR ibv_create_cq(cqe=256) failed: Connection timed out
[1739892367.676985] [ohm:203578:0]        ib_iface.c:1059 UCX  ERROR ibv_create_cq(cqe=256) failed: Connection timed out
[1739892367.703830] [ohm:203702:0]        ib_iface.c:1059 UCX  ERROR ibv_create_cq(cqe=256) failed: Connection timed out
[1739892367.710780] [ohm:203705:0]        ib_iface.c:1059 UCX  ERROR ibv_create_cq(cqe=256) failed: Connection timed out
[1739892367.715453] [ohm:203570:0]        ib_iface.c:1059 UCX  ERROR ibv_create_cq(cqe=256) failed: Connection timed out
[1739892367.715999] [ohm:203697:0]        ib_iface.c:1059 UCX  ERROR ibv_create_cq(cqe=256) failed: Connection timed out
[1739892367.719922] [ohm:203595:0]        ib_iface.c:1059 UCX  ERROR ibv_create_cq(cqe=256) failed: Connection timed out
[1739892367.723224] [ohm:203600:0]        ib_iface.c:1059 UCX  ERROR ibv_create_cq(cqe=256) failed: Connection timed out
[1739892367.728037] [ohm:203675:0]        ib_iface.c:1059 UCX  ERROR ibv_create_cq(cqe=256) failed: Connection timed out
[1739892367.733343] [ohm:203585:0]        ib_iface.c:1059 UCX  ERROR ibv_create_cq(cqe=256) failed: Connection timed out
[1739892367.747197] [ohm:203668:0]        ib_iface.c:1059 UCX  ERROR ibv_create_cq(cqe=256) failed: Connection timed out
[1739892367.775751] [ohm:203592:0]        ib_iface.c:1059 UCX  ERROR ibv_create_cq(cqe=256) failed: Connection timed out
[1739892367.820913] [ohm:203575:0]        ib_iface.c:1059 UCX  ERROR ibv_create_cq(cqe=256) failed: Connection timed out
[1739892367.832619] [ohm:203579:0]        ib_iface.c:1059 UCX  ERROR ibv_create_cq(cqe=256) failed: Connection timed out
[1739892367.833857] [ohm:203642:0]        ib_iface.c:1059 UCX  ERROR ibv_create_cq(cqe=256) failed: Connection timed out
[1739892367.834290] [ohm:203691:0]        ib_iface.c:1059 UCX  ERROR ibv_create_cq(cqe=256) failed: Connection timed out
[1739892367.845070] [ohm:203568:0]        ib_iface.c:1059 UCX  ERROR ibv_create_cq(cqe=256) failed: Connection timed out
[1739892367.855865] [ohm:203580:0]        ib_iface.c:1059 UCX  ERROR ibv_create_cq(cqe=256) failed: Connection timed out
[1739892367.860991] [ohm:203577:0]        ib_iface.c:1059 UCX  ERROR ibv_create_cq(cqe=256) failed: Connection timed out
[1739892367.869363] [ohm:203573:0]        ib_iface.c:1059 UCX  ERROR ibv_create_cq(cqe=256) failed: Connection timed out
[1739892367.872512] [ohm:203587:0]        ib_iface.c:1059 UCX  ERROR ibv_create_cq(cqe=256) failed: Connection timed out
[1739892367.873029] [ohm:203621:0]        ib_iface.c:1059 UCX  ERROR ibv_create_cq(cqe=256) failed: Connection timed out
[1739892367.873140] [ohm:203613:0]        ib_iface.c:1059 UCX  ERROR ibv_create_cq(cqe=256) failed: Connection timed out
[1739892367.875053] [ohm:203617:0]        ib_iface.c:1059 UCX  ERROR ibv_create_cq(cqe=256) failed: Connection timed out
[1739892367.877786] [ohm:203684:0]        ib_iface.c:1059 UCX  ERROR ibv_create_cq(cqe=256) failed: Connection timed out
[1739892367.897815] [ohm:203572:0]        ib_iface.c:1059 UCX  ERROR ibv_create_cq(cqe=256) failed: Connection timed out
[1739892367.900530] [ohm:203604:0]        ib_iface.c:1059 UCX  ERROR ibv_create_cq(cqe=256) failed: Connection timed out
[1739892367.905271] [ohm:203614:0]        ib_iface.c:1059 UCX  ERROR ibv_create_cq(cqe=256) failed: Connection timed out
[1739892367.909012] [ohm:203700:0]        ib_iface.c:1059 UCX  ERROR ibv_create_cq(cqe=256) failed: Connection timed out
[1739892367.913620] [ohm:203609:0]        ib_iface.c:1059 UCX  ERROR ibv_create_cq(cqe=256) failed: Connection timed out
[1739892367.916559] [ohm:203685:0]        ib_iface.c:1059 UCX  ERROR ibv_create_cq(cqe=256) failed: Connection timed out
[1739892367.922129] [ohm:203656:0]        ib_iface.c:1059 UCX  ERROR ibv_create_cq(cqe=256) failed: Connection timed out
[1739892367.933631] [ohm:203583:0]        ib_iface.c:1059 UCX  ERROR ibv_create_cq(cqe=256) failed: Connection timed out
[1739892367.933967] [ohm:203664:0]        ib_iface.c:1059 UCX  ERROR ibv_create_cq(cqe=256) failed: Connection timed out
[1739892367.934158] [ohm:203586:0]        ib_iface.c:1059 UCX  ERROR ibv_create_cq(cqe=256) failed: Connection timed out
[1739892367.936696] [ohm:203576:0]        ib_iface.c:1059 UCX  ERROR ibv_create_cq(cqe=256) failed: Connection timed out
[1739892367.939556] [ohm:203667:0]        ib_iface.c:1059 UCX  ERROR ibv_create_cq(cqe=256) failed: Connection timed out
[1739892367.941909] [ohm:203660:0]        ib_iface.c:1059 UCX  ERROR ibv_create_cq(cqe=256) failed: Connection timed out
[1739892367.945261] [ohm:203565:0]        ib_iface.c:1059 UCX  ERROR ibv_create_cq(cqe=256) failed: Connection timed out
[1739892367.948581] [ohm:203645:0]        ib_iface.c:1059 UCX  ERROR ibv_create_cq(cqe=256) failed: Connection timed out
[1739892367.955153] [ohm:203677:0]        ib_iface.c:1059 UCX  ERROR ibv_create_cq(cqe=256) failed: Connection timed out
[1739892367.955415] [ohm:203584:0]        ib_iface.c:1059 UCX  ERROR ibv_create_cq(cqe=256) failed: Connection timed out
[1739892367.955587] [ohm:203688:0]        ib_iface.c:1059 UCX  ERROR ibv_create_cq(cqe=256) failed: Connection timed out
[1739892367.958439] [ohm:203662:0]        ib_iface.c:1059 UCX  ERROR ibv_create_cq(cqe=256) failed: Connection timed out
[1739892367.960056] [ohm:203628:0]        ib_iface.c:1059 UCX  ERROR ibv_create_cq(cqe=256) failed: Connection timed out
[1739892367.964728] [ohm:203619:0]        ib_iface.c:1059 UCX  ERROR ibv_create_cq(cqe=256) failed: Connection timed out
[1739892367.965616] [ohm:203657:0]        ib_iface.c:1059 UCX  ERROR ibv_create_cq(cqe=256) failed: Connection timed out
[1739892367.966160] [ohm:203652:0]        ib_iface.c:1059 UCX  ERROR ibv_create_cq(cqe=256) failed: Connection timed out
[1739892367.966464] [ohm:203693:0]        ib_iface.c:1059 UCX  ERROR ibv_create_cq(cqe=256) failed: Connection timed out
[1739892367.969157] [ohm:203582:0]        ib_iface.c:1059 UCX  ERROR ibv_create_cq(cqe=256) failed: Connection timed out
[1739892367.970633] [ohm:203590:0]        ib_iface.c:1059 UCX  ERROR ibv_create_cq(cqe=256) failed: Connection timed out
[1739892367.972585] [ohm:203634:0]        ib_iface.c:1059 UCX  ERROR ibv_create_cq(cqe=256) failed: Connection timed out
[1739892367.973151] [ohm:203593:0]        ib_iface.c:1059 UCX  ERROR ibv_create_cq(cqe=256) failed: Connection timed out
[1739892367.973178] [ohm:203638:0]        ib_iface.c:1059 UCX  ERROR ibv_create_cq(cqe=256) failed: Connection timed out
[1739892367.975397] [ohm:203588:0]        ib_iface.c:1059 UCX  ERROR ibv_create_cq(cqe=256) failed: Connection timed out
[1739892367.975850] [ohm:203589:0]        ib_iface.c:1059 UCX  ERROR ibv_create_cq(cqe=256) failed: Connection timed out
[1739892367.976673] [ohm:203649:0]        ib_iface.c:1059 UCX  ERROR ibv_create_cq(cqe=256) failed: Connection timed out
[1739892367.977417] [ohm:203630:0]        ib_iface.c:1059 UCX  ERROR ibv_create_cq(cqe=256) failed: Connection timed out


           ************************************************************
           *        Program running with 64 parallel MPI-processes    *
           *              working on a common directory               *
           ************************************************************

-------------------------------------------------------------------------------------------
                                      ORCA LEAN-SCF
                              memory conserving SCF solver
-------------------------------------------------------------------------------------------

----------------------------------------D-I-I-S--------------------------------------------
Iteration    Energy (Eh)           Delta-E    RMSDP     MaxDP     DIISErr   Damp  Time(sec)
-------------------------------------------------------------------------------------------
               ***  Starting incremental Fock matrix formation  ***
    1    -908.0499196083530933     0.00e+00  1.33e-03  2.09e-01  1.52e-01  0.700   7.8
    2    -908.3272158082129408    -2.77e-01  1.14e-03  1.44e-01  7.30e-02  0.700   6.7
                               ***Turning on AO-DIIS***
    3    -908.4508575461479722    -1.24e-01  8.28e-04  1.01e-01  2.71e-02  0.700   5.8
    4    -908.5271179975527502    -7.63e-02  1.99e-03  2.41e-01  1.85e-02  0.000   5.9
    5    -908.7017418458492557    -1.75e-01  2.81e-04  3.84e-02  6.27e-03  0.000   6.0
    6    -908.7055656536920196    -3.82e-03  2.01e-04  2.53e-02  5.88e-03  0.000   5.7
    7    -908.7085715804525989    -3.01e-03  3.11e-04  5.66e-02  5.23e-03  0.000   5.6
    8    -908.7118895234705178    -3.32e-03  1.75e-04  2.10e-02  4.26e-03  0.000   5.7
                              *** Initializing SOSCF ***
---------------------------------------S-O-S-C-F--------------------------------------
Iteration    Energy (Eh)           Delta-E    RMSDP     MaxDP     MaxGrad    Time(sec)
--------------------------------------------------------------------------------------
    9    -908.7135070031783926    -1.62e-03  1.88e-04  3.54e-02  2.91e-03     6.5
               *** Restarting incremental Fock matrix formation ***
   10    -908.7144991944662706    -9.92e-04  2.30e-04  1.81e-02  7.65e-03     7.4
   11    -908.7149132174311035    -4.14e-04  2.22e-04  1.77e-02  3.55e-03     6.6
   12    -908.7151575737786970    -2.44e-04  1.34e-04  1.29e-02  4.68e-04     6.6
   13    -908.7151723916219908    -1.48e-05  5.40e-05  3.97e-03  3.02e-04     6.4
   14    -908.7151793516370617    -6.96e-06  2.71e-05  3.39e-03  1.10e-04     6.2
   15    -908.7151804878519670    -1.14e-06  1.14e-05  1.57e-03  1.01e-04     6.1
   16    -908.7151808542446361    -3.66e-07  5.62e-06  9.23e-04  7.06e-05     5.9
   17    -908.7151810299822046    -1.76e-07  4.97e-06  7.02e-04  4.37e-05     5.9
   18    -908.7151811261026069    -9.61e-08  1.56e-06  1.40e-04  2.51e-05     5.8
   19    -908.7151811349351647    -8.83e-09  1.84e-06  2.58e-04  1.11e-05     5.6
                 **** Energy Check signals convergence ****

               *****************************************************
               *                     SUCCESS                       *
               *           SCF CONVERGED AFTER  19 CYCLES          *
               *****************************************************

Recomputing exchange energy using gridx3       ... done (    7.934 sec)
Old exchange energy                            :    -35.007047667 Eh
New exchange energy                            :    -35.007047940 Eh
Exchange energy change after final integration :     -0.000000274 Eh
Total energy after final integration           :   -908.715181409 Eh
             **** ENERGY FILE WAS UPDATED (orca.en.tmp) ****

----------------
TOTAL SCF ENERGY
----------------

Total Energy       :       -908.71518140872604 Eh          -24727.39720 eV

Components:
Nuclear Repulsion  :       1426.75080805227321 Eh           38823.86325 eV
Electronic Energy  :      -2335.46598918720838 Eh          -63551.26045 eV
One Electron Energy:      -4070.83135070065873 Eh         -110772.95264 eV
Two Electron Energy:       1735.36536151345035 Eh           47221.69219 eV

Virial components:
Potential Energy   :      -1814.44852272162825 Eh          -49373.65441 eV
Kinetic Energy     :        905.73334131290221 Eh           24646.25721 eV
Virial Ratio       :          2.00329218320648

DFT components:
N(Alpha)           :       66.999856542027 electrons
N(Beta)            :       64.999872861195 electrons
N(Total)           :      131.999729403223 electrons
E(XC)              :      -86.215487905400 Eh       

---------------
SCF CONVERGENCE
---------------

  Last Energy change         ...    8.8326e-09  Tolerance :   1.0000e-08
  Last MAX-Density change    ...    2.5779e-04  Tolerance :   1.0000e-07
  Last RMS-Density change    ...    1.8361e-06  Tolerance :   5.0000e-09
  Last DIIS Error            ...    2.9061e-03  Tolerance :   5.0000e-07
  Last Orbital Gradient      ...    1.1141e-05  Tolerance :   1.0000e-05
  Last Orbital Rotation      ...    6.2229e-05  Tolerance :   1.0000e-05


----------------------
UHF SPIN CONTAMINATION
----------------------

Warning: in a DFT calculation there is little theoretical justification to 
         calculate <S**2> as in Hartree-Fock theory. We will do it anyways
         but you should keep in mind that the values have only limited relevance

Expectation value of <S**2>     :     2.011989
Ideal value S*(S+1) for S=1.0   :     2.000000
Deviation                       :     0.011989

----------------
ORBITAL ENERGIES
----------------
                 SPIN UP ORBITALS
  NO   OCC          E(Eh)            E(eV) 
   0   1.0000     -19.334416      -526.1162 
   1   1.0000     -19.331008      -526.0235 
   2   1.0000     -19.320323      -525.7327 
   3   1.0000     -19.313975      -525.5600 
   4   1.0000     -14.594086      -397.1253 
   5   1.0000     -14.582985      -396.8232 
   6   1.0000     -14.568557      -396.4306 
   7   1.0000     -14.561455      -396.2373 
   8   1.0000     -10.514045      -286.1017 
   9   1.0000     -10.509039      -285.9655 
  10   1.0000     -10.474538      -285.0267 
  11   1.0000     -10.467939      -284.8471 
  12   1.0000     -10.452674      -284.4317 
  13   1.0000     -10.416455      -283.4461 
  14   1.0000     -10.410203      -283.2760 
  15   1.0000     -10.395784      -282.8837 
  16   1.0000     -10.368652      -282.1454 
  17   1.0000     -10.364334      -282.0279 
  18   1.0000      -1.228919       -33.4406 
  19   1.0000      -1.220672       -33.2162 
  20   1.0000      -1.191964       -32.4350 
  21   1.0000      -1.179799       -32.1040 
  22   1.0000      -1.123146       -30.5624 
  23   1.0000      -1.121194       -30.5093 
  24   1.0000      -1.076092       -29.2820 
  25   1.0000      -1.065855       -29.0034 
  26   1.0000      -0.968682       -26.3592 
  27   1.0000      -0.953487       -25.9457 
  28   1.0000      -0.857079       -23.3223 
  29   1.0000      -0.847399       -23.0589 
  30   1.0000      -0.820797       -22.3350 
  31   1.0000      -0.818574       -22.2745 
  32   1.0000      -0.793243       -21.5852 
  33   1.0000      -0.789636       -21.4871 
  34   1.0000      -0.708589       -19.2817 
  35   1.0000      -0.700220       -19.0540 
  36   1.0000      -0.688935       -18.7469 
  37   1.0000      -0.683371       -18.5955 
  38   1.0000      -0.647773       -17.6268 
  39   1.0000      -0.637902       -17.3582 
  40   1.0000      -0.632149       -17.2017 
  41   1.0000      -0.609329       -16.5807 
  42   1.0000      -0.597891       -16.2694 
  43   1.0000      -0.588383       -16.0107 
  44   1.0000      -0.572154       -15.5691 
  45   1.0000      -0.566128       -15.4051 
  46   1.0000      -0.560358       -15.2481 
  47   1.0000      -0.558813       -15.2061 
  48   1.0000      -0.547267       -14.8919 
  49   1.0000      -0.544443       -14.8151 
  50   1.0000      -0.539744       -14.6872 
  51   1.0000      -0.529083       -14.3971 
  52   1.0000      -0.519216       -14.1286 
  53   1.0000      -0.513085       -13.9618 
  54   1.0000      -0.502550       -13.6751 
  55   1.0000      -0.496854       -13.5201 
  56   1.0000      -0.482862       -13.1393 
  57   1.0000      -0.474884       -12.9223 
  58   1.0000      -0.426848       -11.6151 
  59   1.0000      -0.411333       -11.1930 
  60   1.0000      -0.409622       -11.1464 
  61   1.0000      -0.397835       -10.8256 
  62   1.0000      -0.392673       -10.6852 
  63   1.0000      -0.383607       -10.4385 
  64   1.0000      -0.374290       -10.1849 
  65   1.0000      -0.333393        -9.0721 
  66   1.0000      -0.233799        -6.3620 
  67   0.0000       0.004657         0.1267 
  68   0.0000       0.012957         0.3526 
  69   0.0000       0.027389         0.7453 
  70   0.0000       0.036242         0.9862 
  71   0.0000       0.040741         1.1086 
  72   0.0000       0.053380         1.4526 
  73   0.0000       0.057745         1.5713 
  74   0.0000       0.059597         1.6217 
  75   0.0000       0.062691         1.7059 
  76   0.0000       0.065247         1.7755 
  77   0.0000       0.070589         1.9208 

                 SPIN DOWN ORBITALS
  NO   OCC          E(Eh)            E(eV) 
   0   1.0000     -19.332788      -526.0719 
   1   1.0000     -19.323531      -525.8200 
   2   1.0000     -19.320315      -525.7325 
   3   1.0000     -19.313729      -525.5533 
   4   1.0000     -14.594025      -397.1236 
   5   1.0000     -14.578398      -396.6984 
   6   1.0000     -14.568571      -396.4310 
   7   1.0000     -14.560654      -396.2155 
   8   1.0000     -10.514288      -286.1083 
   9   1.0000     -10.509030      -285.9653 
  10   1.0000     -10.474592      -285.0281 
  11   1.0000     -10.467742      -284.8418 
  12   1.0000     -10.452515      -284.4274 
  13   1.0000     -10.407684      -283.2075 
  14   1.0000     -10.399464      -282.9838 
  15   1.0000     -10.395455      -282.8747 
  16   1.0000     -10.368552      -282.1426 
  17   1.0000     -10.364633      -282.0360 
  18   1.0000      -1.225122       -33.3373 
  19   1.0000      -1.220513       -33.2118 
  20   1.0000      -1.181255       -32.1436 
  21   1.0000      -1.179531       -32.0967 
  22   1.0000      -1.121675       -30.5223 
  23   1.0000      -1.112562       -30.2744 
  24   1.0000      -1.075934       -29.2776 
  25   1.0000      -1.060076       -28.8461 
  26   1.0000      -0.956127       -26.0175 
  27   1.0000      -0.943901       -25.6848 
  28   1.0000      -0.856726       -23.3127 
  29   1.0000      -0.835876       -22.7453 
  30   1.0000      -0.820225       -22.3195 
  31   1.0000      -0.807940       -21.9852 
  32   1.0000      -0.793072       -21.5806 
  33   1.0000      -0.781604       -21.2685 
  34   1.0000      -0.708325       -19.2745 
  35   1.0000      -0.692742       -18.8505 
  36   1.0000      -0.688568       -18.7369 
  37   1.0000      -0.673103       -18.3161 
  38   1.0000      -0.646599       -17.5949 
  39   1.0000      -0.629426       -17.1276 
  40   1.0000      -0.625901       -17.0316 
  41   1.0000      -0.599529       -16.3140 
  42   1.0000      -0.589995       -16.0546 
  43   1.0000      -0.587276       -15.9806 
  44   1.0000      -0.565660       -15.3924 
  45   1.0000      -0.561185       -15.2706 
  46   1.0000      -0.555419       -15.1137 
  47   1.0000      -0.550181       -14.9712 
  48   1.0000      -0.545504       -14.8439 
  49   1.0000      -0.539864       -14.6904 
  50   1.0000      -0.523437       -14.2434 
  51   1.0000      -0.519545       -14.1375 
  52   1.0000      -0.517081       -14.0705 
  53   1.0000      -0.498089       -13.5537 
  54   1.0000      -0.495510       -13.4835 
  55   1.0000      -0.489065       -13.3081 
  56   1.0000      -0.472536       -12.8584 
  57   1.0000      -0.446942       -12.1619 
  58   1.0000      -0.420715       -11.4482 
  59   1.0000      -0.409683       -11.1480 
  60   1.0000      -0.395406       -10.7596 
  61   1.0000      -0.387831       -10.5534 
  62   1.0000      -0.385432       -10.4881 
  63   1.0000      -0.380926       -10.3655 
  64   1.0000      -0.336167        -9.1476 
  65   0.0000      -0.093606        -2.5471 
  66   0.0000       0.005847         0.1591 
  67   0.0000       0.013010         0.3540 
  68   0.0000       0.026619         0.7243 
  69   0.0000       0.033604         0.9144 
  70   0.0000       0.037058         1.0084 
  71   0.0000       0.047313         1.2875 
  72   0.0000       0.053703         1.4613 
  73   0.0000       0.058312         1.5868 
  74   0.0000       0.060374         1.6429 
  75   0.0000       0.065266         1.7760 
*Only the first 10 virtual orbitals were printed.

                    ********************************
                    * MULLIKEN POPULATION ANALYSIS *
                    ********************************

--------------------------------------------
MULLIKEN ATOMIC CHARGES AND SPIN POPULATIONS
--------------------------------------------
   0 O :   -0.724383    0.006681
   1 O :   -0.681911    0.272766
   2 O :   -0.691272    0.001054
   3 O :   -0.645593    0.058936
   4 N :   -0.007355    0.002628
   5 N :   -0.033838    0.204278
   6 N :    0.065644   -0.001160
   7 N :   -0.036116    0.035815
   8 C :    0.661719    0.027228
   9 C :    0.812286    0.263541
  10 C :   -0.226415    0.022402
  11 C :   -0.286632    0.858464
  12 C :   -1.307555    0.032636
  13 C :   -1.217126    0.042979
  14 C :    0.534467   -0.028369
  15 C :    0.483223    0.206259
  16 C :    0.412955   -0.001678
  17 C :    0.503601   -0.028012
  18 H :    0.253598    0.003294
  19 H :    0.206111    0.003092
  20 H :    0.250504   -0.005956
  21 H :    0.337750   -0.010801
  22 H :    0.343759    0.005119
  23 H :    0.282148   -0.003194
  24 H :    0.360229    0.023038
  25 H :    0.126146    0.036814
  26 H :    0.126648   -0.000151
  27 H :    0.019164   -0.026578
  28 H :    0.012737   -0.000111
  29 H :    0.065507   -0.001016
Sum of atomic charges         :   -0.0000000
Sum of atomic spin populations:    2.0000000

-----------------------------------------------------
MULLIKEN REDUCED ORBITAL CHARGES AND SPIN POPULATIONS
-----------------------------------------------------
CHARGE
  0 O s       :     4.104660  s :     4.104660
      pz      :     1.740388  p :     4.593340
      px      :     1.410834
      py      :     1.442118
      dz2     :     0.003203  d :     0.024533
      dxz     :    -0.000018
      dyz     :     0.005300
      dx2y2   :     0.009769
      dxy     :     0.006280
      f0      :     0.000193  f :     0.001850
      f+1     :     0.000145
      f-1     :     0.000256
      f+2     :     0.000153
[...]
[1739892640.539501] [ohm:206475:0]        ib_iface.c:1059 UCX  ERROR ibv_create_cq(cqe=256) failed: Connection timed out
[1739892640.540348] [ohm:206440:0]        ib_iface.c:1059 UCX  ERROR ibv_create_cq(cqe=256) failed: Connection timed out
[1739892640.542839] [ohm:206451:0]        ib_iface.c:1059 UCX  ERROR ibv_create_cq(cqe=256) failed: Connection timed out
[1739892640.544271] [ohm:206348:0]        ib_iface.c:1059 UCX  ERROR ibv_create_cq(cqe=256) failed: Connection timed out
[1739892640.544246] [ohm:206455:0]        ib_iface.c:1059 UCX  ERROR ibv_create_cq(cqe=256) failed: Connection timed out
[1739892640.547419] [ohm:206428:0]        ib_iface.c:1059 UCX  ERROR ibv_create_cq(cqe=256) failed: Connection timed out
[1739892640.547868] [ohm:206383:0]        ib_iface.c:1059 UCX  ERROR ibv_create_cq(cqe=256) failed: Connection timed out
[1739892640.547984] [ohm:206365:0]        ib_iface.c:1059 UCX  ERROR ibv_create_cq(cqe=256) failed: Connection timed out
[1739892640.549454] [ohm:206366:0]        ib_iface.c:1059 UCX  ERROR ibv_create_cq(cqe=256) failed: Connection timed out
[1739892640.549684] [ohm:206477:0]        ib_iface.c:1059 UCX  ERROR ibv_create_cq(cqe=256) failed: Connection timed out
[1739892640.550482] [ohm:206407:0]        ib_iface.c:1059 UCX  ERROR ibv_create_cq(cqe=256) failed: Connection timed out


           ************************************************************
           *        Program running with 64 parallel MPI-processes    *
           *              working on a common directory               *
           ************************************************************

------------------------------------------------------------------------------
                              ORCA PROPERTY CALCULATIONS
------------------------------------------------------------------------------

GBWName                                 ... orca.gbw
Number of atoms                         ...     30
Number of basis functions               ...    882
Max core memory                         ...   1024 MB

Electric properties:
Dipole moment                           ... YES
Quadrupole moment                       ...  NO
Static polarizability (Dipole/Dipole)   ...  NO
Static polarizability (Dipole/Quad.)    ...  NO
Static polarizability (Quad./Quad.)     ...  NO
Static polarizability (Velocity)        ...  NO

Atomic electric properties:
Dipole moment                           ...  NO
Quadrupole moment                       ...  NO
Static polarizability                   ...  NO

Choice of electric origin               ... Center of mass
Position of electric origin             ...     0.078127     0.008810     0.147708

General magnetic properties:
Magnetizability                         ...  NO

EPR properties:
g-Tensor (aka g-matrix)                 ...  NO
Zero-Field splitting spin-orbit         ...  NO
Zero-field splitting spin-spin          ...  NO
Hyperfine couplings                     ...  NO (   0 nuclei)
Quadrupole couplings                    ...  NO (   0 nuclei)
Contact density                         ...  NO (   0 nuclei)

NMR properties:
Chemical shifts                         ...  NO (   0 nuclei)
Spin-rotation constants                 ...  NO (   0 nuclei)
Spin-spin couplings                     ...  NO (   0 nuclei,    0 pairs)

Choice of magnetic origin               ... GIAO
Position of magnetic origin             ...     0.000000     0.000000     0.000000

Properties with geometric perturbations:
SCF Hessian                             ...  NO
IR spectrum                             ...  NO
VCD spectrum                            ...  NO
X-ray spectroscopy properties:
SCF XES/XAS/RIXS spectra                ...  NO


-------------
DIPOLE MOMENT
-------------

Method             : SCF
Type of density    : Electron Density
Multiplicity       :   3
Irrep              :   0
Energy             :  -908.7151814087260391 Eh
Relativity type    : 
Basis              : AO
                                X                 Y                 Z
Electronic contribution:     -3.324951376      -9.432204420      -5.615342977
Nuclear contribution   :      3.025859935      10.294730729       7.775507769
                        -----------------------------------------
Total Dipole Moment    :     -0.299091441       0.862526309       2.160164792
                        -----------------------------------------
Magnitude (a.u.)       :      2.345148024
Magnitude (Debye)      :      5.960892556



--------------------
Rotational spectrum 
--------------------
 
Rotational constants in cm-1:             0.019517             0.013687             0.011506 
Rotational constants in MHz :           585.098383           410.311768           344.936687 

Dipole components along the rotational axes: 
x,y,z [a.u.] :    -1.052455     1.410972    -1.549586 
x,y,z [Debye]:    -2.675127     3.586406    -3.938734 

 

-------------
DIPOLE MOMENT
-------------

Method             : TDA/CIS
Type of density    : Electron Density
Level              : Relaxed density
State              :   1
Multiplicity       :   3
Irrep              :   0
Energy             :     0.0000000000000000 Eh
Relativity type    : 
Basis              : AO
                                X                 Y                 Z
Electronic contribution:     -3.585835783      -9.417954199      -5.218060995
Nuclear contribution   :      3.025859935      10.294730729       7.775507769
                        -----------------------------------------
Total Dipole Moment    :     -0.559975848       0.876776530       2.557446773
                        -----------------------------------------
Magnitude (a.u.)       :      2.760949843
Magnitude (Debye)      :      7.017776788



--------------------
Rotational spectrum 
--------------------
 
Rotational constants in cm-1:             0.019517             0.013687             0.011506 
Rotational constants in MHz :           585.098383           410.311768           344.936687 

Dipole components along the rotational axes: 
x,y,z [a.u.] :    -1.420692     1.489664    -1.839940 
x,y,z [Debye]:    -3.611113     3.786425    -4.676756 

 

Dipole moment calculation done in   0.2 sec 

Maximum memory used throughout the entire PROP-calculation: 81.4 MB
[1739892643.032336] [ohm:206688:0]        ib_iface.c:1059 UCX  ERROR ibv_create_cq(cqe=256) failed: Connection timed out
[1739892643.050240] [ohm:206684:0]        ib_iface.c:1059 UCX  ERROR ibv_create_cq(cqe=256) failed: Connection timed out
[1739892643.064673] [ohm:206693:0]        ib_iface.c:1059 UCX  ERROR ibv_create_cq(cqe=256) failed: Connection timed out
[1739892643.064930] [ohm:206685:0]        ib_iface.c:1059 UCX  ERROR ibv_create_cq(cqe=256) failed: Connection timed out
[1739892643.065928] [ohm:206689:0]        ib_iface.c:1059 UCX  ERROR ibv_create_cq(cqe=256) failed: Connection timed out
[1739892643.067805] [ohm:206705:0]        ib_iface.c:1059 UCX  ERROR ibv_create_cq(cqe=256) failed: Connection timed out
[1739892643.070368] [ohm:206698:0]        ib_iface.c:1059 UCX  ERROR ibv_create_cq(cqe=256) failed: Connection timed out
[1739892643.094632] [ohm:206683:0]        ib_iface.c:1059 UCX  ERROR ibv_create_cq(cqe=256) failed: Connection timed out
[1739892643.095920] [ohm:206815:0]        ib_iface.c:1059 UCX  ERROR ibv_create_cq(cqe=256) failed: Connection timed out
[1739892643.102052] [ohm:206710:0]        ib_iface.c:1059 UCX  ERROR ibv_create_cq(cqe=256) failed: Connection timed out
[1739892643.136854] [ohm:206729:0]        ib_iface.c:1059 UCX  ERROR ibv_create_cq(cqe=256) failed: Connection timed out
[1739892643.161643] [ohm:206700:0]        ib_iface.c:1059 UCX  ERROR ibv_create_cq(cqe=256) failed: Connection timed out
[1739892643.162781] [ohm:206686:0]        ib_iface.c:1059 UCX  ERROR ibv_create_cq(cqe=256) failed: Connection timed out
[1739892643.169124] [ohm:206696:0]        ib_iface.c:1059 UCX  ERROR ibv_create_cq(cqe=256) failed: Connection timed out
[1739892643.170761] [ohm:206828:0]        ib_iface.c:1059 UCX  ERROR ibv_create_cq(cqe=256) failed: Connection timed out
[1739892643.175630] [ohm:206707:0]        ib_iface.c:1059 UCX  ERROR ibv_create_cq(cqe=256) failed: Connection timed out
[1739892643.176431] [ohm:206760:0]        ib_iface.c:1059 UCX  ERROR ibv_create_cq(cqe=256) failed: Connection timed out
[1739892643.182186] [ohm:206716:0]        ib_iface.c:1059 UCX  ERROR ibv_create_cq(cqe=256) failed: Connection timed out
[1739892643.199262] [ohm:206747:0]        ib_iface.c:1059 UCX  ERROR ibv_create_cq(cqe=256) failed: Connection timed out
[1739892643.201821] [ohm:206738:0]        ib_iface.c:1059 UCX  ERROR ibv_create_cq(cqe=256) failed: Connection timed out
[1739892643.215503] [ohm:206701:0]        ib_iface.c:1059 UCX  ERROR ibv_create_cq(cqe=256) failed: Connection timed out
[1739892643.216251] [ohm:206723:0]        ib_iface.c:1059 UCX  ERROR ibv_create_cq(cqe=256) failed: Connection timed out
[1739892643.223768] [ohm:206733:0]        ib_iface.c:1059 UCX  ERROR ibv_create_cq(cqe=256) failed: Connection timed out
[1739892643.226289] [ohm:206687:0]        ib_iface.c:1059 UCX  ERROR ibv_create_cq(cqe=256) failed: Connection timed out
[1739892643.255523] [ohm:206706:0]        ib_iface.c:1059 UCX  ERROR ibv_create_cq(cqe=256) failed: Connection timed out
[1739892643.257433] [ohm:206743:0]        ib_iface.c:1059 UCX  ERROR ibv_create_cq(cqe=256) failed: Connection timed out
[1739892643.262703] [ohm:206695:0]        ib_iface.c:1059 UCX  ERROR ibv_create_cq(cqe=256) failed: Connection timed out
[1739892643.265145] [ohm:206769:0]        ib_iface.c:1059 UCX  ERROR ibv_create_cq(cqe=256) failed: Connection timed out
[1739892643.269820] [ohm:206699:0]        ib_iface.c:1059 UCX  ERROR ibv_create_cq(cqe=256) failed: Connection timed out
[1739892643.274628] [ohm:206690:0]        ib_iface.c:1059 UCX  ERROR ibv_create_cq(cqe=256) failed: Connection timed out
[1739892643.302304] [ohm:206741:0]        ib_iface.c:1059 UCX  ERROR ibv_create_cq(cqe=256) failed: Connection timed out
[1739892643.308001] [ohm:206709:0]        ib_iface.c:1059 UCX  ERROR ibv_create_cq(cqe=256) failed: Connection timed out
[1739892643.311219] [ohm:206750:0]        ib_iface.c:1059 UCX  ERROR ibv_create_cq(cqe=256) failed: Connection timed out
[1739892643.312111] [ohm:206798:0]        ib_iface.c:1059 UCX  ERROR ibv_create_cq(cqe=256) failed: Connection timed out
[1739892643.316711] [ohm:206779:0]        ib_iface.c:1059 UCX  ERROR ibv_create_cq(cqe=256) failed: Connection timed out
[1739892643.320232] [ohm:206697:0]        ib_iface.c:1059 UCX  ERROR ibv_create_cq(cqe=256) failed: Connection timed out
[1739892643.321510] [ohm:206694:0]        ib_iface.c:1059 UCX  ERROR ibv_create_cq(cqe=256) failed: Connection timed out
[1739892643.324767] [ohm:206832:0]        ib_iface.c:1059 UCX  ERROR ibv_create_cq(cqe=256) failed: Connection timed out
[1739892643.324994] [ohm:206766:0]        ib_iface.c:1059 UCX  ERROR ibv_create_cq(cqe=256) failed: Connection timed out
[1739892643.326195] [ohm:206726:0]        ib_iface.c:1059 UCX  ERROR ibv_create_cq(cqe=256) failed: Connection timed out
[1739892643.333243] [ohm:206778:0]        ib_iface.c:1059 UCX  ERROR ibv_create_cq(cqe=256) failed: Connection timed out
[1739892643.340335] [ohm:206692:0]        ib_iface.c:1059 UCX  ERROR ibv_create_cq(cqe=256) failed: Connection timed out
[1739892643.350507] [ohm:206754:0]        ib_iface.c:1059 UCX  ERROR ibv_create_cq(cqe=256) failed: Connection timed out
[1739892643.353765] [ohm:206736:0]        ib_iface.c:1059 UCX  ERROR ibv_create_cq(cqe=256) failed: Connection timed out
[1739892643.355545] [ohm:206790:0]        ib_iface.c:1059 UCX  ERROR ibv_create_cq(cqe=256) failed: Connection timed out
[1739892643.356541] [ohm:206791:0]        ib_iface.c:1059 UCX  ERROR ibv_create_cq(cqe=256) failed: Connection timed out
[1739892643.358236] [ohm:206691:0]        ib_iface.c:1059 UCX  ERROR ibv_create_cq(cqe=256) failed: Connection timed out
[1739892643.359539] [ohm:206704:0]        ib_iface.c:1059 UCX  ERROR ibv_create_cq(cqe=256) failed: Connection timed out
[1739892643.361279] [ohm:206711:0]        ib_iface.c:1059 UCX  ERROR ibv_create_cq(cqe=256) failed: Connection timed out
[1739892643.367102] [ohm:206708:0]        ib_iface.c:1059 UCX  ERROR ibv_create_cq(cqe=256) failed: Connection timed out
[1739892643.373385] [ohm:206757:0]        ib_iface.c:1059 UCX  ERROR ibv_create_cq(cqe=256) failed: Connection timed out
[1739892643.374592] [ohm:206773:0]        ib_iface.c:1059 UCX  ERROR ibv_create_cq(cqe=256) failed: Connection timed out
[1739892643.374844] [ohm:206718:0]        ib_iface.c:1059 UCX  ERROR ibv_create_cq(cqe=256) failed: Connection timed out
[1739892643.374916] [ohm:206803:0]        ib_iface.c:1059 UCX  ERROR ibv_create_cq(cqe=256) failed: Connection timed out
[1739892643.376108] [ohm:206702:0]        ib_iface.c:1059 UCX  ERROR ibv_create_cq(cqe=256) failed: Connection timed out
[1739892643.378349] [ohm:206772:0]        ib_iface.c:1059 UCX  ERROR ibv_create_cq(cqe=256) failed: Connection timed out
[1739892643.380764] [ohm:206796:0]        ib_iface.c:1059 UCX  ERROR ibv_create_cq(cqe=256) failed: Connection timed out
[1739892643.381495] [ohm:206812:0]        ib_iface.c:1059 UCX  ERROR ibv_create_cq(cqe=256) failed: Connection timed out
[1739892643.381987] [ohm:206783:0]        ib_iface.c:1059 UCX  ERROR ibv_create_cq(cqe=256) failed: Connection timed out
[1739892643.382017] [ohm:206810:0]        ib_iface.c:1059 UCX  ERROR ibv_create_cq(cqe=256) failed: Connection timed out
[1739892643.382652] [ohm:206703:0]        ib_iface.c:1059 UCX  ERROR ibv_create_cq(cqe=256) failed: Connection timed out
[1739892643.384498] [ohm:206804:0]        ib_iface.c:1059 UCX  ERROR ibv_create_cq(cqe=256) failed: Connection timed out
[1739892643.385393] [ohm:206821:0]        ib_iface.c:1059 UCX  ERROR ibv_create_cq(cqe=256) failed: Connection timed out
[1739892643.386704] [ohm:206787:0]        ib_iface.c:1059 UCX  ERROR ibv_create_cq(cqe=256) failed: Connection timed out

--------------------------------
SUGGESTED CITATIONS FOR THIS RUN
--------------------------------

Below you find a list of papers that are relevant to this ORCA run
We neither can nor want to force you to cite these papers, but we appreciate if you do
You receive ORCA, which is the product of decades of hard work by many enthusiastic individuals, for free
The only thing we kindly ask in return is that you cite our papers,
We deeply appreciate it, if you show your appreciation for ORCA by not just citing the generic ORCA reference.

Please note that relegating all ORCA citations to the supporting information does *not* help us.
SI sections are not indexed - citations you put there will not count into any citation statistics
But we need these citations in order to attract the funding resources that allow us to do what we are doing

Therefore, if you are a happy ORCA user, please consider citing a few of the papers listed below in the main body of your paper

In addition to the list printed below, the program has created the file orca.bibtex that contains the list in bibtex format
You can import this file easily into all common literature databanks and citation aid programs


List of essential papers. We consider these as the minimum necessary citations

  1. Neese,F.
     Software update: the ORCA program system, version 5.0
     WIRES Comput. Molec. Sci., 2022 12(1)e1606
     doi.org/10.1002/wcms.1606

List of papers to cite with high priority. The work reported in these papers was absolutely
necessary for this run to complete.
Our perspective: the developers of density functionals and basis sets usually get cited in chemistry papers
Good! But without the algorithms to do something with them, the functionals or basis sets would not do anything.
Hence, in our opinion, the algorithm design and method developments papers are equally worthy of getting cited

  1. Neese,F.; Olbrich,G.
     Efficient use of the resolution of the identity approximation in time-dependent density functional calculations with hybrid density functionals
     Chem. Phys. Lett., 2002 362 170-178
     doi.org/10.1016/s0009-2614(02)01053-9
  2. Neese,F.
     An improvement of the resolution of the identity approximation for the formation of the Coulomb matrix
     J. Comp. Chem., 2003 24(14)1740-1747
     doi.org/10.1002/jcc.10318
  3. Neese,F.; Wennmohs,F.; Hansen,A.; Becker,U.
     Efficient, approximate and parallel Hartree-Fock and hybrid DFT calculations. A 'chain-of-spheres' algorithm for the Hartree-Fock exchange
     Chem. Phys., 2009 356(1-3)98-109
     doi.org/10.1016/j.chemphys.2008.10.036
  4. Petrenko,T.; Kossmann,S.; Neese,F.
     Efficient time-dependent density functional theory approximations for hybrid density functionals: Analytical gradients and parallelization
     J. Chem. Phys., 2011 134 054116
     doi.org/10.1063/1.3533441
  5. Helmich-Paris,B.; de Souza,B.; Neese,F.; Izsák,R.
     An improved chain of spheres for exchange algorithm
     J. Chem. Phys., 2021 155 104109
     doi.org/doi: 10.1063/5.0058766.
  6. Neese,F.
     The SHARK Integral Generation and Digestion System
     J. Comp. Chem., 2022  1-16
     doi.org/10.1002/jcc.26942
  7. Lehtola,S.; Steigemann,C.; Oliveira,M.; Marques,M.
     Recent developments in Libxc - A comprehensive library of functionals for density functional theory
     Software X, 2018 7 
     doi.org/10.1016/j.softx.2017.11.002
  8. Grimme,S.; Antony,J.; Ehrlich,S.; Krieg,H.
     A consistent and accurate ab initio parametrization of density functional dispersion correction (DFT-D) for the 94 elements H-Pu
     J. Chem. Phys., 2010 132 154104-XXXX
     doi.org/10.1063/1.3382344
  9. Grimme,S.; Ehrlich,S.; Goerigk,L.
     Effect of the damping function in dispersion corrected density functional theory
     J. Comput. Chem., 2011 32(7)1456-1465
     doi.org/10.1002/jcc.21759

List of suggested additional citations. These are papers that are important in the 'surrounding' of 
of this run, or papers that preceded the highly important papers. If you like your results we are grateful for a citation.

  1. Izsak,R.; Neese,F.
     An overlap fitted chain of spheres exchange method
     J. Chem. Phys., 2011 135 144105
     doi.org/10.1063/1.3646921
  2. Izsak,R.; Hansen,A.; Neese,F.
     The resolution of identity and chain of spheres approximations for the LPNO-CCSD singles Fock term
     Molec. Phys., 2012 110 2413-2417
     doi.org/10.1080/00268976.2012.687466
  3. Neese,F.
     The ORCA program system
     WIRES Comput. Molec. Sci., 2012 2(1)73-78
     doi.org/10.1002/wcms.81
  4. Izsak,R.; Neese,F.; Klopper,W.
     Robust fitting techniques in the chain of spheres approximation to the Fock exchange: The role of the complementary space
     J. Chem. Phys., 2013 139 
     doi.org/10.1063/1.4819264
  5. Neese,F.
     Software update: the ORCA program system, version 4.0
     WIRES Comput. Molec. Sci., 2018 8(1)1-6
     doi.org/10.1002/wcms.1327
  6. Neese,F.; Wennmohs,F.; Becker,U.; Riplinger,C.
     The ORCA quantum chemistry program package
     J. Chem. Phys., 2020 152 Art. No. L224108
     doi.org/10.1063/5.0004608

List of optional additional citations

  1. Neese,F.
     Approximate second-order SCF convergence for spin unrestricted wavefunctions
     Chem. Phys. Lett., 2000 325(1-3)93-98
     doi.org/10.1016/s0009-2614(00)00662-x

Timings for individual modules:

Sum of individual times          ...      285.810 sec (=   4.764 min)
Startup calculation              ...        6.387 sec (=   0.106 min)   2.2 %
SCF iterations                   ...      135.764 sec (=   2.263 min)  47.5 %
Property integrals               ...        4.305 sec (=   0.072 min)   1.5 %
Property calculations            ...        2.834 sec (=   0.047 min)   1.0 %
CIS module                       ...      136.519 sec (=   2.275 min)  47.8 %
                             ****ORCA TERMINATED NORMALLY****
TOTAL RUN TIME: 0 days 0 hours 4 minutes 47 seconds 900 msec
