30
Properties=species:S:1:pos:R:3:momenta:R:3:forces:R:3 Coordinates=T from=T ORCA-job=T orca=T E=T -908.730803908782=T energy=-24728.85941566182 free_energy=-24728.85941566182 stress="3.4468895132102047e-06 -7.31469846269568e-07 3.1122739776752154e-07 -7.31469846269568e-07 7.15874996639038e-07 -4.132901371972186e-07 3.1122739776752154e-07 -4.132901371972186e-07 1.5265818211774692e-06" pbc="F F F"
O        3.64421350       0.36063715      -0.43232695       0.02380523       0.28603043       0.20699890      -0.27303571      -0.00398556       0.23078924
O       -1.18733372       1.21701787      -2.62184271      -0.29320659      -0.07160897      -0.28876637      -0.04727837       0.07261755      -0.00332755
O        0.47752402      -2.75187323      -0.79754804      -0.03394372      -0.33060207       0.04469533       0.17844779       0.39599463       0.13881896
O       -3.06593210      -1.71585459       0.20883507       0.06800508      -0.11512177      -0.07563389       0.14510594       0.17537528      -0.01096706
N        0.33567562      -1.30599685       0.95160293       0.05849312      -0.16233251      -0.15618539      -0.12396469       0.09018791      -0.01481194
N       -2.06290520       0.11987041       1.10758395       0.14388665      -0.25656715       0.24279892       0.42982356       0.12472889       0.07900545
N        1.75233660      -0.84597754      -0.81992958       0.33968041       0.27993146      -0.04149986      -0.22170173       0.12842685       0.45901420
N       -1.74606055      -0.41874181      -1.12920805      -0.02086844      -0.05616699       0.01431566      -0.02314933       0.23605075       0.14041742
C        1.94839377       0.39628567       1.22987998      -1.10774085       0.16283100       0.17616475      -1.74739981       0.38151117      -0.49188938
C       -1.00522615       1.69291753      -0.30558251       0.39092554      -0.09275389       0.23086343       0.41648886      -0.72657291       0.52774559
C        0.44184053       0.05249609       1.44848149       0.44988583      -0.02650874       0.14569117       0.73604763      -0.19096419      -0.27792841
C       -0.88206083       0.96929580       1.02800656       0.28526711       0.08038200      -0.50625124       0.43428297       0.39169073      -0.21299930
C        2.76635924       1.01354388       2.28755157       0.00711544       0.05761527      -0.21847813      -0.30982249      -0.10452707       0.25265086
C       -1.06071610       3.15546701      -0.40886582       0.07088351      -0.04485698      -0.24582503       0.51813634       0.30744209       0.25914145
C        2.54273987       0.00060659      -0.04138921       0.04626937      -0.34678733      -0.11304418       0.12464228       0.05662566       0.02237387
C       -1.30278925       0.86937918      -1.46225075      -0.08357217       0.22642636       0.12145304       0.07977914      -0.17337308       0.21211018
C        0.81653783      -1.71357076      -0.25939229      -0.26845659       0.07722034       0.28918888      -0.15892067      -0.39968084      -0.24858457
C       -2.34373726      -0.74729801       0.08107346       0.01076658       0.09067622       0.04881280      -0.29377551      -0.36104107       0.00358857
H        0.29364437      -0.00641655       2.52252135      -0.02787203      -0.00527622       0.04587812       0.05829830       0.01870599       0.11482073
H       -0.94236603       1.71559748       1.82620676       0.02667084       0.01863871       0.04285879      -0.01721128      -0.08797674      -0.17468605
H        3.79878668       1.09144705       1.97653327      -0.03806775       0.02258496      -0.06273109       0.10462309      -0.03311723       0.01364024
H        2.40362238       2.00520759       2.56335836      -0.02488309      -0.00925195       0.05475032      -0.03723402       0.09432407      -0.04779126
H        2.67405524       0.41137817       3.20984008      -0.04178476       0.03763023      -0.03164723       0.16638835       0.13060806      -0.23303935
H       -2.00073706       3.52826811       0.02217579       0.01503727      -0.01960139       0.03538839      -0.02717532      -0.07738129      -0.06061340
H       -0.26585166       3.63809609       0.18843660       0.02335740       0.02563930       0.02193003      -0.17742721      -0.13193862      -0.23931138
H       -1.00137022       3.48086439      -1.44628868       0.02566759       0.05956310      -0.03120052      -0.00096480      -0.04616574       0.09000052
H       -0.33873259      -1.92720014       1.35723808      -0.05863103       0.04993474      -0.05083256      -0.09796294      -0.05748796      -0.05706882
H       -2.48005050      -0.09552819       1.99978608      -0.01736726       0.03838176       0.09791962       0.06235133      -0.06881425      -0.13292748
H        2.15459614      -1.15546722      -1.67964330      -0.03937882       0.03033042      -0.05021191       0.13960643      -0.10502743      -0.25730422
H       -1.92397166      -1.05686854      -1.88421102       0.07005612      -0.00638036       0.05259925      -0.03699813      -0.03623563      -0.08086708
