7
Properties=species:S:1:pos:R:3:momenta:R:3:forces:R:3 Coordinates=T from=T ORCA-job=T orca=T E=T -153.851947508303=T energy=-4182.6431917942955 free_energy=-4182.6431917942955 stress="-9.540204151111716e-06 -2.1199316445573218e-05 -2.182734747419118e-06 -2.1199316445573218e-05 -3.084027594185076e-05 4.119951169867305e-07 -2.182734747419118e-06 4.119951169867305e-07 -8.64069363147234e-07" pbc="F F F"
O        0.20481300       0.94886467       0.00196572       1.37946939       2.25311854      -0.07781084       2.56489353       3.58400678      -0.08496478
C        0.65463209      -0.37161049      -0.00651952      -0.31384614      -0.57025929      -0.22894332      -0.56021357      -0.04736283       0.21331362
C       -0.75501081      -0.65931390       0.00178521      -0.97868395      -2.17887858       0.15372970      -1.55376681      -3.91754132       0.61848516
H        1.23883217      -0.58932807       0.89661579       0.06549307       0.20484483       0.04343624      -0.00697198       0.11384036      -0.16492424
H        1.24358222      -0.60669602      -0.89948691       0.02084751       0.14835853       0.05408501      -0.04305243       0.20029878       0.08289097
H       -1.28433835      -0.66975739      -0.90939728      -0.09723877       0.06973624      -0.00352922      -0.40375301       0.03355522      -0.54576772
H       -1.28755126      -0.65670409       0.93938878      -0.07604110       0.07307974       0.05903243       0.00286427       0.03320302      -0.11903300
