
                                 *****************
                                 * O   R   C   A *
                                 *****************

                                            #,                                       
                                            ###                                      
                                            ####                                     
                                            #####                                    
                                            ######                                   
                                           ########,                                 
                                     ,,################,,,,,                         
                               ,,#################################,,                 
                          ,,##########################################,,             
                       ,#########################################, ''#####,          
                    ,#############################################,,   '####,        
                  ,##################################################,,,,####,       
                ,###########''''           ''''###############################       
              ,#####''   ,,,,##########,,,,          '''####'''          '####       
            ,##' ,,,,###########################,,,                        '##       
           ' ,,###''''                  '''############,,,                           
         ,,##''                                '''############,,,,        ,,,,,,###''
      ,#''                                            '''#######################'''  
     '                                                          ''''####''''         
             ,#######,   #######,   ,#######,      ##                                
            ,#'     '#,  ##    ##  ,#'     '#,    #''#        ,####,   ,####,        
            ##       ##  ##   ,#'  ##            #'  '#       #'       #'  '#        
            ##       ##  #######   ##           ,######,      #####,   #    #        
            '#,     ,#'  ##    ##  '#,     ,#' ,#      #,     #,   #   #,  ,#        
             '#######'   ##     ##  '#######'  #'      '#     '####' # '####'        



                #########################################################
                #                        -***-                          #
                #          Department of theory and spectroscopy        #
                #                                                       #
                #                      Frank Neese                      #
                #                                                       #
                #     Directorship, Architecture, Infrastructure        #
                #                    SHARK, DRIVERS                     #
                #        Core code/Algorithms in most modules           #
                #                                                       #
                #        Max Planck Institute fuer Kohlenforschung      #
                #                Kaiser Wilhelm Platz 1                 #
                #                 D-45470 Muelheim/Ruhr                 #
                #                      Germany                          #
                #                                                       #
                #                  All rights reserved                  #
                #                        -***-                          #
                #########################################################


                         Program Version 6.0.0  -   RELEASE  -


 With contributions from (in alphabetic order):
   Daniel Aravena         : Magnetic Suceptibility
   Michael Atanasov       : Ab Initio Ligand Field Theory (pilot matlab implementation)
   Alexander A. Auer      : GIAO ZORA, VPT2 properties, NMR spectrum
   Ute Becker             : All parallelization in ORCA, NUMFREQ, NUMCALC
   Giovanni Bistoni       : ED, misc. LED, open-shell LED, HFLD
   Martin Brehm           : Molecular dynamics
   Dmytro Bykov           : pre 5.0 version of the SCF Hessian
   Marcos Casanova-Páez   : Triplet and SCS-CIS(D). UHF-(DLPNO)-IP/EA/STEOM-CCSD. UHF-CVS-IP/STEOM-CCSD
   Vijay G. Chilkuri      : MRCI spin determinant printing, contributions to CSF-ICE
   Pauline Colinet        : FMM embedding
   Dipayan Datta          : RHF DLPNO-CCSD density
   Achintya Kumar Dutta   : EOM-CC, STEOM-CC
   Nicolas Foglia         : Exact transition moments, OPA infrastructure, MCD improvements
   Dmitry Ganyushin       : Spin-Orbit,Spin-Spin,Magnetic field MRCI
   Miquel Garcia          : C-PCM and meta-GGA Hessian, CCSD/C-PCM, Gaussian charge scheme
   Tiago L. C. Gouveia    : GS-ROHF, GS-ROCIS
   Yang Guo               : DLPNO-NEVPT2, F12-NEVPT2, CIM, IAO-localization
   Andreas Hansen         : Spin unrestricted coupled pair/coupled cluster methods
   Ingolf Harden          : AUTO-CI MPn and infrastructure 
   Benjamin Helmich-Paris : MC-RPA, TRAH-(SCF,CASSCF), AVAS, COSX integrals, SCF dyn. polar.
   Lee Huntington         : MR-EOM, pCC
   Robert Izsak           : Overlap fitted RIJCOSX, COSX-SCS-MP3, EOM
   Riya Kayal             : Wick's Theorem for AUTO-CI, AUTO-CI UHF-CCSDT
   Emily Kempfer          : AUTO-CI, RHF CISDT and CCSDT
   Christian Kollmar      : KDIIS, OOCD, Brueckner-CCSD(T), CCSD density, CASPT2, CASPT2-K, improved NEVPT2
   Axel Koslowski         : Symmetry handling
   Simone Kossmann        : Meta GGA functionals, TD-DFT gradient, OOMP2, (MP2 Hessian; deprecated post 5.0)
   Lucas Lang             : DCDCAS
   Marvin Lechner         : AUTO-CI (C++ implementation), FIC-MRCC
   Spencer Leger          : CASSCF response
   Dagmar Lenk            : GEPOL surface, SMD, ORCA-2-JSON
   Dimitrios Liakos       : Extrapolation schemes; Compound Job, initial MDCI parallelization
   Dimitrios Manganas     : Further ROCIS development; embedding schemes. LFT, Crystal Embedding
   Dimitrios Pantazis     : SARC Basis sets
   Anastasios Papadopoulos: AUTO-CI, single reference methods and gradients
   Taras Petrenko         : pre 6.0 DFT Hessian and TD-DFT gradient, (ASA, deprecated), ECA, 1-Electron XAS/XES, NRVS
   Peter Pinski           : DLPNO-MP2, DLPNO-MP2 Gradient
   Christoph Reimann      : Effective Core Potentials
   Marius Retegan         : Local ZFS, SOC
   Christoph Riplinger    : Optimizer, TS searches, QM/MM, DLPNO-CCSD(T), (RO)-DLPNO pert. Triples
   Michael Roemelt        : Original ROCIS implementation
   Masaaki Saitow         : Open-shell DLPNO-CCSD energy and density
   Barbara Sandhoefer     : DKH picture change effects
   Kantharuban Sivalingam : CASSCF convergence/infrastructure, NEVPT2 and variants, FIC-MRCI
   Bernardo de Souza      : ESD, SOC TD-DFT
   Georgi Stoychev        : AutoAux, RI-MP2 NMR, DLPNO-MP2 response, X2C
   Van Anh Tran           : RI-MP2 g-tensors
   Willem Van den Heuvel  : Paramagnetic NMR
   Zikuan Wang            : NOTCH, Electric field optimization 
   Frank Wennmohs         : Technical directorship and infrastructure
   Hang Xu                : AUTO-CI-Response properties 


 We gratefully acknowledge several colleagues who have allowed us to
 interface, adapt or use parts of their codes:
   Stefan Grimme, W. Hujo, H. Kruse, P. Pracht,  : VdW corrections, initial TS optimization,
                  C. Bannwarth, S. Ehlert,         DFT functionals, gCP, sTDA/sTD-DF
                  L. Wittmann, M. Mueller
   Ed Valeev, F. Pavosevic, A. Kumar             : LibInt (2-el integral package), F12 methods
   Garnet Chan, S. Sharma, J. Yang, R. Olivares  : DMRG
   Ulf Ekstrom                                   : XCFun DFT Library
   Mihaly Kallay                                 : mrcc  (arbitrary order and MRCC methods)
   Frank Weinhold                                : gennbo (NPA and NBO analysis)
   Simon Mueller                                 : openCOSMO-RS
   Christopher J. Cramer and Donald G. Truhlar   : smd solvation model
   Lars Goerigk                                  : TD-DFT with DH, B97 family of functionals
   V. Asgeirsson, H. Jonsson                     : NEB implementation
   FAccTs GmbH                                   : IRC, NEB, NEB-TS, DLPNO-Multilevel, CI-OPT
                                                   MM, QMMM, 2- and 3-layer-ONIOM, Crystal-QMMM,
                                                   LR-CPCM, SF, NACMEs, symmetry and pop. for TD-DFT,
                                                   nearIR, NL-DFT gradient (VV10), updates on ESD,
                                                   ML-optimized integration grids, MBIS, APM,
                                                   GOAT, DOCKER, SOLVATOR, interface openCOSMO-RS
   S Lehtola, MJT Oliveira, MAL Marques          : LibXC Library
   Liviu Ungur et al                             : ANISO software


 Your calculation uses the libint2 library for the computation of 2-el integrals
 For citations please refer to: http://libint.valeyev.net

 Your ORCA version has been built with support for libXC version: 6.2.2
 For citations please refer to: https://libxc.gitlab.io

 This ORCA versions uses:
   CBLAS   interface :  Fast vector & matrix operations
   LAPACKE interface :  Fast linear algebra routines
   SCALAPACK package :  Parallel linear algebra routines
   Shared memory     :  Shared parallel matrices
   BLAS/LAPACK       :  OpenBLAS 0.3.27  USE64BITINT DYNAMIC_ARCH NO_AFFINITY Zen SINGLE_THREADED
        Core in use  :  Zen
   Copyright (c) 2011-2014, The OpenBLAS Project


Your calculation utilizes the atom-pairwise dispersion correction
with the Becke-Johnson damping scheme (D3BJ)


Warning: RI is on but no J-basis has been assigned. Assigning Def2/J (nothing to worry about!)
================================================================================

----- Orbital basis set information -----
Your calculation utilizes the basis: def2-TZVPPD
   F. Weigend and R. Ahlrichs, Phys. Chem. Chem. Phys. 7, 3297 (2005).
   D. Rappoport and F. Furche, J. Chem. Phys. 133, 134105 (2010)
   D. Rappoport, J. Chem. Phys. 155, 124102 (2021).

----- AuxJ basis set information -----
Your calculation utilizes the auxiliary basis: def2/J
   F. Weigend, Phys. Chem. Chem. Phys. 8, 1057 (2006).

================================================================================
                                        WARNINGS
                       Please study these warnings very carefully!
================================================================================

Using LibXC functional ID 531 : wB97M-V exchange-correlation functional
[ 1]  N. Mardirossian and M. Head-Gordon.,  J. Chem. Phys. 144, 214110 (2016)
Using LibXC functional ID 531 : wB97M-V exchange-correlation functional
[ 1]  N. Mardirossian and M. Head-Gordon.,  J. Chem. Phys. 144, 214110 (2016)

WARNING: B97M-V or wB97M-V functional requested.
  ===> : libXC variant has now been activated.
         Any manually given DFX/HFX/RangeSep scaling parameters are IGNORED!

Your calculation utilizes LibXC
 by S Lehtola, C Steigemann, MJT Oliveira & MAL Marques
Please cite in your paper:
 S Lehtola, C Steigemann, MJT Oliveira & MAL Marques, SoftwareX, 7, (2018), 1.
   


WARNING: your system is open-shell and RHF/RKS was chosen
  ===> : WILL SWITCH to UHF/UKS

INFO   : Checking CIS options ...

WARNING: CIS/ROCIS methods need fully converged wavefunctions
  ===> : Setting SCFConvForced true
         You can overwrite this default with %scf ConvForced false 


================================================================================
                                       INPUT FILE
================================================================================
NAME = orca.inp
|  1> ! Engrad def2-TZVPPD wB97M-D3BJ 
|  2> %pal nprocs 8 end%pal nprocs 64 end 
|  3> %tddft 
|  4> Iroot 1 Nroots 3 
|  5> sf true 
|  6> end 
|  7> *xyz 0 3 
|  8> O   2.6080920734753947 1.131708307887154 -0.47971802652335577
|  9> O   -0.6545725701108659 0.9036039047692026 -2.3501938718829756
| 10> O   0.5222536094141437 -2.765325757798716 -1.4087737535143483
| 11> O   -2.5935845014880483 -1.548179035393989 0.8791237523870438
| 12> N   0.5704105777385152 -2.040566837592409 0.7080104687498207
| 13> N   -1.9630431803308168 0.5118972348735463 1.3845817029153218
| 14> N   1.6248013789158926 -0.8482337874025667 -0.9068333994440975
| 15> N   -1.6254595320544947 -0.30503367791628155 -0.7242704455467538
| 16> C   1.5018136601255931 0.07303897079180713 1.2563758074437354
| 17> C   -0.8326542732682285 1.8557530548970282 -0.20497555009201096
| 18> C   0.7950518596466241 -1.0248410212177061 1.591856515550718
| 19> C   -1.241119107364026 1.6020874899843534 1.0520802038228374
| 20> C   1.879285521702598 1.0757084432729744 2.2283679327108286
| 21> C   -0.34677136664834884 3.1512018279758 -0.6027484175025405
| 22> C   1.973728498740193 0.19061422141103004 -0.08851745710988171
| 23> C   -1.008833820569173 0.8289477172664538 -1.203280013692829
| 24> C   0.8802559003984709 -1.9464402522630542 -0.6071268948562915
| 25> C   -2.0933233047527824 -0.5163252174510371 0.5314420358516585
| 26> H   0.5782652113999072 -1.2685902345884192 2.6161639473252216
| 27> H   -1.222295872881511 2.3671098679010116 1.8044196014120837
| 28> H   1.609822000054133 2.066420515812778 1.8719374329444038
| 29> H   1.4129472775792329 0.9538751045603607 3.2038195178560853
| 30> H   2.94310429949619 1.1451997947592891 2.43849867547954
| 31> H   -1.0274911235348934 3.5464256778472327 -1.3545273228072012
| 32> H   -0.22362539076008506 3.894696274147318 0.174288267858869
| 33> H   0.6219940367954618 3.076368468599799 -1.0917835351255682
| 34> H   -0.0637537746917447 -2.782204088753163 0.9364420419491349
| 35> H   -2.2913562666281897 0.3825681116596314 2.3192586495851715
| 36> H   1.8389452316346788 -0.7363762327647275 -1.8847689461630541
| 37> H   -1.720287052033849 -1.0601088452747633 -1.3845489195815677
| 38> *
| 39> 
| 40>                          ****END OF INPUT****
================================================================================

                     *******************************
                     * Energy+Gradient Calculation *
                     *******************************

---------------------------------
CARTESIAN COORDINATES (ANGSTROEM)
---------------------------------
  O      2.608092    1.131708   -0.479718
  O     -0.654573    0.903604   -2.350194
  O      0.522254   -2.765326   -1.408774
  O     -2.593585   -1.548179    0.879124
  N      0.570411   -2.040567    0.708010
  N     -1.963043    0.511897    1.384582
  N      1.624801   -0.848234   -0.906833
  N     -1.625460   -0.305034   -0.724270
  C      1.501814    0.073039    1.256376
  C     -0.832654    1.855753   -0.204976
  C      0.795052   -1.024841    1.591857
  C     -1.241119    1.602087    1.052080
  C      1.879286    1.075708    2.228368
  C     -0.346771    3.151202   -0.602748
  C      1.973728    0.190614   -0.088517
  C     -1.008834    0.828948   -1.203280
  C      0.880256   -1.946440   -0.607127
  C     -2.093323   -0.516325    0.531442
  H      0.578265   -1.268590    2.616164
  H     -1.222296    2.367110    1.804420
  H      1.609822    2.066421    1.871937
  H      1.412947    0.953875    3.203820
  H      2.943104    1.145200    2.438499
  H     -1.027491    3.546426   -1.354527
  H     -0.223625    3.894696    0.174288
  H      0.621994    3.076368   -1.091784
  H     -0.063754   -2.782204    0.936442
  H     -2.291356    0.382568    2.319259
  H      1.838945   -0.736376   -1.884769
  H     -1.720287   -1.060109   -1.384549

----------------------------
CARTESIAN COORDINATES (A.U.)
----------------------------
  NO LB      ZA    FRAG     MASS         X           Y           Z
   0 O     8.0000    0    15.999    4.928580    2.138619   -0.906536
   1 O     8.0000    0    15.999   -1.236963    1.707564   -4.441223
   2 O     8.0000    0    15.999    0.986916   -5.225708   -2.662197
   3 O     8.0000    0    15.999   -4.901164   -2.925634    1.661303
   4 N     7.0000    0    14.007    1.077920   -3.856112    1.337946
   5 N     7.0000    0    14.007   -3.709614    0.967346    2.616480
   6 N     7.0000    0    14.007    3.070430   -1.602930   -1.713667
   7 N     7.0000    0    14.007   -3.071673   -0.576430   -1.368673
   8 C     6.0000    0    12.011    2.838017    0.138024    2.374206
   9 C     6.0000    0    12.011   -1.573489    3.506865   -0.387348
  10 C     6.0000    0    12.011    1.502430   -1.936669    3.008173
  11 C     6.0000    0    12.011   -2.345375    3.027507    1.988143
  12 C     6.0000    0    12.011    3.551335    2.032794    4.211005
  13 C     6.0000    0    12.011   -0.655303    5.954908   -1.139029
  14 C     6.0000    0    12.011    3.729806    0.360209   -0.167274
  15 C     6.0000    0    12.011   -1.906420    1.566484   -2.273870
  16 C     6.0000    0    12.011    1.663443   -3.678239   -1.147304
  17 C     6.0000    0    12.011   -3.955808   -0.975713    1.004280
  18 H     1.0000    0     1.008    1.092763   -2.397288    4.943833
  19 H     1.0000    0     1.008   -2.309804    4.473189    3.409859
  20 H     1.0000    0     1.008    3.042123    3.904969    3.537449
  21 H     1.0000    0     1.008    2.670083    1.802563    6.054341
  22 H     1.0000    0     1.008    5.561661    2.164114    4.608095
  23 H     1.0000    0     1.008   -1.941677    6.701773   -2.559686
  24 H     1.0000    0     1.008   -0.422591    7.359909    0.329357
  25 H     1.0000    0     1.008    1.175398    5.813494   -2.063172
  26 H     1.0000    0     1.008   -0.120477   -5.257604    1.769619
  27 H     1.0000    0     1.008   -4.330036    0.722949    4.382764
  28 H     1.0000    0     1.008    3.475103   -1.391549   -3.561697
  29 H     1.0000    0     1.008   -3.250871   -2.003315   -2.616418

--------------------------------
INTERNAL COORDINATES (ANGSTROEM)
--------------------------------
 O      0   0   0     0.000000000000     0.00000000     0.00000000
 O      1   0   0     3.767717091729     0.00000000     0.00000000
 O      2   1   0     3.966388352766    71.41216477     0.00000000
 O      3   2   1     4.052698887744    68.16555425   106.42410983
 N      3   2   1     2.237938790415    86.06186783    55.93179378
 N      4   3   2     2.212913088388   100.92164866   315.66216346
 N      1   2   3     2.251545876169    58.29193794     0.00000000
 N      2   1   3     2.246564774820    92.72300531    54.01116388
 C      1   2   3     2.314876777172    86.03174744   300.59833713
 C      2   1   3     2.353776273403    65.70504112   111.13270935
 C      9   1   2     1.348109797080   144.05899409    56.43723041
 C     10   2   1     1.345874774251   142.93644709   255.35909754
 C      9   1   2     1.446582098918    93.56778856   232.52305939
 C     10   2   1     1.439615565582    94.97104149    78.95717327
 C      1   2   3     1.200463706265    69.92324452   328.02040356
 C      2   1   3     1.202699454568    77.60839895    82.05491038
 C      3   2   1     1.200573528578    67.42021536    30.58814956
 C      4   3   2     1.198276321462    76.92907789   335.93943636
 H     11   9   1     1.074995741696   121.83668594   167.92020325
 H     12  10   2     1.073139376798   121.00503715   184.56365016
 H     13   9   1     1.086813554083   110.29044587    52.80300938
 H     13   9   1     1.088035162721   114.38979785   173.26169880
 H     13   9   1     1.086597611342   115.45089871   294.85790857
 H     14  10   2     1.088463504847   107.84856121    60.85469705
 H     14  10   2     1.082467058743   117.26603872   183.62398583
 H     14  10   2     1.087778371201   111.27814906   305.29644181
 H      5   3   2     1.002183227677    87.84064365   123.36549008
 H      6   4   3     0.999067815206    89.97400832   220.91336939
 H      7   1   2     1.007336902790    89.63759369    69.74832924
 H      8   2   1     1.007520932875    88.25606597   242.97420036

---------------------------
INTERNAL COORDINATES (A.U.)
---------------------------
 O      0   0   0     0.000000000000     0.00000000     0.00000000
 O      1   0   0     7.119953453461     0.00000000     0.00000000
 O      2   1   0     7.495387727502    71.41216477     0.00000000
 O      3   2   1     7.658491001083    68.16555425   106.42410983
 N      3   2   1     4.229091418363    86.06186783    55.93179378
 N      4   3   2     4.181799695223   100.92164866   315.66216346
 N      1   2   3     4.254805083919    58.29193794     0.00000000
 N      2   1   3     4.245392166524    92.72300531    54.01116388
 C      1   2   3     4.374483142629    86.03174744   300.59833713
 C      2   1   3     4.447992537254    65.70504112   111.13270935
 C      9   1   2     2.547558314937   144.05899409    56.43723041
 C     10   2   1     2.543334733888   142.93644709   255.35909754
 C      9   1   2     2.733643997188    93.56778856   232.52305939
 C     10   2   1     2.720479157079    94.97104149    78.95717327
 C      1   2   3     2.268547638554    69.92324452   328.02040356
 C      2   1   3     2.272772590549    77.60839895    82.05491038
 C      3   2   1     2.268755172648    67.42021536    30.58814956
 C      4   3   2     2.264414080325    76.92907789   335.93943636
 H     11   9   1     2.031447546938   121.83668594   167.92020325
 H     12  10   2     2.027939525675   121.00503715   184.56365016
 H     13   9   1     2.053779975851   110.29044587    52.80300938
 H     13   9   1     2.056088481618   114.38979785   173.26169880
 H     13   9   1     2.053371903209   115.45089871   294.85790857
 H     14  10   2     2.056897930929   107.84856121    60.85469705
 H     14  10   2     2.045566290015   117.26603872   183.62398583
 H     14  10   2     2.055603215974   111.27814906   305.29644181
 H      5   3   2     1.893851836319    87.84064365   123.36549008
 H      6   4   3     1.887964559955    89.97400832   220.91336939
 H      7   1   2     1.903590870866    89.63759369    69.74832924
 H      8   2   1     1.903938637326    88.25606597   242.97420036

---------------------
BASIS SET INFORMATION
---------------------
There are 4 groups of distinct atoms

 Group   1 Type O   : 12s7p3d1f contracted to 6s4p3d1f pattern {621111/4111/111/1}
 Group   2 Type N   : 12s6p3d1f contracted to 6s3p3d1f pattern {621111/411/111/1}
 Group   3 Type C   : 12s6p3d1f contracted to 6s3p3d1f pattern {621111/411/111/1}
 Group   4 Type H   : 5s3p1d contracted to 3s3p1d pattern {311/111/1}

Atom   0O    basis set group =>   1
Atom   1O    basis set group =>   1
Atom   2O    basis set group =>   1
Atom   3O    basis set group =>   1
Atom   4N    basis set group =>   2
Atom   5N    basis set group =>   2
Atom   6N    basis set group =>   2
Atom   7N    basis set group =>   2
Atom   8C    basis set group =>   3
Atom   9C    basis set group =>   3
Atom  10C    basis set group =>   3
Atom  11C    basis set group =>   3
Atom  12C    basis set group =>   3
Atom  13C    basis set group =>   3
Atom  14C    basis set group =>   3
Atom  15C    basis set group =>   3
Atom  16C    basis set group =>   3
Atom  17C    basis set group =>   3
Atom  18H    basis set group =>   4
Atom  19H    basis set group =>   4
Atom  20H    basis set group =>   4
Atom  21H    basis set group =>   4
Atom  22H    basis set group =>   4
Atom  23H    basis set group =>   4
Atom  24H    basis set group =>   4
Atom  25H    basis set group =>   4
Atom  26H    basis set group =>   4
Atom  27H    basis set group =>   4
Atom  28H    basis set group =>   4
Atom  29H    basis set group =>   4
---------------------------------
AUXILIARY/J BASIS SET INFORMATION
---------------------------------
There are 4 groups of distinct atoms

 Group   1 Type O   : 12s5p4d2f1g contracted to 6s4p3d1f1g pattern {711111/2111/211/2/1}
 Group   2 Type N   : 12s5p4d2f1g contracted to 6s4p3d1f1g pattern {711111/2111/211/2/1}
 Group   3 Type C   : 12s5p4d2f1g contracted to 6s4p3d1f1g pattern {711111/2111/211/2/1}
 Group   4 Type H   : 5s2p1d contracted to 3s1p1d pattern {311/2/1}

Atom   0O    basis set group =>   1
Atom   1O    basis set group =>   1
Atom   2O    basis set group =>   1
Atom   3O    basis set group =>   1
Atom   4N    basis set group =>   2
Atom   5N    basis set group =>   2
Atom   6N    basis set group =>   2
Atom   7N    basis set group =>   2
Atom   8C    basis set group =>   3
Atom   9C    basis set group =>   3
Atom  10C    basis set group =>   3
Atom  11C    basis set group =>   3
Atom  12C    basis set group =>   3
Atom  13C    basis set group =>   3
Atom  14C    basis set group =>   3
Atom  15C    basis set group =>   3
Atom  16C    basis set group =>   3
Atom  17C    basis set group =>   3
Atom  18H    basis set group =>   4
Atom  19H    basis set group =>   4
Atom  20H    basis set group =>   4
Atom  21H    basis set group =>   4
Atom  22H    basis set group =>   4
Atom  23H    basis set group =>   4
Atom  24H    basis set group =>   4
Atom  25H    basis set group =>   4
Atom  26H    basis set group =>   4
Atom  27H    basis set group =>   4
Atom  28H    basis set group =>   4
Atom  29H    basis set group =>   4
[1741444450.084071] [ohm:1896246:0]        ib_iface.c:1059 UCX  ERROR ibv_create_cq(cqe=256) failed: Connection timed out
[1741444450.105714] [ohm:1896243:0]        ib_iface.c:1059 UCX  ERROR ibv_create_cq(cqe=256) failed: Connection timed out
[1741444450.108516] [ohm:1896249:0]        ib_iface.c:1059 UCX  ERROR ibv_create_cq(cqe=256) failed: Connection timed out
[1741444450.118191] [ohm:1896252:0]        ib_iface.c:1059 UCX  ERROR ibv_create_cq(cqe=256) failed: Connection timed out
[1741444450.126220] [ohm:1896250:0]        ib_iface.c:1059 UCX  ERROR ibv_create_cq(cqe=256) failed: Connection timed out
[1741444450.133848] [ohm:1896244:0]        ib_iface.c:1059 UCX  ERROR ibv_create_cq(cqe=256) failed: Connection timed out
[1741444450.143267] [ohm:1896278:0]        ib_iface.c:1059 UCX  ERROR ibv_create_cq(cqe=256) failed: Connection timed out
[1741444450.151455] [ohm:1896256:0]        ib_iface.c:1059 UCX  ERROR ibv_create_cq(cqe=256) failed: Connection timed out
[1741444450.158393] [ohm:1896277:0]        ib_iface.c:1059 UCX  ERROR ibv_create_cq(cqe=256) failed: Connection timed out
[1741444450.158441] [ohm:1896254:0]        ib_iface.c:1059 UCX  ERROR ibv_create_cq(cqe=256) failed: Connection timed out
[1741444450.161607] [ohm:1896258:0]        ib_iface.c:1059 UCX  ERROR ibv_create_cq(cqe=256) failed: Connection timed out
[1741444450.172157] [ohm:1896251:0]        ib_iface.c:1059 UCX  ERROR ibv_create_cq(cqe=256) failed: Connection timed out
[1741444450.216745] [ohm:1896283:0]        ib_iface.c:1059 UCX  ERROR ibv_create_cq(cqe=256) failed: Connection timed out
[1741444450.218323] [ohm:1896307:0]        ib_iface.c:1059 UCX  ERROR ibv_create_cq(cqe=256) failed: Connection timed out
[1741444450.223158] [ohm:1896313:0]        ib_iface.c:1059 UCX  ERROR ibv_create_cq(cqe=256) failed: Connection timed out
[1741444450.255848] [ohm:1896280:0]        ib_iface.c:1059 UCX  ERROR ibv_create_cq(cqe=256) failed: Connection timed out
[1741444450.263969] [ohm:1896311:0]        ib_iface.c:1059 UCX  ERROR ibv_create_cq(cqe=256) failed: Connection timed out
[1741444450.274549] [ohm:1896342:0]        ib_iface.c:1059 UCX  ERROR ibv_create_cq(cqe=256) failed: Connection timed out
[1741444450.289366] [ohm:1896315:0]        ib_iface.c:1059 UCX  ERROR ibv_create_cq(cqe=256) failed: Connection timed out
[1741444450.290610] [ohm:1896319:0]        ib_iface.c:1059 UCX  ERROR ibv_create_cq(cqe=256) failed: Connection timed out
[1741444450.295113] [ohm:1896338:0]        ib_iface.c:1059 UCX  ERROR ibv_create_cq(cqe=256) failed: Connection timed out
[1741444450.313111] [ohm:1896387:0]        ib_iface.c:1059 UCX  ERROR ibv_create_cq(cqe=256) failed: Connection timed out
[1741444450.315000] [ohm:1896332:0]        ib_iface.c:1059 UCX  ERROR ibv_create_cq(cqe=256) failed: Connection timed out
[1741444450.315950] [ohm:1896337:0]        ib_iface.c:1059 UCX  ERROR ibv_create_cq(cqe=256) failed: Connection timed out
[1741444450.318132] [ohm:1896362:0]        ib_iface.c:1059 UCX  ERROR ibv_create_cq(cqe=256) failed: Connection timed out
[1741444450.318477] [ohm:1896316:0]        ib_iface.c:1059 UCX  ERROR ibv_create_cq(cqe=256) failed: Connection timed out
[1741444450.324321] [ohm:1896287:0]        ib_iface.c:1059 UCX  ERROR ibv_create_cq(cqe=256) failed: Connection timed out
[1741444450.327043] [ohm:1896353:0]        ib_iface.c:1059 UCX  ERROR ibv_create_cq(cqe=256) failed: Connection timed out
[1741444450.330927] [ohm:1896325:0]        ib_iface.c:1059 UCX  ERROR ibv_create_cq(cqe=256) failed: Connection timed out
[1741444450.331580] [ohm:1896259:0]        ib_iface.c:1059 UCX  ERROR ibv_create_cq(cqe=256) failed: Connection timed out
[1741444450.335585] [ohm:1896390:0]        ib_iface.c:1059 UCX  ERROR ibv_create_cq(cqe=256) failed: Connection timed out
[1741444450.341409] [ohm:1896368:0]        ib_iface.c:1059 UCX  ERROR ibv_create_cq(cqe=256) failed: Connection timed out
[1741444450.344285] [ohm:1896288:0]        ib_iface.c:1059 UCX  ERROR ibv_create_cq(cqe=256) failed: Connection timed out
[1741444450.345249] [ohm:1896346:0]        ib_iface.c:1059 UCX  ERROR ibv_create_cq(cqe=256) failed: Connection timed out
[1741444450.345683] [ohm:1896357:0]        ib_iface.c:1059 UCX  ERROR ibv_create_cq(cqe=256) failed: Connection timed out
[1741444450.347655] [ohm:1896375:0]        ib_iface.c:1059 UCX  ERROR ibv_create_cq(cqe=256) failed: Connection timed out
[1741444450.354672] [ohm:1896364:0]        ib_iface.c:1059 UCX  ERROR ibv_create_cq(cqe=256) failed: Connection timed out
[1741444450.358259] [ohm:1896274:0]        ib_iface.c:1059 UCX  ERROR ibv_create_cq(cqe=256) failed: Connection timed out
[1741444450.367754] [ohm:1896314:0]        ib_iface.c:1059 UCX  ERROR ibv_create_cq(cqe=256) failed: Connection timed out
[1741444450.372253] [ohm:1896380:0]        ib_iface.c:1059 UCX  ERROR ibv_create_cq(cqe=256) failed: Connection timed out
[1741444450.372302] [ohm:1896350:0]        ib_iface.c:1059 UCX  ERROR ibv_create_cq(cqe=256) failed: Connection timed out
[1741444450.392155] [ohm:1896320:0]        ib_iface.c:1059 UCX  ERROR ibv_create_cq(cqe=256) failed: Connection timed out
[1741444450.392428] [ohm:1896366:0]        ib_iface.c:1059 UCX  ERROR ibv_create_cq(cqe=256) failed: Connection timed out
[1741444450.393078] [ohm:1896384:0]        ib_iface.c:1059 UCX  ERROR ibv_create_cq(cqe=256) failed: Connection timed out
[1741444450.394788] [ohm:1896281:0]        ib_iface.c:1059 UCX  ERROR ibv_create_cq(cqe=256) failed: Connection timed out
[1741444450.398296] [ohm:1896303:0]        ib_iface.c:1059 UCX  ERROR ibv_create_cq(cqe=256) failed: Connection timed out
[1741444450.402730] [ohm:1896284:0]        ib_iface.c:1059 UCX  ERROR ibv_create_cq(cqe=256) failed: Connection timed out
[1741444450.405425] [ohm:1896308:0]        ib_iface.c:1059 UCX  ERROR ibv_create_cq(cqe=256) failed: Connection timed out
[1741444450.409267] [ohm:1896327:0]        ib_iface.c:1059 UCX  ERROR ibv_create_cq(cqe=256) failed: Connection timed out
[1741444450.409859] [ohm:1896330:0]        ib_iface.c:1059 UCX  ERROR ibv_create_cq(cqe=256) failed: Connection timed out
[1741444450.410454] [ohm:1896360:0]        ib_iface.c:1059 UCX  ERROR ibv_create_cq(cqe=256) failed: Connection timed out
[1741444450.411253] [ohm:1896294:0]        ib_iface.c:1059 UCX  ERROR ibv_create_cq(cqe=256) failed: Connection timed out
[1741444450.412711] [ohm:1896248:0]        ib_iface.c:1059 UCX  ERROR ibv_create_cq(cqe=256) failed: Connection timed out
[1741444450.418200] [ohm:1896245:0]        ib_iface.c:1059 UCX  ERROR ibv_create_cq(cqe=256) failed: Connection timed out
[1741444450.418240] [ohm:1896255:0]        ib_iface.c:1059 UCX  ERROR ibv_create_cq(cqe=256) failed: Connection timed out
[1741444450.421216] [ohm:1896253:0]        ib_iface.c:1059 UCX  ERROR ibv_create_cq(cqe=256) failed: Connection timed out
[1741444450.421478] [ohm:1896310:0]        ib_iface.c:1059 UCX  ERROR ibv_create_cq(cqe=256) failed: Connection timed out
[1741444450.422661] [ohm:1896282:0]        ib_iface.c:1059 UCX  ERROR ibv_create_cq(cqe=256) failed: Connection timed out
[1741444450.425309] [ohm:1896295:0]        ib_iface.c:1059 UCX  ERROR ibv_create_cq(cqe=256) failed: Connection timed out
[1741444450.425440] [ohm:1896372:0]        ib_iface.c:1059 UCX  ERROR ibv_create_cq(cqe=256) failed: Connection timed out
[1741444450.426560] [ohm:1896247:0]        ib_iface.c:1059 UCX  ERROR ibv_create_cq(cqe=256) failed: Connection timed out
[1741444450.427747] [ohm:1896257:0]        ib_iface.c:1059 UCX  ERROR ibv_create_cq(cqe=256) failed: Connection timed out
[1741444450.429771] [ohm:1896279:0]        ib_iface.c:1059 UCX  ERROR ibv_create_cq(cqe=256) failed: Connection timed out
[1741444450.434574] [ohm:1896302:0]        ib_iface.c:1059 UCX  ERROR ibv_create_cq(cqe=256) failed: Connection timed out


           ************************************************************
           *        Program running with 64 parallel MPI-processes    *
           *              working on a common directory               *
           ************************************************************
------------------------------------------------------------------------------
                             ORCA STARTUP CALCULATIONS
                           -- RI-GTO INTEGRALS CHOSEN --
------------------------------------------------------------------------------
------------------------------------------------------------------------------
                   ___                                                        
                  /   \      - P O W E R E D   B Y -                         
                 /     \                                                     
                 |  |  |   _    _      __       _____    __    __             
                 |  |  |  | |  | |    /  \     |  _  \  |  |  /  |          
                  \  \/   | |  | |   /    \    | | | |  |  | /  /          
                 / \  \   | |__| |  /  /\  \   | |_| |  |  |/  /          
                |  |  |   |  __  | /  /__\  \  |    /   |      \           
                |  |  |   | |  | | |   __   |  |    \   |  |\   \          
                \     /   | |  | | |  |  |  |  | |\  \  |  | \   \       
                 \___/    |_|  |_| |__|  |__|  |_| \__\ |__|  \__/        
                                                                              
                      - O R C A' S   B I G   F R I E N D -                    
                                      &                                       
                       - I N T E G R A L  F E E D E R -                       
                                                                              
 v1 FN, 2020, v2 2021, v3 2022-2024                                           
------------------------------------------------------------------------------


----------------------
SHARK INTEGRAL PACKAGE
----------------------

Number of atoms                             ...     30
Number of basis functions                   ...    882
Number of shells                            ...    322
Maximum angular momentum                    ...      3
Integral batch strategy                     ... SHARK/LIBINT Hybrid
RI-J (if used) integral strategy            ... SPLIT-RIJ (Revised 2003 algorithm where possible)
Printlevel                                  ...      1
Contraction scheme used                     ... SEGMENTED contraction
Prescreening option                         ... SCHWARTZ
   Thresh                                   ... 2.500e-11
   Tcut                                     ... 2.500e-12
   Tpresel                                  ... 2.500e-12 
Coulomb Range Separation                    ... NOT USED
Exchange Range Separation                   ... Long Range
   Mu parameter                             ... 3.000e-01
   Scaling (regular/separated)              ... 1.500e-01 8.500e-01
Multipole approximations                    ... NOT USED
Finite Nucleus Model                        ... NOT USED
CABS basis                                  ... NOT available
Auxiliary Coulomb fitting basis             ... AVAILABLE
   # of basis functions in Aux-J            ...   1014
   # of shells in Aux-J                     ...    330
   Maximum angular momentum in Aux-J        ...      4
Auxiliary J/K fitting basis                 ... NOT available
Auxiliary Correlation fitting basis         ... NOT available
Auxiliary 'external' fitting basis          ... NOT available

Checking pre-screening integrals            ... done (  0.0 sec) Dimension = 322
Check shell pair data                       ... done (  0.0 sec)
Shell pair information
Shell pair cut-off parameter TPreSel        ...   2.5e-12
Total number of shell pairs                 ...     52003
Shell pairs after pre-screening             ...     45368
Total number of primitive shell pairs       ...    129718
Primitive shell pairs kept                  ...     84592
          la=0 lb=0:   8765 shell pairs
          la=1 lb=0:  11975 shell pairs
          la=1 lb=1:   4137 shell pairs
          la=2 lb=0:   8155 shell pairs
          la=2 lb=1:   5634 shell pairs
          la=2 lb=2:   1943 shell pairs
          la=3 lb=0:   2079 shell pairs
          la=3 lb=1:   1502 shell pairs
          la=3 lb=2:   1031 shell pairs
          la=3 lb=3:    147 shell pairs

Calculating one electron integrals          ... done (  0.2 sec)
Calculating RI/J V-Matrix + Cholesky decomp.... done (  0.0 sec)
Calculating Nuclear repulsion               ... done (  0.0 sec) ENN=   1466.683685368750 Eh

Diagonalization of the overlap matrix:
Smallest eigenvalue                        ... 4.383e-07
Time for diagonalization                   ...    0.129 sec
Threshold for overlap eigenvalues          ... 1.000e-07
Number of eigenvalues below threshold      ... 0

IMPORTANT:
Smallest eigenvalue of S below the DiffSThresh (1.000e-06) while
Thresh>1e-12 and/or TCut>1e-13! In order to avoid SCF convergence issues,
Thresh will be set to at least 1e-12 and TCut to at least 1e-13.
This can be turned off by adding %SCF DiffSThresh -1 END to the input.

Time for construction of square roots      ...    0.132 sec
Total time needed                          ...    0.272 sec

-------------------
DFT GRID GENERATION
-------------------

General Integration Accuracy     IntAcc      ... 4.388
Radial Grid Type                 RadialGrid  ... OptM3 with GC (2021)
Angular Grid (max. ang.)         AngularGrid ... 4 (Lebedev-302)
Angular grid pruning method      GridPruning ... 4 (adaptive)
Weight generation scheme         WeightScheme... mBecke (2022)
Basis function cutoff            BFCut       ... 1.0000e-11
Integration weight cutoff        WCut        ... 1.0000e-14
Partially contracted basis set               ... off
Rotationally invariant grid construction     ... off
Angular grids for H and He will be reduced by one unit
Diffuse basis detected: some atoms will have their outermost
                        angular grid increased by 1.

Total number of grid points                  ...   152065
Total number of batches                      ...     2390
Average number of points per batch           ...       63
Average number of grid points per atom       ...     5069

--------------------
COSX GRID GENERATION
--------------------

GRIDX 1
-------
General Integration Accuracy     IntAcc      ... 3.816
Radial Grid Type                 RadialGrid  ... OptM3 with GC (2021)
Angular Grid (max. ang.)         AngularGrid ... 1 (Lebedev-50)
Angular grid pruning method      GridPruning ... 4 (adaptive)
Weight generation scheme         WeightScheme... mBecke (2022)
Basis function cutoff            BFCut       ... 1.0000e-11
Integration weight cutoff        WCut        ... 1.0000e-14
Partially contracted basis set               ... on
Rotationally invariant grid construction     ... off
Angular grids for H and He will be reduced by one unit
Diffuse basis detected: some atoms will have their outermost
                        angular grid increased by 1.

Total number of grid points                  ...    19042
Total number of batches                      ...      166
Average number of points per batch           ...      114
Average number of grid points per atom       ...      635
UseSFitting                                  ... on

GRIDX 2
-------
General Integration Accuracy     IntAcc      ... 4.020
Radial Grid Type                 RadialGrid  ... OptM3 with GC (2021)
Angular Grid (max. ang.)         AngularGrid ... 2 (Lebedev-110)
Angular grid pruning method      GridPruning ... 4 (adaptive)
Weight generation scheme         WeightScheme... mBecke (2022)
Basis function cutoff            BFCut       ... 1.0000e-11
Integration weight cutoff        WCut        ... 1.0000e-14
Partially contracted basis set               ... on
Rotationally invariant grid construction     ... off
Angular grids for H and He will be reduced by one unit
Diffuse basis detected: some atoms will have their outermost
                        angular grid increased by 1.

Total number of grid points                  ...    45846
Total number of batches                      ...      376
Average number of points per batch           ...      121
Average number of grid points per atom       ...     1528
UseSFitting                                  ... on

GRIDX 3
-------
General Integration Accuracy     IntAcc      ... 4.338
Radial Grid Type                 RadialGrid  ... OptM3 with GC (2021)
Angular Grid (max. ang.)         AngularGrid ... 3 (Lebedev-194)
Angular grid pruning method      GridPruning ... 4 (adaptive)
Weight generation scheme         WeightScheme... mBecke (2022)
Basis function cutoff            BFCut       ... 1.0000e-11
Integration weight cutoff        WCut        ... 1.0000e-14
Partially contracted basis set               ... on
Rotationally invariant grid construction     ... off
Angular grids for H and He will be reduced by one unit
Diffuse basis detected: some atoms will have their outermost
                        angular grid increased by 1.

Total number of grid points                  ...   100958
Total number of batches                      ...      806
Average number of points per batch           ...      125
Average number of grid points per atom       ...     3365
UseSFitting                                  ... on
Initializing property integral containers    ... done (  0.0 sec)

SHARK setup successfully completed in   4.2 seconds

Maximum memory used throughout the entire STARTUP-calculation: 80.5 MB
[1741444456.492019] [ohm:1896602:0]        ib_iface.c:1059 UCX  ERROR ibv_create_cq(cqe=256) failed: Connection timed out
[1741444456.496111] [ohm:1896611:0]        ib_iface.c:1059 UCX  ERROR ibv_create_cq(cqe=256) failed: Connection timed out
[1741444456.497209] [ohm:1896607:0]        ib_iface.c:1059 UCX  ERROR ibv_create_cq(cqe=256) failed: Connection timed out
[1741444456.503646] [ohm:1896612:0]        ib_iface.c:1059 UCX  ERROR ibv_create_cq(cqe=256) failed: Connection timed out
[1741444456.504880] [ohm:1896603:0]        ib_iface.c:1059 UCX  ERROR ibv_create_cq(cqe=256) failed: Connection timed out
[1741444456.525021] [ohm:1896606:0]        ib_iface.c:1059 UCX  ERROR ibv_create_cq(cqe=256) failed: Connection timed out
[1741444456.530868] [ohm:1896604:0]        ib_iface.c:1059 UCX  ERROR ibv_create_cq(cqe=256) failed: Connection timed out
[1741444456.546412] [ohm:1896605:0]        ib_iface.c:1059 UCX  ERROR ibv_create_cq(cqe=256) failed: Connection timed out
[1741444456.548083] [ohm:1896617:0]        ib_iface.c:1059 UCX  ERROR ibv_create_cq(cqe=256) failed: Connection timed out
[1741444456.552334] [ohm:1896601:0]        ib_iface.c:1059 UCX  ERROR ibv_create_cq(cqe=256) failed: Connection timed out
[1741444456.643957] [ohm:1896632:0]        ib_iface.c:1059 UCX  ERROR ibv_create_cq(cqe=256) failed: Connection timed out
[1741444456.672669] [ohm:1896619:0]        ib_iface.c:1059 UCX  ERROR ibv_create_cq(cqe=256) failed: Connection timed out
[1741444456.680055] [ohm:1896614:0]        ib_iface.c:1059 UCX  ERROR ibv_create_cq(cqe=256) failed: Connection timed out
[1741444456.684508] [ohm:1896613:0]        ib_iface.c:1059 UCX  ERROR ibv_create_cq(cqe=256) failed: Connection timed out
[1741444456.686793] [ohm:1896623:0]        ib_iface.c:1059 UCX  ERROR ibv_create_cq(cqe=256) failed: Connection timed out
[1741444456.689870] [ohm:1896663:0]        ib_iface.c:1059 UCX  ERROR ibv_create_cq(cqe=256) failed: Connection timed out
[1741444456.690999] [ohm:1896609:0]        ib_iface.c:1059 UCX  ERROR ibv_create_cq(cqe=256) failed: Connection timed out
[1741444456.691566] [ohm:1896616:0]        ib_iface.c:1059 UCX  ERROR ibv_create_cq(cqe=256) failed: Connection timed out
[1741444456.695004] [ohm:1896655:0]        ib_iface.c:1059 UCX  ERROR ibv_create_cq(cqe=256) failed: Connection timed out
[1741444456.706680] [ohm:1896608:0]        ib_iface.c:1059 UCX  ERROR ibv_create_cq(cqe=256) failed: Connection timed out
[1741444456.709890] [ohm:1896640:0]        ib_iface.c:1059 UCX  ERROR ibv_create_cq(cqe=256) failed: Connection timed out
[1741444456.714835] [ohm:1896628:0]        ib_iface.c:1059 UCX  ERROR ibv_create_cq(cqe=256) failed: Connection timed out
[1741444456.715326] [ohm:1896635:0]        ib_iface.c:1059 UCX  ERROR ibv_create_cq(cqe=256) failed: Connection timed out
[1741444456.716188] [ohm:1896618:0]        ib_iface.c:1059 UCX  ERROR ibv_create_cq(cqe=256) failed: Connection timed out
[1741444456.732049] [ohm:1896620:0]        ib_iface.c:1059 UCX  ERROR ibv_create_cq(cqe=256) failed: Connection timed out
[1741444456.732227] [ohm:1896626:0]        ib_iface.c:1059 UCX  ERROR ibv_create_cq(cqe=256) failed: Connection timed out
[1741444456.734794] [ohm:1896674:0]        ib_iface.c:1059 UCX  ERROR ibv_create_cq(cqe=256) failed: Connection timed out
[1741444456.736304] [ohm:1896621:0]        ib_iface.c:1059 UCX  ERROR ibv_create_cq(cqe=256) failed: Connection timed out
[1741444456.747759] [ohm:1896659:0]        ib_iface.c:1059 UCX  ERROR ibv_create_cq(cqe=256) failed: Connection timed out
[1741444456.748740] [ohm:1896615:0]        ib_iface.c:1059 UCX  ERROR ibv_create_cq(cqe=256) failed: Connection timed out
[1741444456.749075] [ohm:1896667:0]        ib_iface.c:1059 UCX  ERROR ibv_create_cq(cqe=256) failed: Connection timed out
[1741444456.750653] [ohm:1896710:0]        ib_iface.c:1059 UCX  ERROR ibv_create_cq(cqe=256) failed: Connection timed out
[1741444456.755347] [ohm:1896641:0]        ib_iface.c:1059 UCX  ERROR ibv_create_cq(cqe=256) failed: Connection timed out
[1741444456.759879] [ohm:1896637:0]        ib_iface.c:1059 UCX  ERROR ibv_create_cq(cqe=256) failed: Connection timed out
[1741444456.760283] [ohm:1896703:0]        ib_iface.c:1059 UCX  ERROR ibv_create_cq(cqe=256) failed: Connection timed out
[1741444456.762401] [ohm:1896686:0]        ib_iface.c:1059 UCX  ERROR ibv_create_cq(cqe=256) failed: Connection timed out
[1741444456.785064] [ohm:1896735:0]        ib_iface.c:1059 UCX  ERROR ibv_create_cq(cqe=256) failed: Connection timed out
[1741444456.786710] [ohm:1896708:0]        ib_iface.c:1059 UCX  ERROR ibv_create_cq(cqe=256) failed: Connection timed out
[1741444456.798509] [ohm:1896642:0]        ib_iface.c:1059 UCX  ERROR ibv_create_cq(cqe=256) failed: Connection timed out
[1741444456.801724] [ohm:1896740:0]        ib_iface.c:1059 UCX  ERROR ibv_create_cq(cqe=256) failed: Connection timed out
[1741444456.804258] [ohm:1896728:0]        ib_iface.c:1059 UCX  ERROR ibv_create_cq(cqe=256) failed: Connection timed out
[1741444456.807089] [ohm:1896702:0]        ib_iface.c:1059 UCX  ERROR ibv_create_cq(cqe=256) failed: Connection timed out
[1741444456.809299] [ohm:1896695:0]        ib_iface.c:1059 UCX  ERROR ibv_create_cq(cqe=256) failed: Connection timed out
[1741444456.813016] [ohm:1896650:0]        ib_iface.c:1059 UCX  ERROR ibv_create_cq(cqe=256) failed: Connection timed out
[1741444456.822891] [ohm:1896699:0]        ib_iface.c:1059 UCX  ERROR ibv_create_cq(cqe=256) failed: Connection timed out
[1741444456.823851] [ohm:1896645:0]        ib_iface.c:1059 UCX  ERROR ibv_create_cq(cqe=256) failed: Connection timed out
[1741444456.824219] [ohm:1896670:0]        ib_iface.c:1059 UCX  ERROR ibv_create_cq(cqe=256) failed: Connection timed out
[1741444456.827069] [ohm:1896638:0]        ib_iface.c:1059 UCX  ERROR ibv_create_cq(cqe=256) failed: Connection timed out
[1741444456.832300] [ohm:1896696:0]        ib_iface.c:1059 UCX  ERROR ibv_create_cq(cqe=256) failed: Connection timed out
[1741444456.834051] [ohm:1896746:0]        ib_iface.c:1059 UCX  ERROR ibv_create_cq(cqe=256) failed: Connection timed out
[1741444456.838904] [ohm:1896610:0]        ib_iface.c:1059 UCX  ERROR ibv_create_cq(cqe=256) failed: Connection timed out
[1741444456.840763] [ohm:1896691:0]        ib_iface.c:1059 UCX  ERROR ibv_create_cq(cqe=256) failed: Connection timed out
[1741444456.841121] [ohm:1896715:0]        ib_iface.c:1059 UCX  ERROR ibv_create_cq(cqe=256) failed: Connection timed out
[1741444456.842237] [ohm:1896644:0]        ib_iface.c:1059 UCX  ERROR ibv_create_cq(cqe=256) failed: Connection timed out
[1741444456.842592] [ohm:1896639:0]        ib_iface.c:1059 UCX  ERROR ibv_create_cq(cqe=256) failed: Connection timed out
[1741444456.845667] [ohm:1896657:0]        ib_iface.c:1059 UCX  ERROR ibv_create_cq(cqe=256) failed: Connection timed out
[1741444456.846305] [ohm:1896677:0]        ib_iface.c:1059 UCX  ERROR ibv_create_cq(cqe=256) failed: Connection timed out
[1741444456.848930] [ohm:1896648:0]        ib_iface.c:1059 UCX  ERROR ibv_create_cq(cqe=256) failed: Connection timed out
[1741444456.849622] [ohm:1896722:0]        ib_iface.c:1059 UCX  ERROR ibv_create_cq(cqe=256) failed: Connection timed out
[1741444456.849749] [ohm:1896730:0]        ib_iface.c:1059 UCX  ERROR ibv_create_cq(cqe=256) failed: Connection timed out
[1741444456.850935] [ohm:1896682:0]        ib_iface.c:1059 UCX  ERROR ibv_create_cq(cqe=256) failed: Connection timed out
[1741444456.851775] [ohm:1896719:0]        ib_iface.c:1059 UCX  ERROR ibv_create_cq(cqe=256) failed: Connection timed out
[1741444456.852990] [ohm:1896743:0]        ib_iface.c:1059 UCX  ERROR ibv_create_cq(cqe=256) failed: Connection timed out
[1741444456.855022] [ohm:1896712:0]        ib_iface.c:1059 UCX  ERROR ibv_create_cq(cqe=256) failed: Connection timed out


           ************************************************************
           *        Program running with 64 parallel MPI-processes    *
           *              working on a common directory               *
           ************************************************************
-------------------------------------------------------------------------------
                                 ORCA GUESS
                   Start orbitals & Density for SCF / CASSCF
-------------------------------------------------------------------------------

------------
SCF SETTINGS
------------
Hamiltonian:
 Density Functional     Method          .... DFT(GTOs)
  Functional kind                       .... Exchange-Correlation
  Functional name                       .... wB97M-V exchange-correlation functional
  Functional family                     .... Hybrid MGGA
  Functional refs                              
    [ 0] N. Mardirossian and M. Head-Gordon.,  J. Chem. Phys. 144, 214110 (2016), doi: 10.1063/1.4952647
  Fraction of HF Exchange (short range) .... 0.1500
  Fraction of HF Exchange (long range)  .... 1.0000
  Range separation parameter mu         .... 0.3000
  Functional external parameters        .... 17
    Parameter  0 _cx00      =  8.500000e-01 : u^00 coefficient for exchange
    Parameter  1 _cx01      =  1.007000e+00 : u^01 coefficient for exchange
    Parameter  2 _cx10      =  2.590000e-01 : u^10 coefficient for exchange
    Parameter  3 _css00     =  4.430000e-01 : u^00 coefficient for same-spin correlation
    Parameter  4 _css04     = -1.437000e+00 : u^04 coefficient for same-spin correlation
    Parameter  5 _css10     = -4.535000e+00 : u^10 coefficient for same-spin correlation
    Parameter  6 _css20     = -3.390000e+00 : u^20 coefficient for same-spin correlation
    Parameter  7 _css43     =  4.278000e+00 : u^43 coefficient for same-spin correlation
    Parameter  8 _cos00     =  1.000000e+00 : u^00 coefficient for opposite-spin correlation
    Parameter  9 _cos10     =  1.358000e+00 : u^10 coefficient for opposite-spin correlation
    Parameter 10 _cos20     =  2.924000e+00 : u^20 coefficient for opposite-spin correlation
    Parameter 11 _cos21     = -8.812000e+00 : u^21 coefficient for opposite-spin correlation
    Parameter 12 _cos60     = -1.390000e+00 : u^60 coefficient for opposite-spin correlation
    Parameter 13 _cos61     =  9.142000e+00 : u^61 coefficient for opposite-spin correlation
    Parameter 14 _alpha     =  1.000000e+00 : fraction of HF exchange
    Parameter 15 _beta      = -8.500000e-01 : fraction of short-range exchange
    Parameter 16 _omega     =  3.000000e-01 : range-separation constant
 Long-range corrected/Screened/Range-Separated Hybrid DFT is turned on
   Amount of maximum screened exact exchange              ....  0.850000
   Range separation parameter mu (erf(mu*r12)/r12)        ....  0.300000
 RI-approximation to the Coulomb term is turned on
   Number of AuxJ basis functions       .... 1014
   RIJ-COSX (HFX calculated with COS-X)).... on


General Settings:
 Integral files         IntName         .... orca
 Hartree-Fock type      HFTyp           .... UHF
 Total Charge           Charge          ....    0
 Multiplicity           Mult            ....    3
 Number of Electrons    NEL             ....  132
 Basis Dimension        Dim             ....  882
 Nuclear Repulsion      ENuc            ....   1466.6836853688 Eh

Convergence Acceleration:
 AO-DIIS                CNVDIIS         .... on
   Start iteration      DIISMaxIt       ....    12
   Startup error        DIISStart       ....  0.200000
   # of expansion vecs  DIISMaxEq       ....     5
   Bias factor          DIISBfac        ....   1.050
   Max. coefficient     DIISMaxC        ....  10.000
 MO-DIIS                CNVKDIIS        .... off
 Trust-Rad. Augm. Hess. CNVTRAH         .... auto
   Auto Start mean grad. ratio tolernc. ....  1.125000
   Auto Start start iteration           ....    50
   Auto Start num. interpolation iter.  ....    10
   Max. Number of Micro iterations      ....    24
   Max. Number of Macro iterations      .... Maxiter - #DIIS iter
   Number of Davidson start vectors     ....     2
   Converg. threshold    (grad. norm)   ....   1.000e-05
   Grad. Scal. Fac. for Micro threshold ....   0.100
   Minimum threshold for Micro iter.    ....   1.000e-02
   NR start threshold (gradient norm)   ....   1.000e-04
   Initial trust radius                 ....   0.400
   Minimum AH scaling param. (alpha)    ....   1.000
   Maximum AH scaling param. (alpha)    .... 1000.000
   Quad. conv. algorithm                .... NR
   White noise on init. David. guess    .... on
   Maximum white noise                  ....   0.010
   Pseudo random numbers                .... off
   Inactive MOs                         .... canonical
   Orbital update algorithm             .... Taylor
   Preconditioner                       .... Diag
   Full preconditioner red. dimension   ....   250
 SOSCF                  CNVSOSCF        .... on
   Start iteration      SOSCFMaxIt      ....   150
   Startup grad/error   SOSCFStart      ....  0.003300
   Hessian update       SOSCFHessUp     .... L-BFGS
 Level Shifting         CNVShift        .... on
   Level shift para.    LevelShift      ....    0.2500
   Turn off err/grad.   ShiftErr        ....    0.0010
 Zerner damping         CNVZerner       .... off
 Static damping         CNVDamp         .... on
   Fraction old density DampFac         ....    0.7000
   Max. Damping (<1)    DampMax         ....    0.9800
   Min. Damping (>=0)   DampMin         ....    0.0000
   Turn off err/grad.   DampErr         ....    0.1000

SCF Procedure:
 Maximum # iterations   MaxIter         ....   125
 SCF integral mode      SCFMode         .... Direct
   Integral package                     .... SHARK and LIBINT hybrid scheme
 Reset frequency        DirectResetFreq ....    20
 Integral Threshold     Thresh          ....  1.000e-12 Eh
 Primitive CutOff       TCut            ....  1.000e-13 Eh

Convergence Tolerance:
 Convergence Check Mode ConvCheckMode   .... Total+1el-Energy
 Convergence forced     ConvForced      .... 1
 Energy Change          TolE            ....  1.000e-08 Eh
 1-El. energy change                    ....  1.000e-05 Eh
 Orbital Gradient       TolG            ....  1.000e-05
 Orbital Rotation angle TolX            ....  1.000e-05
 DIIS Error             TolErr          ....  5.000e-07

------------------------------
INITIAL GUESS: MODEL POTENTIAL
------------------------------
Loading Hartree-Fock densities                     ... done
Calculating cut-offs                               ... done
Initializing the effective Hamiltonian             ... done
Setting up the integral package (SHARK)            ... done
Starting the Coulomb interaction                   ... done (   0.1 sec)
Making the grid                                    ... done (   0.2 sec)
Mapping shells                                     ... done
Starting the XC term evaluation                    ... done (   0.1 sec)
  promolecular density results
     # of electrons  =    132.006487740
     EX              =   -113.726444296
     EC              =     -4.498502561
     EX+EC           =   -118.224946857
Transforming the Hamiltonian                       ... done (   0.1 sec)
Diagonalizing the Hamiltonian                      ... done (   0.1 sec)
Back transforming the eigenvectors                 ... done (   0.1 sec)
Now organizing SCF variables                       ... done
                      ------------------
                      INITIAL GUESS DONE (   1.1 sec)
                      ------------------
             **** ENERGY FILE WAS UPDATED (orca.en.tmp) ****
Finished Guess after   3.5 sec
Maximum memory used throughout the entire GUESS-calculation: 72.9 MB
[1741444460.687365] [ohm:1896950:0]        ib_iface.c:1059 UCX  ERROR ibv_create_cq(cqe=256) failed: Connection timed out
[1741444460.698758] [ohm:1896948:0]        ib_iface.c:1059 UCX  ERROR ibv_create_cq(cqe=256) failed: Connection timed out
[1741444460.723529] [ohm:1896952:0]        ib_iface.c:1059 UCX  ERROR ibv_create_cq(cqe=256) failed: Connection timed out
[1741444460.727023] [ohm:1896953:0]        ib_iface.c:1059 UCX  ERROR ibv_create_cq(cqe=256) failed: Connection timed out
[1741444460.729044] [ohm:1896951:0]        ib_iface.c:1059 UCX  ERROR ibv_create_cq(cqe=256) failed: Connection timed out
[1741444460.729728] [ohm:1896949:0]        ib_iface.c:1059 UCX  ERROR ibv_create_cq(cqe=256) failed: Connection timed out
[1741444460.742635] [ohm:1896954:0]        ib_iface.c:1059 UCX  ERROR ibv_create_cq(cqe=256) failed: Connection timed out
[1741444460.747577] [ohm:1896957:0]        ib_iface.c:1059 UCX  ERROR ibv_create_cq(cqe=256) failed: Connection timed out
[1741444460.750201] [ohm:1896971:0]        ib_iface.c:1059 UCX  ERROR ibv_create_cq(cqe=256) failed: Connection timed out
[1741444460.750258] [ohm:1896958:0]        ib_iface.c:1059 UCX  ERROR ibv_create_cq(cqe=256) failed: Connection timed out
[1741444460.756470] [ohm:1896960:0]        ib_iface.c:1059 UCX  ERROR ibv_create_cq(cqe=256) failed: Connection timed out
[1741444460.757634] [ohm:1896984:0]        ib_iface.c:1059 UCX  ERROR ibv_create_cq(cqe=256) failed: Connection timed out
[1741444460.763592] [ohm:1896956:0]        ib_iface.c:1059 UCX  ERROR ibv_create_cq(cqe=256) failed: Connection timed out
[1741444460.794696] [ohm:1896993:0]        ib_iface.c:1059 UCX  ERROR ibv_create_cq(cqe=256) failed: Connection timed out
[1741444460.795022] [ohm:1897049:0]        ib_iface.c:1059 UCX  ERROR ibv_create_cq(cqe=256) failed: Connection timed out
[1741444460.805053] [ohm:1897007:0]        ib_iface.c:1059 UCX  ERROR ibv_create_cq(cqe=256) failed: Connection timed out
[1741444460.816898] [ohm:1896991:0]        ib_iface.c:1059 UCX  ERROR ibv_create_cq(cqe=256) failed: Connection timed out
[1741444460.832420] [ohm:1897020:0]        ib_iface.c:1059 UCX  ERROR ibv_create_cq(cqe=256) failed: Connection timed out
[1741444460.838075] [ohm:1896974:0]        ib_iface.c:1059 UCX  ERROR ibv_create_cq(cqe=256) failed: Connection timed out
[1741444460.842539] [ohm:1897000:0]        ib_iface.c:1059 UCX  ERROR ibv_create_cq(cqe=256) failed: Connection timed out
[1741444460.842918] [ohm:1896955:0]        ib_iface.c:1059 UCX  ERROR ibv_create_cq(cqe=256) failed: Connection timed out
[1741444460.847323] [ohm:1896977:0]        ib_iface.c:1059 UCX  ERROR ibv_create_cq(cqe=256) failed: Connection timed out
[1741444460.881849] [ohm:1896998:0]        ib_iface.c:1059 UCX  ERROR ibv_create_cq(cqe=256) failed: Connection timed out
[1741444460.902019] [ohm:1897021:0]        ib_iface.c:1059 UCX  ERROR ibv_create_cq(cqe=256) failed: Connection timed out
[1741444460.909144] [ohm:1896966:0]        ib_iface.c:1059 UCX  ERROR ibv_create_cq(cqe=256) failed: Connection timed out
[1741444460.911736] [ohm:1896988:0]        ib_iface.c:1059 UCX  ERROR ibv_create_cq(cqe=256) failed: Connection timed out
[1741444460.913093] [ohm:1896979:0]        ib_iface.c:1059 UCX  ERROR ibv_create_cq(cqe=256) failed: Connection timed out
[1741444460.918147] [ohm:1896975:0]        ib_iface.c:1059 UCX  ERROR ibv_create_cq(cqe=256) failed: Connection timed out
[1741444460.918207] [ohm:1897002:0]        ib_iface.c:1059 UCX  ERROR ibv_create_cq(cqe=256) failed: Connection timed out
[1741444460.918397] [ohm:1897008:0]        ib_iface.c:1059 UCX  ERROR ibv_create_cq(cqe=256) failed: Connection timed out
[1741444460.921263] [ohm:1897026:0]        ib_iface.c:1059 UCX  ERROR ibv_create_cq(cqe=256) failed: Connection timed out
[1741444460.921572] [ohm:1896996:0]        ib_iface.c:1059 UCX  ERROR ibv_create_cq(cqe=256) failed: Connection timed out
[1741444460.923268] [ohm:1896997:0]        ib_iface.c:1059 UCX  ERROR ibv_create_cq(cqe=256) failed: Connection timed out
[1741444460.924166] [ohm:1896987:0]        ib_iface.c:1059 UCX  ERROR ibv_create_cq(cqe=256) failed: Connection timed out
[1741444460.925295] [ohm:1896964:0]        ib_iface.c:1059 UCX  ERROR ibv_create_cq(cqe=256) failed: Connection timed out
[1741444460.944740] [ohm:1896999:0]        ib_iface.c:1059 UCX  ERROR ibv_create_cq(cqe=256) failed: Connection timed out
[1741444460.946512] [ohm:1896972:0]        ib_iface.c:1059 UCX  ERROR ibv_create_cq(cqe=256) failed: Connection timed out
[1741444460.950323] [ohm:1897012:0]        ib_iface.c:1059 UCX  ERROR ibv_create_cq(cqe=256) failed: Connection timed out
[1741444460.951918] [ohm:1896995:0]        ib_iface.c:1059 UCX  ERROR ibv_create_cq(cqe=256) failed: Connection timed out
[1741444460.952949] [ohm:1896982:0]        ib_iface.c:1059 UCX  ERROR ibv_create_cq(cqe=256) failed: Connection timed out
[1741444460.957992] [ohm:1897003:0]        ib_iface.c:1059 UCX  ERROR ibv_create_cq(cqe=256) failed: Connection timed out
[1741444460.962574] [ohm:1896980:0]        ib_iface.c:1059 UCX  ERROR ibv_create_cq(cqe=256) failed: Connection timed out
[1741444460.966985] [ohm:1897068:0]        ib_iface.c:1059 UCX  ERROR ibv_create_cq(cqe=256) failed: Connection timed out
[1741444460.977948] [ohm:1897081:0]        ib_iface.c:1059 UCX  ERROR ibv_create_cq(cqe=256) failed: Connection timed out
[1741444460.978494] [ohm:1896978:0]        ib_iface.c:1059 UCX  ERROR ibv_create_cq(cqe=256) failed: Connection timed out
[1741444460.980212] [ohm:1897075:0]        ib_iface.c:1059 UCX  ERROR ibv_create_cq(cqe=256) failed: Connection timed out
[1741444460.981373] [ohm:1897092:0]        ib_iface.c:1059 UCX  ERROR ibv_create_cq(cqe=256) failed: Connection timed out
[1741444460.986728] [ohm:1897055:0]        ib_iface.c:1059 UCX  ERROR ibv_create_cq(cqe=256) failed: Connection timed out
[1741444460.986844] [ohm:1897069:0]        ib_iface.c:1059 UCX  ERROR ibv_create_cq(cqe=256) failed: Connection timed out
[1741444460.986962] [ohm:1897087:0]        ib_iface.c:1059 UCX  ERROR ibv_create_cq(cqe=256) failed: Connection timed out
[1741444460.988520] [ohm:1897028:0]        ib_iface.c:1059 UCX  ERROR ibv_create_cq(cqe=256) failed: Connection timed out
[1741444460.989342] [ohm:1897046:0]        ib_iface.c:1059 UCX  ERROR ibv_create_cq(cqe=256) failed: Connection timed out
[1741444460.989477] [ohm:1897035:0]        ib_iface.c:1059 UCX  ERROR ibv_create_cq(cqe=256) failed: Connection timed out
[1741444460.998184] [ohm:1897060:0]        ib_iface.c:1059 UCX  ERROR ibv_create_cq(cqe=256) failed: Connection timed out
[1741444461.006912] [ohm:1896976:0]        ib_iface.c:1059 UCX  ERROR ibv_create_cq(cqe=256) failed: Connection timed out
[1741444461.007208] [ohm:1897043:0]        ib_iface.c:1059 UCX  ERROR ibv_create_cq(cqe=256) failed: Connection timed out
[1741444461.007569] [ohm:1897053:0]        ib_iface.c:1059 UCX  ERROR ibv_create_cq(cqe=256) failed: Connection timed out
[1741444461.007970] [ohm:1897016:0]        ib_iface.c:1059 UCX  ERROR ibv_create_cq(cqe=256) failed: Connection timed out
[1741444461.008432] [ohm:1897076:0]        ib_iface.c:1059 UCX  ERROR ibv_create_cq(cqe=256) failed: Connection timed out
[1741444461.008719] [ohm:1897063:0]        ib_iface.c:1059 UCX  ERROR ibv_create_cq(cqe=256) failed: Connection timed out
[1741444461.010600] [ohm:1897038:0]        ib_iface.c:1059 UCX  ERROR ibv_create_cq(cqe=256) failed: Connection timed out
[1741444461.011978] [ohm:1897085:0]        ib_iface.c:1059 UCX  ERROR ibv_create_cq(cqe=256) failed: Connection timed out
[1741444461.012019] [ohm:1897071:0]        ib_iface.c:1059 UCX  ERROR ibv_create_cq(cqe=256) failed: Connection timed out
[1741444461.012671] [ohm:1897047:0]        ib_iface.c:1059 UCX  ERROR ibv_create_cq(cqe=256) failed: Connection timed out


           ************************************************************
           *        Program running with 64 parallel MPI-processes    *
           *              working on a common directory               *
           ************************************************************

-------------------------------------------------------------------------------------------
                                      ORCA LEAN-SCF
                              memory conserving SCF solver
-------------------------------------------------------------------------------------------

----------------------------------------D-I-I-S--------------------------------------------
Iteration    Energy (Eh)           Delta-E    RMSDP     MaxDP     DIISErr   Damp  Time(sec)
-------------------------------------------------------------------------------------------
               ***  Starting incremental Fock matrix formation  ***
    1    -908.0494716203029384     0.00e+00  1.66e-03  2.82e-01  1.50e-01  0.700   7.8
    2    -908.3224658238154916    -2.73e-01  1.38e-03  1.94e-01  7.29e-02  0.700   6.6
                               ***Turning on AO-DIIS***
    3    -908.4475087663422528    -1.25e-01  9.92e-04  1.25e-01  2.82e-02  0.700   5.8
    4    -908.5238049723693621    -7.63e-02  2.33e-03  2.93e-01  2.01e-02  0.000   5.8
    5    -908.6966428735972841    -1.73e-01  3.58e-04  5.64e-02  7.29e-03  0.000   6.0
    6    -908.7006822535895481    -4.04e-03  2.49e-04  3.05e-02  7.15e-03  0.000   5.6
    7    -908.7043118632363985    -3.63e-03  2.55e-04  3.84e-02  7.17e-03  0.000   5.6
    8    -908.7081611771209282    -3.85e-03  3.52e-04  6.37e-02  6.95e-03  0.000   5.6
    9    -908.7128287964778792    -4.67e-03  5.60e-04  1.18e-01  6.30e-03  0.000   5.5
   10    -908.7183586996084159    -5.53e-03  4.34e-04  6.67e-02  4.70e-03  0.000   5.6
                              *** Initializing SOSCF ***
---------------------------------------S-O-S-C-F--------------------------------------
Iteration    Energy (Eh)           Delta-E    RMSDP     MaxDP     MaxGrad    Time(sec)
--------------------------------------------------------------------------------------
   11    -908.7211955551470055    -2.84e-03  3.55e-04  5.47e-02  3.03e-03     6.4
               *** Restarting incremental Fock matrix formation ***
   12    -908.7226461939471847    -1.45e-03  4.16e-04  7.71e-02  6.68e-03     7.3
   13    -908.7232192083520204    -5.73e-04  6.20e-04  1.05e-01  3.62e-03     6.7
   14    -908.7235587460440911    -3.40e-04  2.13e-04  3.28e-02  9.28e-04     6.8
   15    -908.7236146203244971    -5.59e-05  8.61e-05  1.27e-02  5.41e-04     6.7
   16    -908.7236263346021587    -1.17e-05  3.45e-05  4.19e-03  3.76e-04     6.4
   17    -908.7236304326411300    -4.10e-06  2.91e-05  4.25e-03  2.27e-04     6.3
   18    -908.7236318418504197    -1.41e-06  1.59e-05  3.13e-03  1.25e-04     6.2
   19    -908.7236325561743797    -7.14e-07  7.19e-06  1.05e-03  4.68e-05     6.1
   20    -908.7236327314753908    -1.75e-07  3.51e-06  5.28e-04  2.02e-05     6.0
   21    -908.7236328087174115    -7.72e-08  3.09e-06  6.15e-04  1.26e-05     5.8
   22    -908.7236328410826900    -3.24e-08  2.49e-06  3.64e-04  8.81e-06     5.7
   23    -908.7236328029371180     3.81e-08  2.08e-06  2.69e-04  3.22e-06     5.5
   24    -908.7236328318067535    -2.89e-08  2.04e-06  3.92e-04  1.32e-06     5.5
                  *** Gradient check signals convergence ***

               *****************************************************
               *                     SUCCESS                       *
               *           SCF CONVERGED AFTER  24 CYCLES          *
               *****************************************************

Recomputing exchange energy using gridx3       ... done (    7.892 sec)
Old exchange energy                            :    -35.089313142 Eh
New exchange energy                            :    -35.089312645 Eh
Exchange energy change after final integration :      0.000000497 Eh
Total energy after final integration           :   -908.723632335 Eh
             **** ENERGY FILE WAS UPDATED (orca.en.tmp) ****

----------------
TOTAL SCF ENERGY
----------------

Total Energy       :       -908.72363233487613 Eh          -24727.62716 eV

Components:
Nuclear Repulsion  :       1466.68368536875005 Eh           39910.49209 eV
Electronic Energy  :      -2375.40731820055680 Eh          -64638.11927 eV
One Electron Energy:      -4150.53864063140645 Eh         -112941.89827 eV
Two Electron Energy:       1775.13132243084988 Eh           48303.77900 eV

Virial components:
Potential Energy   :      -1815.97684155656407 Eh          -49415.24208 eV
Kinetic Energy     :        907.25320922168783 Eh           24687.61492 eV
Virial Ratio       :          2.00162074170501

DFT components:
N(Alpha)           :       67.000065586078 electrons
N(Beta)            :       65.000059505043 electrons
N(Total)           :      132.000125091121 electrons
E(XC)              :      -86.504972131938 Eh       

---------------
SCF CONVERGENCE
---------------

  Last Energy change         ...    2.8870e-08  Tolerance :   1.0000e-08
  Last MAX-Density change    ...    3.9182e-04  Tolerance :   1.0000e-07
  Last RMS-Density change    ...    2.0396e-06  Tolerance :   5.0000e-09
  Last DIIS Error            ...    3.0331e-03  Tolerance :   5.0000e-07
  Last Orbital Gradient      ...    1.3166e-06  Tolerance :   1.0000e-05
  Last Orbital Rotation      ...    1.0362e-05  Tolerance :   1.0000e-05


----------------------
UHF SPIN CONTAMINATION
----------------------

Warning: in a DFT calculation there is little theoretical justification to 
         calculate <S**2> as in Hartree-Fock theory. We will do it anyways
         but you should keep in mind that the values have only limited relevance

Expectation value of <S**2>     :     2.009145
Ideal value S*(S+1) for S=1.0   :     2.000000
Deviation                       :     0.009145

----------------
ORBITAL ENERGIES
----------------
                 SPIN UP ORBITALS
  NO   OCC          E(Eh)            E(eV) 
   0   1.0000     -19.330995      -526.0231 
   1   1.0000     -19.317704      -525.6615 
   2   1.0000     -19.315004      -525.5880 
   3   1.0000     -19.314985      -525.5874 
   4   1.0000     -14.593375      -397.1059 
   5   1.0000     -14.574005      -396.5788 
   6   1.0000     -14.561763      -396.2457 
   7   1.0000     -14.553967      -396.0336 
   8   1.0000     -10.507441      -285.9220 
   9   1.0000     -10.499970      -285.7187 
  10   1.0000     -10.467322      -284.8303 
  11   1.0000     -10.454989      -284.4947 
  12   1.0000     -10.428395      -283.7711 
  13   1.0000     -10.401238      -283.0321 
  14   1.0000     -10.396279      -282.8971 
  15   1.0000     -10.372203      -282.2420 
  16   1.0000     -10.358193      -281.8608 
  17   1.0000     -10.352859      -281.7156 
  18   1.0000      -1.243128       -33.8272 
  19   1.0000      -1.228124       -33.4189 
  20   1.0000      -1.197517       -32.5861 
  21   1.0000      -1.194788       -32.5118 
  22   1.0000      -1.138706       -30.9858 
  23   1.0000      -1.123473       -30.5713 
  24   1.0000      -1.075224       -29.2583 
  25   1.0000      -1.072165       -29.1751 
  26   1.0000      -0.982961       -26.7477 
  27   1.0000      -0.961574       -26.1658 
  28   1.0000      -0.861167       -23.4335 
  29   1.0000      -0.851204       -23.1624 
  30   1.0000      -0.821096       -22.3432 
  31   1.0000      -0.814014       -22.1504 
  32   1.0000      -0.802775       -21.8446 
  33   1.0000      -0.795219       -21.6390 
  34   1.0000      -0.708789       -19.2871 
  35   1.0000      -0.703928       -19.1548 
  36   1.0000      -0.695812       -18.9340 
  37   1.0000      -0.694171       -18.8894 
  38   1.0000      -0.653220       -17.7750 
  39   1.0000      -0.639674       -17.4064 
  40   1.0000      -0.636503       -17.3201 
  41   1.0000      -0.607645       -16.5349 
  42   1.0000      -0.598521       -16.2866 
  43   1.0000      -0.592204       -16.1147 
  44   1.0000      -0.579444       -15.7675 
  45   1.0000      -0.574221       -15.6254 
  46   1.0000      -0.561996       -15.2927 
  47   1.0000      -0.554441       -15.0871 
  48   1.0000      -0.550585       -14.9822 
  49   1.0000      -0.548081       -14.9141 
  50   1.0000      -0.536648       -14.6029 
  51   1.0000      -0.532102       -14.4792 
  52   1.0000      -0.529299       -14.4030 
  53   1.0000      -0.514957       -14.0127 
  54   1.0000      -0.504403       -13.7255 
  55   1.0000      -0.496688       -13.5156 
  56   1.0000      -0.495581       -13.4854 
  57   1.0000      -0.471793       -12.8381 
  58   1.0000      -0.422887       -11.5073 
  59   1.0000      -0.412212       -11.2169 
  60   1.0000      -0.410134       -11.1603 
  61   1.0000      -0.398132       -10.8337 
  62   1.0000      -0.387759       -10.5515 
  63   1.0000      -0.384880       -10.4731 
  64   1.0000      -0.382018       -10.3952 
  65   1.0000      -0.340298        -9.2600 
  66   1.0000      -0.212883        -5.7929 
  67   0.0000       0.010485         0.2853 
  68   0.0000       0.021275         0.5789 
  69   0.0000       0.032569         0.8863 
  70   0.0000       0.038535         1.0486 
  71   0.0000       0.040182         1.0934 
  72   0.0000       0.056335         1.5330 
  73   0.0000       0.060091         1.6352 
  74   0.0000       0.063854         1.7376 
  75   0.0000       0.067382         1.8335 
  76   0.0000       0.069222         1.8836 
  77   0.0000       0.073349         1.9959 

                 SPIN DOWN ORBITALS
  NO   OCC          E(Eh)            E(eV) 
   0   1.0000     -19.328916      -525.9665 
   1   1.0000     -19.314943      -525.5863 
   2   1.0000     -19.314918      -525.5856 
   3   1.0000     -19.311986      -525.5058 
   4   1.0000     -14.589084      -396.9892 
   5   1.0000     -14.573890      -396.5757 
   6   1.0000     -14.561779      -396.2462 
   7   1.0000     -14.552975      -396.0066 
   8   1.0000     -10.507702      -285.9291 
   9   1.0000     -10.499980      -285.7190 
  10   1.0000     -10.467315      -284.8301 
  11   1.0000     -10.454654      -284.4856 
  12   1.0000     -10.428176      -283.7651 
  13   1.0000     -10.391766      -282.7743 
  14   1.0000     -10.385655      -282.6080 
  15   1.0000     -10.372257      -282.2435 
  16   1.0000     -10.358542      -281.8703 
  17   1.0000     -10.352759      -281.7129 
  18   1.0000      -1.238724       -33.7074 
  19   1.0000      -1.227907       -33.4130 
  20   1.0000      -1.194946       -32.5161 
  21   1.0000      -1.188807       -32.3491 
  22   1.0000      -1.128609       -30.7110 
  23   1.0000      -1.123208       -30.5641 
  24   1.0000      -1.072095       -29.1732 
  25   1.0000      -1.070018       -29.1167 
  26   1.0000      -0.963034       -26.2055 
  27   1.0000      -0.957882       -26.0653 
  28   1.0000      -0.851136       -23.1606 
  29   1.0000      -0.848134       -23.0789 
  30   1.0000      -0.814551       -22.1651 
  31   1.0000      -0.810679       -22.0597 
  32   1.0000      -0.796015       -21.6607 
  33   1.0000      -0.794926       -21.6310 
  34   1.0000      -0.697136       -18.9700 
  35   1.0000      -0.695887       -18.9361 
  36   1.0000      -0.695465       -18.9246 
  37   1.0000      -0.693817       -18.8797 
  38   1.0000      -0.642418       -17.4811 
  39   1.0000      -0.636138       -17.3102 
  40   1.0000      -0.633190       -17.2300 
  41   1.0000      -0.598935       -16.2979 
  42   1.0000      -0.591854       -16.1052 
  43   1.0000      -0.589657       -16.0454 
  44   1.0000      -0.567635       -15.4461 
  45   1.0000      -0.563085       -15.3223 
  46   1.0000      -0.559143       -15.2151 
  47   1.0000      -0.548690       -14.9306 
  48   1.0000      -0.546181       -14.8624 
  49   1.0000      -0.540372       -14.7043 
  50   1.0000      -0.529465       -14.4075 
  51   1.0000      -0.528431       -14.3793 
  52   1.0000      -0.519263       -14.1299 
  53   1.0000      -0.506516       -13.7830 
  54   1.0000      -0.498423       -13.5628 
  55   1.0000      -0.496131       -13.5004 
  56   1.0000      -0.470285       -12.7971 
  57   1.0000      -0.455690       -12.4000 
  58   1.0000      -0.418522       -11.3886 
  59   1.0000      -0.410223       -11.1627 
  60   1.0000      -0.398152       -10.8343 
  61   1.0000      -0.387089       -10.5332 
  62   1.0000      -0.382663       -10.4128 
  63   1.0000      -0.379503       -10.3268 
  64   1.0000      -0.339584        -9.2406 
  65   0.0000      -0.102957        -2.8016 
  66   0.0000       0.010222         0.2782 
  67   0.0000       0.023001         0.6259 
  68   0.0000       0.031231         0.8498 
  69   0.0000       0.037705         1.0260 
  70   0.0000       0.039435         1.0731 
  71   0.0000       0.054674         1.4877 
  72   0.0000       0.058394         1.5890 
  73   0.0000       0.062513         1.7011 
  74   0.0000       0.065279         1.7763 
  75   0.0000       0.067741         1.8433 
*Only the first 10 virtual orbitals were printed.

                    ********************************
                    * MULLIKEN POPULATION ANALYSIS *
                    ********************************

--------------------------------------------
MULLIKEN ATOMIC CHARGES AND SPIN POPULATIONS
--------------------------------------------
   0 O :   -0.678373    0.003848
   1 O :   -0.683475    0.214910
   2 O :   -0.654078    0.003227
   3 O :   -0.655895    0.076036
   4 N :   -0.032749    0.005934
   5 N :    0.016505    0.216823
   6 N :    0.042538    0.001013
   7 N :    0.023040    0.043275
   8 C :    1.017467    0.057814
   9 C :    0.935643    0.259982
  10 C :   -0.071015    0.006066
[...]
[1741444821.929559] [ohm:1900732:0]        ib_iface.c:1059 UCX  ERROR ibv_create_cq(cqe=256) failed: Connection timed out
[1741444821.929634] [ohm:1900770:0]        ib_iface.c:1059 UCX  ERROR ibv_create_cq(cqe=256) failed: Connection timed out
[1741444821.932629] [ohm:1900751:0]        ib_iface.c:1059 UCX  ERROR ibv_create_cq(cqe=256) failed: Connection timed out
[1741444821.933386] [ohm:1900788:0]        ib_iface.c:1059 UCX  ERROR ibv_create_cq(cqe=256) failed: Connection timed out
[1741444821.935299] [ohm:1900815:0]        ib_iface.c:1059 UCX  ERROR ibv_create_cq(cqe=256) failed: Connection timed out
[1741444821.941947] [ohm:1900790:0]        ib_iface.c:1059 UCX  ERROR ibv_create_cq(cqe=256) failed: Connection timed out
[1741444821.942471] [ohm:1900809:0]        ib_iface.c:1059 UCX  ERROR ibv_create_cq(cqe=256) failed: Connection timed out
[1741444821.943226] [ohm:1900798:0]        ib_iface.c:1059 UCX  ERROR ibv_create_cq(cqe=256) failed: Connection timed out
[1741444821.943891] [ohm:1900782:0]        ib_iface.c:1059 UCX  ERROR ibv_create_cq(cqe=256) failed: Connection timed out
[1741444821.950320] [ohm:1900776:0]        ib_iface.c:1059 UCX  ERROR ibv_create_cq(cqe=256) failed: Connection timed out


           ************************************************************
           *        Program running with 64 parallel MPI-processes    *
           *              working on a common directory               *
           ************************************************************

------------------------------------------------------------------------------
                              ORCA PROPERTY CALCULATIONS
------------------------------------------------------------------------------

GBWName                                 ... orca.gbw
Number of atoms                         ...     30
Number of basis functions               ...    882
Max core memory                         ...   1024 MB

Electric properties:
Dipole moment                           ... YES
Quadrupole moment                       ...  NO
Static polarizability (Dipole/Dipole)   ...  NO
Static polarizability (Dipole/Quad.)    ...  NO
Static polarizability (Quad./Quad.)     ...  NO
Static polarizability (Velocity)        ...  NO

Atomic electric properties:
Dipole moment                           ...  NO
Quadrupole moment                       ...  NO
Static polarizability                   ...  NO

Choice of electric origin               ... Center of mass
Position of electric origin             ...    -0.006136     0.008979     0.074366

General magnetic properties:
Magnetizability                         ...  NO

EPR properties:
g-Tensor (aka g-matrix)                 ...  NO
Zero-Field splitting spin-orbit         ...  NO
Zero-field splitting spin-spin          ...  NO
Hyperfine couplings                     ...  NO (   0 nuclei)
Quadrupole couplings                    ...  NO (   0 nuclei)
Contact density                         ...  NO (   0 nuclei)

NMR properties:
Chemical shifts                         ...  NO (   0 nuclei)
Spin-rotation constants                 ...  NO (   0 nuclei)
Spin-spin couplings                     ...  NO (   0 nuclei,    0 pairs)

Choice of magnetic origin               ... GIAO
Position of magnetic origin             ...     0.000000     0.000000     0.000000

Properties with geometric perturbations:
SCF Hessian                             ...  NO
IR spectrum                             ...  NO
VCD spectrum                            ...  NO
X-ray spectroscopy properties:
SCF XES/XAS/RIXS spectra                ...  NO


-------------
DIPOLE MOMENT
-------------

Method             : SCF
Type of density    : Electron Density
Multiplicity       :   3
Irrep              :   0
Energy             :  -908.7236323348761289 Eh
Relativity type    : 
Basis              : AO
                                X                 Y                 Z
Electronic contribution:     -2.794586984      -9.859677806      -6.046668179
Nuclear contribution   :      2.331816969      10.766792981       8.559271508
                        -----------------------------------------
Total Dipole Moment    :     -0.462770015       0.907115175       2.512603328
                        -----------------------------------------
Magnitude (a.u.)       :      2.711123294
Magnitude (Debye)      :      6.891127766



--------------------
Rotational spectrum 
--------------------
 
Rotational constants in cm-1:             0.017216             0.016668             0.013827 
Rotational constants in MHz :           516.113604           499.693223           414.521953 

Dipole components along the rotational axes: 
x,y,z [a.u.] :     0.966251     0.532376     2.476514 
x,y,z [Debye]:     2.456016     1.353192     6.294799 

 

-------------
DIPOLE MOMENT
-------------

Method             : TDA/CIS
Type of density    : Electron Density
Level              : Relaxed density
State              :   1
Multiplicity       :   3
Irrep              :   0
Energy             :     0.0000000000000000 Eh
Relativity type    : 
Basis              : AO
                                X                 Y                 Z
Electronic contribution:     -2.887586421      -9.952035271      -5.843602001
Nuclear contribution   :      2.331816969      10.766792981       8.559271508
                        -----------------------------------------
Total Dipole Moment    :     -0.555769452       0.814757710       2.715669507
                        -----------------------------------------
Magnitude (a.u.)       :      2.889216274
Magnitude (Debye)      :      7.343804147



--------------------
Rotational spectrum 
--------------------
 
Rotational constants in cm-1:             0.017216             0.016668             0.013827 
Rotational constants in MHz :           516.113604           499.693223           414.521953 

Dipole components along the rotational axes: 
x,y,z [a.u.] :     0.993953     0.408159     2.681983 
x,y,z [Debye]:     2.526429     1.037457     6.817059 

 

Dipole moment calculation done in   0.2 sec 

Maximum memory used throughout the entire PROP-calculation: 81.9 MB
[1741444825.134136] [ohm:1901030:0]        ib_iface.c:1059 UCX  ERROR ibv_create_cq(cqe=256) failed: Connection timed out
[1741444825.134147] [ohm:1901068:0]        ib_iface.c:1059 UCX  ERROR ibv_create_cq(cqe=256) failed: Connection timed out
[1741444825.142247] [ohm:1901026:0]        ib_iface.c:1059 UCX  ERROR ibv_create_cq(cqe=256) failed: Connection timed out
[1741444825.153665] [ohm:1901037:0]        ib_iface.c:1059 UCX  ERROR ibv_create_cq(cqe=256) failed: Connection timed out
[1741444825.158620] [ohm:1901058:0]        ib_iface.c:1059 UCX  ERROR ibv_create_cq(cqe=256) failed: Connection timed out
[1741444825.170235] [ohm:1901029:0]        ib_iface.c:1059 UCX  ERROR ibv_create_cq(cqe=256) failed: Connection timed out
[1741444825.171064] [ohm:1901027:0]        ib_iface.c:1059 UCX  ERROR ibv_create_cq(cqe=256) failed: Connection timed out
[1741444825.172801] [ohm:1901039:0]        ib_iface.c:1059 UCX  ERROR ibv_create_cq(cqe=256) failed: Connection timed out
[1741444825.172877] [ohm:1901025:0]        ib_iface.c:1059 UCX  ERROR ibv_create_cq(cqe=256) failed: Connection timed out
[1741444825.172923] [ohm:1901033:0]        ib_iface.c:1059 UCX  ERROR ibv_create_cq(cqe=256) failed: Connection timed out
[1741444825.173061] [ohm:1901032:0]        ib_iface.c:1059 UCX  ERROR ibv_create_cq(cqe=256) failed: Connection timed out
[1741444825.173124] [ohm:1901031:0]        ib_iface.c:1059 UCX  ERROR ibv_create_cq(cqe=256) failed: Connection timed out
[1741444825.173259] [ohm:1901083:0]        ib_iface.c:1059 UCX  ERROR ibv_create_cq(cqe=256) failed: Connection timed out
[1741444825.173656] [ohm:1901038:0]        ib_iface.c:1059 UCX  ERROR ibv_create_cq(cqe=256) failed: Connection timed out
[1741444825.214954] [ohm:1901086:0]        ib_iface.c:1059 UCX  ERROR ibv_create_cq(cqe=256) failed: Connection timed out
[1741444825.217712] [ohm:1901065:0]        ib_iface.c:1059 UCX  ERROR ibv_create_cq(cqe=256) failed: Connection timed out
[1741444825.220628] [ohm:1901036:0]        ib_iface.c:1059 UCX  ERROR ibv_create_cq(cqe=256) failed: Connection timed out
[1741444825.233934] [ohm:1901074:0]        ib_iface.c:1059 UCX  ERROR ibv_create_cq(cqe=256) failed: Connection timed out
[1741444825.246175] [ohm:1901055:0]        ib_iface.c:1059 UCX  ERROR ibv_create_cq(cqe=256) failed: Connection timed out
[1741444825.249398] [ohm:1901169:0]        ib_iface.c:1059 UCX  ERROR ibv_create_cq(cqe=256) failed: Connection timed out
[1741444825.250421] [ohm:1901141:0]        ib_iface.c:1059 UCX  ERROR ibv_create_cq(cqe=256) failed: Connection timed out
[1741444825.251666] [ohm:1901028:0]        ib_iface.c:1059 UCX  ERROR ibv_create_cq(cqe=256) failed: Connection timed out
[1741444825.254254] [ohm:1901061:0]        ib_iface.c:1059 UCX  ERROR ibv_create_cq(cqe=256) failed: Connection timed out
[1741444825.261404] [ohm:1901054:0]        ib_iface.c:1059 UCX  ERROR ibv_create_cq(cqe=256) failed: Connection timed out
[1741444825.267949] [ohm:1901052:0]        ib_iface.c:1059 UCX  ERROR ibv_create_cq(cqe=256) failed: Connection timed out
[1741444825.272586] [ohm:1901158:0]        ib_iface.c:1059 UCX  ERROR ibv_create_cq(cqe=256) failed: Connection timed out
[1741444825.272708] [ohm:1901102:0]        ib_iface.c:1059 UCX  ERROR ibv_create_cq(cqe=256) failed: Connection timed out
[1741444825.282368] [ohm:1901092:0]        ib_iface.c:1059 UCX  ERROR ibv_create_cq(cqe=256) failed: Connection timed out
[1741444825.285464] [ohm:1901034:0]        ib_iface.c:1059 UCX  ERROR ibv_create_cq(cqe=256) failed: Connection timed out
[1741444825.313243] [ohm:1901113:0]        ib_iface.c:1059 UCX  ERROR ibv_create_cq(cqe=256) failed: Connection timed out
[1741444825.317585] [ohm:1901137:0]        ib_iface.c:1059 UCX  ERROR ibv_create_cq(cqe=256) failed: Connection timed out
[1741444825.320125] [ohm:1901116:0]        ib_iface.c:1059 UCX  ERROR ibv_create_cq(cqe=256) failed: Connection timed out
[1741444825.341112] [ohm:1901087:0]        ib_iface.c:1059 UCX  ERROR ibv_create_cq(cqe=256) failed: Connection timed out
[1741444825.346401] [ohm:1901084:0]        ib_iface.c:1059 UCX  ERROR ibv_create_cq(cqe=256) failed: Connection timed out
[1741444825.350789] [ohm:1901179:0]        ib_iface.c:1059 UCX  ERROR ibv_create_cq(cqe=256) failed: Connection timed out
[1741444825.351691] [ohm:1901082:0]        ib_iface.c:1059 UCX  ERROR ibv_create_cq(cqe=256) failed: Connection timed out
[1741444825.369478] [ohm:1901104:0]        ib_iface.c:1059 UCX  ERROR ibv_create_cq(cqe=256) failed: Connection timed out
[1741444825.375129] [ohm:1901111:0]        ib_iface.c:1059 UCX  ERROR ibv_create_cq(cqe=256) failed: Connection timed out
[1741444825.396549] [ohm:1901095:0]        ib_iface.c:1059 UCX  ERROR ibv_create_cq(cqe=256) failed: Connection timed out
[1741444825.397400] [ohm:1901053:0]        ib_iface.c:1059 UCX  ERROR ibv_create_cq(cqe=256) failed: Connection timed out
[1741444825.402628] [ohm:1901089:0]        ib_iface.c:1059 UCX  ERROR ibv_create_cq(cqe=256) failed: Connection timed out
[1741444825.403707] [ohm:1901174:0]        ib_iface.c:1059 UCX  ERROR ibv_create_cq(cqe=256) failed: Connection timed out
[1741444825.404341] [ohm:1901110:0]        ib_iface.c:1059 UCX  ERROR ibv_create_cq(cqe=256) failed: Connection timed out
[1741444825.407572] [ohm:1901165:0]        ib_iface.c:1059 UCX  ERROR ibv_create_cq(cqe=256) failed: Connection timed out
[1741444825.409678] [ohm:1901080:0]        ib_iface.c:1059 UCX  ERROR ibv_create_cq(cqe=256) failed: Connection timed out
[1741444825.410835] [ohm:1901070:0]        ib_iface.c:1059 UCX  ERROR ibv_create_cq(cqe=256) failed: Connection timed out
[1741444825.414958] [ohm:1901078:0]        ib_iface.c:1059 UCX  ERROR ibv_create_cq(cqe=256) failed: Connection timed out
[1741444825.418276] [ohm:1901123:0]        ib_iface.c:1059 UCX  ERROR ibv_create_cq(cqe=256) failed: Connection timed out
[1741444825.422171] [ohm:1901172:0]        ib_iface.c:1059 UCX  ERROR ibv_create_cq(cqe=256) failed: Connection timed out
[1741444825.423264] [ohm:1901175:0]        ib_iface.c:1059 UCX  ERROR ibv_create_cq(cqe=256) failed: Connection timed out
[1741444825.428205] [ohm:1901122:0]        ib_iface.c:1059 UCX  ERROR ibv_create_cq(cqe=256) failed: Connection timed out
[1741444825.428624] [ohm:1901135:0]        ib_iface.c:1059 UCX  ERROR ibv_create_cq(cqe=256) failed: Connection timed out
[1741444825.428768] [ohm:1901106:0]        ib_iface.c:1059 UCX  ERROR ibv_create_cq(cqe=256) failed: Connection timed out
[1741444825.428875] [ohm:1901166:0]        ib_iface.c:1059 UCX  ERROR ibv_create_cq(cqe=256) failed: Connection timed out
[1741444825.436762] [ohm:1901129:0]        ib_iface.c:1059 UCX  ERROR ibv_create_cq(cqe=256) failed: Connection timed out
[1741444825.439445] [ohm:1901152:0]        ib_iface.c:1059 UCX  ERROR ibv_create_cq(cqe=256) failed: Connection timed out
[1741444825.444177] [ohm:1901155:0]        ib_iface.c:1059 UCX  ERROR ibv_create_cq(cqe=256) failed: Connection timed out
[1741444825.444600] [ohm:1901099:0]        ib_iface.c:1059 UCX  ERROR ibv_create_cq(cqe=256) failed: Connection timed out
[1741444825.445752] [ohm:1901063:0]        ib_iface.c:1059 UCX  ERROR ibv_create_cq(cqe=256) failed: Connection timed out
[1741444825.449263] [ohm:1901088:0]        ib_iface.c:1059 UCX  ERROR ibv_create_cq(cqe=256) failed: Connection timed out
[1741444825.459202] [ohm:1901146:0]        ib_iface.c:1059 UCX  ERROR ibv_create_cq(cqe=256) failed: Connection timed out
[1741444825.464029] [ohm:1901035:0]        ib_iface.c:1059 UCX  ERROR ibv_create_cq(cqe=256) failed: Connection timed out
[1741444825.471421] [ohm:1901154:0]        ib_iface.c:1059 UCX  ERROR ibv_create_cq(cqe=256) failed: Connection timed out
[1741444825.472340] [ohm:1901132:0]        ib_iface.c:1059 UCX  ERROR ibv_create_cq(cqe=256) failed: Connection timed out

--------------------------------
SUGGESTED CITATIONS FOR THIS RUN
--------------------------------

Below you find a list of papers that are relevant to this ORCA run
We neither can nor want to force you to cite these papers, but we appreciate if you do
You receive ORCA, which is the product of decades of hard work by many enthusiastic individuals, for free
The only thing we kindly ask in return is that you cite our papers,
We deeply appreciate it, if you show your appreciation for ORCA by not just citing the generic ORCA reference.

Please note that relegating all ORCA citations to the supporting information does *not* help us.
SI sections are not indexed - citations you put there will not count into any citation statistics
But we need these citations in order to attract the funding resources that allow us to do what we are doing

Therefore, if you are a happy ORCA user, please consider citing a few of the papers listed below in the main body of your paper

In addition to the list printed below, the program has created the file orca.bibtex that contains the list in bibtex format
You can import this file easily into all common literature databanks and citation aid programs


List of essential papers. We consider these as the minimum necessary citations

  1. Neese,F.
     Software update: the ORCA program system, version 5.0
     WIRES Comput. Molec. Sci., 2022 12(1)e1606
     doi.org/10.1002/wcms.1606

List of papers to cite with high priority. The work reported in these papers was absolutely
necessary for this run to complete.
Our perspective: the developers of density functionals and basis sets usually get cited in chemistry papers
Good! But without the algorithms to do something with them, the functionals or basis sets would not do anything.
Hence, in our opinion, the algorithm design and method developments papers are equally worthy of getting cited

  1. Neese,F.; Olbrich,G.
     Efficient use of the resolution of the identity approximation in time-dependent density functional calculations with hybrid density functionals
     Chem. Phys. Lett., 2002 362 170-178
     doi.org/10.1016/s0009-2614(02)01053-9
  2. Neese,F.
     An improvement of the resolution of the identity approximation for the formation of the Coulomb matrix
     J. Comp. Chem., 2003 24(14)1740-1747
     doi.org/10.1002/jcc.10318
  3. Neese,F.; Wennmohs,F.; Hansen,A.; Becker,U.
     Efficient, approximate and parallel Hartree-Fock and hybrid DFT calculations. A 'chain-of-spheres' algorithm for the Hartree-Fock exchange
     Chem. Phys., 2009 356(1-3)98-109
     doi.org/10.1016/j.chemphys.2008.10.036
  4. Petrenko,T.; Kossmann,S.; Neese,F.
     Efficient time-dependent density functional theory approximations for hybrid density functionals: Analytical gradients and parallelization
     J. Chem. Phys., 2011 134 054116
     doi.org/10.1063/1.3533441
  5. Helmich-Paris,B.; de Souza,B.; Neese,F.; Izsák,R.
     An improved chain of spheres for exchange algorithm
     J. Chem. Phys., 2021 155 104109
     doi.org/doi: 10.1063/5.0058766.
  6. Neese,F.
     The SHARK Integral Generation and Digestion System
     J. Comp. Chem., 2022  1-16
     doi.org/10.1002/jcc.26942
  7. Lehtola,S.; Steigemann,C.; Oliveira,M.; Marques,M.
     Recent developments in Libxc - A comprehensive library of functionals for density functional theory
     Software X, 2018 7 
     doi.org/10.1016/j.softx.2017.11.002
  8. Grimme,S.; Antony,J.; Ehrlich,S.; Krieg,H.
     A consistent and accurate ab initio parametrization of density functional dispersion correction (DFT-D) for the 94 elements H-Pu
     J. Chem. Phys., 2010 132 154104-XXXX
     doi.org/10.1063/1.3382344
  9. Grimme,S.; Ehrlich,S.; Goerigk,L.
     Effect of the damping function in dispersion corrected density functional theory
     J. Comput. Chem., 2011 32(7)1456-1465
     doi.org/10.1002/jcc.21759

List of suggested additional citations. These are papers that are important in the 'surrounding' of 
of this run, or papers that preceded the highly important papers. If you like your results we are grateful for a citation.

  1. Izsak,R.; Neese,F.
     An overlap fitted chain of spheres exchange method
     J. Chem. Phys., 2011 135 144105
     doi.org/10.1063/1.3646921
  2. Izsak,R.; Hansen,A.; Neese,F.
     The resolution of identity and chain of spheres approximations for the LPNO-CCSD singles Fock term
     Molec. Phys., 2012 110 2413-2417
     doi.org/10.1080/00268976.2012.687466
  3. Neese,F.
     The ORCA program system
     WIRES Comput. Molec. Sci., 2012 2(1)73-78
     doi.org/10.1002/wcms.81
  4. Izsak,R.; Neese,F.; Klopper,W.
     Robust fitting techniques in the chain of spheres approximation to the Fock exchange: The role of the complementary space
     J. Chem. Phys., 2013 139 
     doi.org/10.1063/1.4819264
  5. Neese,F.
     Software update: the ORCA program system, version 4.0
     WIRES Comput. Molec. Sci., 2018 8(1)1-6
     doi.org/10.1002/wcms.1327
  6. Neese,F.; Wennmohs,F.; Becker,U.; Riplinger,C.
     The ORCA quantum chemistry program package
     J. Chem. Phys., 2020 152 Art. No. L224108
     doi.org/10.1063/5.0004608

List of optional additional citations

  1. Neese,F.
     Approximate second-order SCF convergence for spin unrestricted wavefunctions
     Chem. Phys. Lett., 2000 325(1-3)93-98
     doi.org/10.1016/s0009-2614(00)00662-x

Timings for individual modules:

Sum of individual times          ...      374.735 sec (=   6.246 min)
Startup calculation              ...        6.436 sec (=   0.107 min)   1.7 %
SCF iterations                   ...      165.186 sec (=   2.753 min)  44.1 %
Property integrals               ...        4.128 sec (=   0.069 min)   1.1 %
Property calculations            ...        3.566 sec (=   0.059 min)   1.0 %
CIS module                       ...      195.420 sec (=   3.257 min)  52.1 %
                             ****ORCA TERMINATED NORMALLY****
TOTAL RUN TIME: 0 days 0 hours 6 minutes 17 seconds 285 msec
