
                                 *****************
                                 * O   R   C   A *
                                 *****************

                                            #,                                       
                                            ###                                      
                                            ####                                     
                                            #####                                    
                                            ######                                   
                                           ########,                                 
                                     ,,################,,,,,                         
                               ,,#################################,,                 
                          ,,##########################################,,             
                       ,#########################################, ''#####,          
                    ,#############################################,,   '####,        
                  ,##################################################,,,,####,       
                ,###########''''           ''''###############################       
              ,#####''   ,,,,##########,,,,          '''####'''          '####       
            ,##' ,,,,###########################,,,                        '##       
           ' ,,###''''                  '''############,,,                           
         ,,##''                                '''############,,,,        ,,,,,,###''
      ,#''                                            '''#######################'''  
     '                                                          ''''####''''         
             ,#######,   #######,   ,#######,      ##                                
            ,#'     '#,  ##    ##  ,#'     '#,    #''#        ,####,   ,####,        
            ##       ##  ##   ,#'  ##            #'  '#       #'       #'  '#        
            ##       ##  #######   ##           ,######,      #####,   #    #        
            '#,     ,#'  ##    ##  '#,     ,#' ,#      #,     #,   #   #,  ,#        
             '#######'   ##     ##  '#######'  #'      '#     '####' # '####'        



                #########################################################
                #                        -***-                          #
                #          Department of theory and spectroscopy        #
                #                                                       #
                #                      Frank Neese                      #
                #                                                       #
                #     Directorship, Architecture, Infrastructure        #
                #                    SHARK, DRIVERS                     #
                #        Core code/Algorithms in most modules           #
                #                                                       #
                #        Max Planck Institute fuer Kohlenforschung      #
                #                Kaiser Wilhelm Platz 1                 #
                #                 D-45470 Muelheim/Ruhr                 #
                #                      Germany                          #
                #                                                       #
                #                  All rights reserved                  #
                #                        -***-                          #
                #########################################################


                         Program Version 6.0.0  -   RELEASE  -


 With contributions from (in alphabetic order):
   Daniel Aravena         : Magnetic Suceptibility
   Michael Atanasov       : Ab Initio Ligand Field Theory (pilot matlab implementation)
   Alexander A. Auer      : GIAO ZORA, VPT2 properties, NMR spectrum
   Ute Becker             : All parallelization in ORCA, NUMFREQ, NUMCALC
   Giovanni Bistoni       : ED, misc. LED, open-shell LED, HFLD
   Martin Brehm           : Molecular dynamics
   Dmytro Bykov           : pre 5.0 version of the SCF Hessian
   Marcos Casanova-Páez   : Triplet and SCS-CIS(D). UHF-(DLPNO)-IP/EA/STEOM-CCSD. UHF-CVS-IP/STEOM-CCSD
   Vijay G. Chilkuri      : MRCI spin determinant printing, contributions to CSF-ICE
   Pauline Colinet        : FMM embedding
   Dipayan Datta          : RHF DLPNO-CCSD density
   Achintya Kumar Dutta   : EOM-CC, STEOM-CC
   Nicolas Foglia         : Exact transition moments, OPA infrastructure, MCD improvements
   Dmitry Ganyushin       : Spin-Orbit,Spin-Spin,Magnetic field MRCI
   Miquel Garcia          : C-PCM and meta-GGA Hessian, CCSD/C-PCM, Gaussian charge scheme
   Tiago L. C. Gouveia    : GS-ROHF, GS-ROCIS
   Yang Guo               : DLPNO-NEVPT2, F12-NEVPT2, CIM, IAO-localization
   Andreas Hansen         : Spin unrestricted coupled pair/coupled cluster methods
   Ingolf Harden          : AUTO-CI MPn and infrastructure 
   Benjamin Helmich-Paris : MC-RPA, TRAH-(SCF,CASSCF), AVAS, COSX integrals, SCF dyn. polar.
   Lee Huntington         : MR-EOM, pCC
   Robert Izsak           : Overlap fitted RIJCOSX, COSX-SCS-MP3, EOM
   Riya Kayal             : Wick's Theorem for AUTO-CI, AUTO-CI UHF-CCSDT
   Emily Kempfer          : AUTO-CI, RHF CISDT and CCSDT
   Christian Kollmar      : KDIIS, OOCD, Brueckner-CCSD(T), CCSD density, CASPT2, CASPT2-K, improved NEVPT2
   Axel Koslowski         : Symmetry handling
   Simone Kossmann        : Meta GGA functionals, TD-DFT gradient, OOMP2, (MP2 Hessian; deprecated post 5.0)
   Lucas Lang             : DCDCAS
   Marvin Lechner         : AUTO-CI (C++ implementation), FIC-MRCC
   Spencer Leger          : CASSCF response
   Dagmar Lenk            : GEPOL surface, SMD, ORCA-2-JSON
   Dimitrios Liakos       : Extrapolation schemes; Compound Job, initial MDCI parallelization
   Dimitrios Manganas     : Further ROCIS development; embedding schemes. LFT, Crystal Embedding
   Dimitrios Pantazis     : SARC Basis sets
   Anastasios Papadopoulos: AUTO-CI, single reference methods and gradients
   Taras Petrenko         : pre 6.0 DFT Hessian and TD-DFT gradient, (ASA, deprecated), ECA, 1-Electron XAS/XES, NRVS
   Peter Pinski           : DLPNO-MP2, DLPNO-MP2 Gradient
   Christoph Reimann      : Effective Core Potentials
   Marius Retegan         : Local ZFS, SOC
   Christoph Riplinger    : Optimizer, TS searches, QM/MM, DLPNO-CCSD(T), (RO)-DLPNO pert. Triples
   Michael Roemelt        : Original ROCIS implementation
   Masaaki Saitow         : Open-shell DLPNO-CCSD energy and density
   Barbara Sandhoefer     : DKH picture change effects
   Kantharuban Sivalingam : CASSCF convergence/infrastructure, NEVPT2 and variants, FIC-MRCI
   Bernardo de Souza      : ESD, SOC TD-DFT
   Georgi Stoychev        : AutoAux, RI-MP2 NMR, DLPNO-MP2 response, X2C
   Van Anh Tran           : RI-MP2 g-tensors
   Willem Van den Heuvel  : Paramagnetic NMR
   Zikuan Wang            : NOTCH, Electric field optimization 
   Frank Wennmohs         : Technical directorship and infrastructure
   Hang Xu                : AUTO-CI-Response properties 


 We gratefully acknowledge several colleagues who have allowed us to
 interface, adapt or use parts of their codes:
   Stefan Grimme, W. Hujo, H. Kruse, P. Pracht,  : VdW corrections, initial TS optimization,
                  C. Bannwarth, S. Ehlert,         DFT functionals, gCP, sTDA/sTD-DF
                  L. Wittmann, M. Mueller
   Ed Valeev, F. Pavosevic, A. Kumar             : LibInt (2-el integral package), F12 methods
   Garnet Chan, S. Sharma, J. Yang, R. Olivares  : DMRG
   Ulf Ekstrom                                   : XCFun DFT Library
   Mihaly Kallay                                 : mrcc  (arbitrary order and MRCC methods)
   Frank Weinhold                                : gennbo (NPA and NBO analysis)
   Simon Mueller                                 : openCOSMO-RS
   Christopher J. Cramer and Donald G. Truhlar   : smd solvation model
   Lars Goerigk                                  : TD-DFT with DH, B97 family of functionals
   V. Asgeirsson, H. Jonsson                     : NEB implementation
   FAccTs GmbH                                   : IRC, NEB, NEB-TS, DLPNO-Multilevel, CI-OPT
                                                   MM, QMMM, 2- and 3-layer-ONIOM, Crystal-QMMM,
                                                   LR-CPCM, SF, NACMEs, symmetry and pop. for TD-DFT,
                                                   nearIR, NL-DFT gradient (VV10), updates on ESD,
                                                   ML-optimized integration grids, MBIS, APM,
                                                   GOAT, DOCKER, SOLVATOR, interface openCOSMO-RS
   S Lehtola, MJT Oliveira, MAL Marques          : LibXC Library
   Liviu Ungur et al                             : ANISO software


 Your calculation uses the libint2 library for the computation of 2-el integrals
 For citations please refer to: http://libint.valeyev.net

 Your ORCA version has been built with support for libXC version: 6.2.2
 For citations please refer to: https://libxc.gitlab.io

 This ORCA versions uses:
   CBLAS   interface :  Fast vector & matrix operations
   LAPACKE interface :  Fast linear algebra routines
   SCALAPACK package :  Parallel linear algebra routines
   Shared memory     :  Shared parallel matrices
   BLAS/LAPACK       :  OpenBLAS 0.3.27  USE64BITINT DYNAMIC_ARCH NO_AFFINITY Zen SINGLE_THREADED
        Core in use  :  Zen
   Copyright (c) 2011-2014, The OpenBLAS Project


Your calculation utilizes the atom-pairwise dispersion correction
with the Becke-Johnson damping scheme (D3BJ)


Warning: RI is on but no J-basis has been assigned. Assigning Def2/J (nothing to worry about!)
================================================================================

----- Orbital basis set information -----
Your calculation utilizes the basis: def2-TZVPPD
   F. Weigend and R. Ahlrichs, Phys. Chem. Chem. Phys. 7, 3297 (2005).
   D. Rappoport and F. Furche, J. Chem. Phys. 133, 134105 (2010)
   D. Rappoport, J. Chem. Phys. 155, 124102 (2021).

----- AuxJ basis set information -----
Your calculation utilizes the auxiliary basis: def2/J
   F. Weigend, Phys. Chem. Chem. Phys. 8, 1057 (2006).

================================================================================
                                        WARNINGS
                       Please study these warnings very carefully!
================================================================================

Using LibXC functional ID 531 : wB97M-V exchange-correlation functional
[ 1]  N. Mardirossian and M. Head-Gordon.,  J. Chem. Phys. 144, 214110 (2016)
Using LibXC functional ID 531 : wB97M-V exchange-correlation functional
[ 1]  N. Mardirossian and M. Head-Gordon.,  J. Chem. Phys. 144, 214110 (2016)

WARNING: B97M-V or wB97M-V functional requested.
  ===> : libXC variant has now been activated.
         Any manually given DFX/HFX/RangeSep scaling parameters are IGNORED!

Your calculation utilizes LibXC
 by S Lehtola, C Steigemann, MJT Oliveira & MAL Marques
Please cite in your paper:
 S Lehtola, C Steigemann, MJT Oliveira & MAL Marques, SoftwareX, 7, (2018), 1.
   


WARNING: your system is open-shell and RHF/RKS was chosen
  ===> : WILL SWITCH to UHF/UKS

INFO   : Checking CIS options ...

WARNING: CIS/ROCIS methods need fully converged wavefunctions
  ===> : Setting SCFConvForced true
         You can overwrite this default with %scf ConvForced false 


================================================================================
                                       INPUT FILE
================================================================================
NAME = orca.inp
|  1> ! EnGrad wB97M-D3BJ def2-TZVPPD 
|  2> %pal nprocs 8 end%pal nprocs 16 end 
|  3> %tddft 
|  4>  sf true 
|  5>  nroots 2 Iroot 2 end 
|  6> *xyz 0 3 
|  7> O   0.49431985671645 1.09692239228989 -0.00250852246792
|  8> C   0.60172921163147 -0.23942271194348 -0.00045474753711
|  9> C   -0.75040551220503 -0.75734514760562 0.00112991051326
| 10> H   1.14811907960449 -0.61902503256131 0.87854045605398
| 11> H   1.14645831311969 -0.6217774420315 -0.87931041580561
| 12> H   -1.3191496384691 -0.79131455334272 -0.92036500931963
| 13> H   -1.31887131039797 -0.78643750480525 0.92296832856301
| 14> *
| 15> 
| 16>                          ****END OF INPUT****
================================================================================

                     *******************************
                     * Energy+Gradient Calculation *
                     *******************************

---------------------------------
CARTESIAN COORDINATES (ANGSTROEM)
---------------------------------
  O      0.494320    1.096922   -0.002509
  C      0.601729   -0.239423   -0.000455
  C     -0.750406   -0.757345    0.001130
  H      1.148119   -0.619025    0.878540
  H      1.146458   -0.621777   -0.879310
  H     -1.319150   -0.791315   -0.920365
  H     -1.318871   -0.786438    0.922968

----------------------------
CARTESIAN COORDINATES (A.U.)
----------------------------
  NO LB      ZA    FRAG     MASS         X           Y           Z
   0 O     8.0000    0    15.999    0.934129    2.072883   -0.004740
   1 C     6.0000    0    12.011    1.137103   -0.452443   -0.000859
   2 C     6.0000    0    12.011   -1.418061   -1.431175    0.002135
   3 H     1.0000    0     1.008    2.169631   -1.169788    1.660201
   4 H     1.0000    0     1.008    2.166492   -1.174989   -1.661656
   5 H     1.0000    0     1.008   -2.492832   -1.495368   -1.739238
   6 H     1.0000    0     1.008   -2.492306   -1.486152    1.744157

--------------------------------
INTERNAL COORDINATES (ANGSTROEM)
--------------------------------
 O      0   0   0     0.000000000000     0.00000000     0.00000000
 C      1   0   0     1.340656266581     0.00000000     0.00000000
 C      2   1   0     1.447934553738   106.36364033     0.00000000
 H      2   1   3     1.102393930307   112.59203208   239.69311456
 H      2   1   3     1.102412000695   112.58700400   120.26198776
 H      3   2   1     1.083409751186   120.03369212    79.37783588
 H      3   2   1     1.083413955031   120.03435603   280.75299752

---------------------------
INTERNAL COORDINATES (A.U.)
---------------------------
 O      0   0   0     0.000000000000     0.00000000     0.00000000
 C      1   0   0     2.533473183564     0.00000000     0.00000000
 C      2   1   0     2.736199766406   106.36364033     0.00000000
 H      2   1   3     2.083222619978   112.59203208   239.69311456
 H      2   1   3     2.083256768062   112.58700400   120.26198776
 H      3   2   1     2.047347720560   120.03369212    79.37783588
 H      3   2   1     2.047355664676   120.03435603   280.75299752

---------------------
BASIS SET INFORMATION
---------------------
There are 3 groups of distinct atoms

 Group   1 Type O   : 12s7p3d1f contracted to 6s4p3d1f pattern {621111/4111/111/1}
 Group   2 Type C   : 12s6p3d1f contracted to 6s3p3d1f pattern {621111/411/111/1}
 Group   3 Type H   : 5s3p1d contracted to 3s3p1d pattern {311/111/1}

Atom   0O    basis set group =>   1
Atom   1C    basis set group =>   2
Atom   2C    basis set group =>   2
Atom   3H    basis set group =>   3
Atom   4H    basis set group =>   3
Atom   5H    basis set group =>   3
Atom   6H    basis set group =>   3
---------------------------------
AUXILIARY/J BASIS SET INFORMATION
---------------------------------
There are 3 groups of distinct atoms

 Group   1 Type O   : 12s5p4d2f1g contracted to 6s4p3d1f1g pattern {711111/2111/211/2/1}
 Group   2 Type C   : 12s5p4d2f1g contracted to 6s4p3d1f1g pattern {711111/2111/211/2/1}
 Group   3 Type H   : 5s2p1d contracted to 3s1p1d pattern {311/2/1}

Atom   0O    basis set group =>   1
Atom   1C    basis set group =>   2
Atom   2C    basis set group =>   2
Atom   3H    basis set group =>   3
Atom   4H    basis set group =>   3
Atom   5H    basis set group =>   3
Atom   6H    basis set group =>   3
[1740999999.715545] [ohm:3228221:0]        ib_iface.c:1059 UCX  ERROR ibv_create_cq(cqe=256) failed: Connection timed out
[1740999999.716003] [ohm:3228219:0]        ib_iface.c:1059 UCX  ERROR ibv_create_cq(cqe=256) failed: Connection timed out
[1740999999.716017] [ohm:3228223:0]        ib_iface.c:1059 UCX  ERROR ibv_create_cq(cqe=256) failed: Connection timed out
[1740999999.716088] [ohm:3228226:0]        ib_iface.c:1059 UCX  ERROR ibv_create_cq(cqe=256) failed: Connection timed out
[1740999999.718940] [ohm:3228217:0]        ib_iface.c:1059 UCX  ERROR ibv_create_cq(cqe=256) failed: Connection timed out
[1740999999.735440] [ohm:3228229:0]        ib_iface.c:1059 UCX  ERROR ibv_create_cq(cqe=256) failed: Connection timed out
[1740999999.735705] [ohm:3228237:0]        ib_iface.c:1059 UCX  ERROR ibv_create_cq(cqe=256) failed: Connection timed out
[1740999999.737882] [ohm:3228216:0]        ib_iface.c:1059 UCX  ERROR ibv_create_cq(cqe=256) failed: Connection timed out
[1740999999.737909] [ohm:3228220:0]        ib_iface.c:1059 UCX  ERROR ibv_create_cq(cqe=256) failed: Connection timed out
[1740999999.738193] [ohm:3228232:0]        ib_iface.c:1059 UCX  ERROR ibv_create_cq(cqe=256) failed: Connection timed out
[1740999999.738180] [ohm:3228222:0]        ib_iface.c:1059 UCX  ERROR ibv_create_cq(cqe=256) failed: Connection timed out
[1740999999.738256] [ohm:3228228:0]        ib_iface.c:1059 UCX  ERROR ibv_create_cq(cqe=256) failed: Connection timed out
[1740999999.738320] [ohm:3228224:0]        ib_iface.c:1059 UCX  ERROR ibv_create_cq(cqe=256) failed: Connection timed out
[1740999999.738549] [ohm:3228242:0]        ib_iface.c:1059 UCX  ERROR ibv_create_cq(cqe=256) failed: Connection timed out
[1740999999.739065] [ohm:3228218:0]        ib_iface.c:1059 UCX  ERROR ibv_create_cq(cqe=256) failed: Connection timed out
[1740999999.743464] [ohm:3228245:0]        ib_iface.c:1059 UCX  ERROR ibv_create_cq(cqe=256) failed: Connection timed out


           ************************************************************
           *        Program running with 16 parallel MPI-processes    *
           *              working on a common directory               *
           ************************************************************
------------------------------------------------------------------------------
                             ORCA STARTUP CALCULATIONS
                           -- RI-GTO INTEGRALS CHOSEN --
------------------------------------------------------------------------------
------------------------------------------------------------------------------
                   ___                                                        
                  /   \      - P O W E R E D   B Y -                         
                 /     \                                                     
                 |  |  |   _    _      __       _____    __    __             
                 |  |  |  | |  | |    /  \     |  _  \  |  |  /  |          
                  \  \/   | |  | |   /    \    | | | |  |  | /  /          
                 / \  \   | |__| |  /  /\  \   | |_| |  |  |/  /          
                |  |  |   |  __  | /  /__\  \  |    /   |      \           
                |  |  |   | |  | | |   __   |  |    \   |  |\   \          
                \     /   | |  | | |  |  |  |  | |\  \  |  | \   \       
                 \___/    |_|  |_| |__|  |__|  |_| \__\ |__|  \__/        
                                                                              
                      - O R C A' S   B I G   F R I E N D -                    
                                      &                                       
                       - I N T E G R A L  F E E D E R -                       
                                                                              
 v1 FN, 2020, v2 2021, v3 2022-2024                                           
------------------------------------------------------------------------------


----------------------
SHARK INTEGRAL PACKAGE
----------------------

Number of atoms                             ...      7
Number of basis functions                   ...    182
Number of shells                            ...     68
Maximum angular momentum                    ...      3
Integral batch strategy                     ... SHARK/LIBINT Hybrid
RI-J (if used) integral strategy            ... SPLIT-RIJ (Revised 2003 algorithm where possible)
Printlevel                                  ...      1
Contraction scheme used                     ... SEGMENTED contraction
Prescreening option                         ... SCHWARTZ
   Thresh                                   ... 2.500e-11
   Tcut                                     ... 2.500e-12
   Tpresel                                  ... 2.500e-12 
Coulomb Range Separation                    ... NOT USED
Exchange Range Separation                   ... Long Range
   Mu parameter                             ... 3.000e-01
   Scaling (regular/separated)              ... 1.500e-01 8.500e-01
Multipole approximations                    ... NOT USED
Finite Nucleus Model                        ... NOT USED
CABS basis                                  ... NOT available
Auxiliary Coulomb fitting basis             ... AVAILABLE
   # of basis functions in Aux-J            ...    191
   # of shells in Aux-J                     ...     65
   Maximum angular momentum in Aux-J        ...      4
Auxiliary J/K fitting basis                 ... NOT available
Auxiliary Correlation fitting basis         ... NOT available
Auxiliary 'external' fitting basis          ... NOT available

Checking pre-screening integrals            ... done (  0.0 sec) Dimension = 68
Check shell pair data                       ... done (  0.0 sec)
Shell pair information
Shell pair cut-off parameter TPreSel        ...   2.5e-12
Total number of shell pairs                 ...      2346
Shell pairs after pre-screening             ...      2331
Total number of primitive shell pairs       ...      5434
Primitive shell pairs kept                  ...      4851
          la=0 lb=0:    455 shell pairs
          la=1 lb=0:    656 shell pairs
          la=1 lb=1:    253 shell pairs
          la=2 lb=0:    389 shell pairs
          la=2 lb=1:    286 shell pairs
          la=2 lb=2:     91 shell pairs
          la=3 lb=0:     90 shell pairs
          la=3 lb=1:     66 shell pairs
          la=3 lb=2:     39 shell pairs
          la=3 lb=3:      6 shell pairs

Calculating one electron integrals          ... done (  0.0 sec)
Calculating RI/J V-Matrix + Cholesky decomp.... done (  0.0 sec)
Calculating Nuclear repulsion               ... done (  0.0 sec) ENN=     69.586206029421 Eh

Diagonalization of the overlap matrix:
Smallest eigenvalue                        ... 1.732e-05
Time for diagonalization                   ...    0.003 sec
Threshold for overlap eigenvalues          ... 1.000e-07
Number of eigenvalues below threshold      ... 0
Time for construction of square roots      ...    0.002 sec
Total time needed                          ...    0.006 sec

-------------------
DFT GRID GENERATION
-------------------

General Integration Accuracy     IntAcc      ... 4.388
Radial Grid Type                 RadialGrid  ... OptM3 with GC (2021)
Angular Grid (max. ang.)         AngularGrid ... 4 (Lebedev-302)
Angular grid pruning method      GridPruning ... 4 (adaptive)
Weight generation scheme         WeightScheme... mBecke (2022)
Basis function cutoff            BFCut       ... 1.0000e-11
Integration weight cutoff        WCut        ... 1.0000e-14
Partially contracted basis set               ... off
Rotationally invariant grid construction     ... off
Angular grids for H and He will be reduced by one unit
Diffuse basis detected: some atoms will have their outermost
                        angular grid increased by 1.

Total number of grid points                  ...    33095
Total number of batches                      ...      521
Average number of points per batch           ...       63
Average number of grid points per atom       ...     4728

--------------------
COSX GRID GENERATION
--------------------

GRIDX 1
-------
General Integration Accuracy     IntAcc      ... 3.816
Radial Grid Type                 RadialGrid  ... OptM3 with GC (2021)
Angular Grid (max. ang.)         AngularGrid ... 1 (Lebedev-50)
Angular grid pruning method      GridPruning ... 4 (adaptive)
Weight generation scheme         WeightScheme... mBecke (2022)
Basis function cutoff            BFCut       ... 1.0000e-11
Integration weight cutoff        WCut        ... 1.0000e-14
Partially contracted basis set               ... on
Rotationally invariant grid construction     ... off
Angular grids for H and He will be reduced by one unit
Diffuse basis detected: some atoms will have their outermost
                        angular grid increased by 1.

Total number of grid points                  ...     4165
Total number of batches                      ...       36
Average number of points per batch           ...      115
Average number of grid points per atom       ...      595
UseSFitting                                  ... on

GRIDX 2
-------
General Integration Accuracy     IntAcc      ... 4.020
Radial Grid Type                 RadialGrid  ... OptM3 with GC (2021)
Angular Grid (max. ang.)         AngularGrid ... 2 (Lebedev-110)
Angular grid pruning method      GridPruning ... 4 (adaptive)
Weight generation scheme         WeightScheme... mBecke (2022)
Basis function cutoff            BFCut       ... 1.0000e-11
Integration weight cutoff        WCut        ... 1.0000e-14
Partially contracted basis set               ... on
Rotationally invariant grid construction     ... off
Angular grids for H and He will be reduced by one unit
Diffuse basis detected: some atoms will have their outermost
                        angular grid increased by 1.

Total number of grid points                  ...    10234
Total number of batches                      ...       84
Average number of points per batch           ...      121
Average number of grid points per atom       ...     1462
UseSFitting                                  ... on

GRIDX 3
-------
General Integration Accuracy     IntAcc      ... 4.338
Radial Grid Type                 RadialGrid  ... OptM3 with GC (2021)
Angular Grid (max. ang.)         AngularGrid ... 3 (Lebedev-194)
Angular grid pruning method      GridPruning ... 4 (adaptive)
Weight generation scheme         WeightScheme... mBecke (2022)
Basis function cutoff            BFCut       ... 1.0000e-11
Integration weight cutoff        WCut        ... 1.0000e-14
Partially contracted basis set               ... on
Rotationally invariant grid construction     ... off
Angular grids for H and He will be reduced by one unit
Diffuse basis detected: some atoms will have their outermost
                        angular grid increased by 1.

Total number of grid points                  ...    23071
Total number of batches                      ...      183
Average number of points per batch           ...      126
Average number of grid points per atom       ...     3296
UseSFitting                                  ... on
Initializing property integral containers    ... done (  0.0 sec)

SHARK setup successfully completed in   0.3 seconds

Maximum memory used throughout the entire STARTUP-calculation: 13.8 MB
[1741000000.721877] [ohm:3228305:0]        ib_iface.c:1059 UCX  ERROR ibv_create_cq(cqe=256) failed: Connection timed out
[1741000000.725443] [ohm:3228303:0]        ib_iface.c:1059 UCX  ERROR ibv_create_cq(cqe=256) failed: Connection timed out
[1741000000.725752] [ohm:3228309:0]        ib_iface.c:1059 UCX  ERROR ibv_create_cq(cqe=256) failed: Connection timed out
[1741000000.730422] [ohm:3228311:0]        ib_iface.c:1059 UCX  ERROR ibv_create_cq(cqe=256) failed: Connection timed out
[1741000000.731494] [ohm:3228307:0]        ib_iface.c:1059 UCX  ERROR ibv_create_cq(cqe=256) failed: Connection timed out
[1741000000.739688] [ohm:3228308:0]        ib_iface.c:1059 UCX  ERROR ibv_create_cq(cqe=256) failed: Connection timed out
[1741000000.739695] [ohm:3228310:0]        ib_iface.c:1059 UCX  ERROR ibv_create_cq(cqe=256) failed: Connection timed out
[1741000000.739688] [ohm:3228304:0]        ib_iface.c:1059 UCX  ERROR ibv_create_cq(cqe=256) failed: Connection timed out
[1741000000.739914] [ohm:3228317:0]        ib_iface.c:1059 UCX  ERROR ibv_create_cq(cqe=256) failed: Connection timed out
[1741000000.739891] [ohm:3228306:0]        ib_iface.c:1059 UCX  ERROR ibv_create_cq(cqe=256) failed: Connection timed out
[1741000000.739915] [ohm:3228313:0]        ib_iface.c:1059 UCX  ERROR ibv_create_cq(cqe=256) failed: Connection timed out
[1741000000.739992] [ohm:3228326:0]        ib_iface.c:1059 UCX  ERROR ibv_create_cq(cqe=256) failed: Connection timed out
[1741000000.741543] [ohm:3228315:0]        ib_iface.c:1059 UCX  ERROR ibv_create_cq(cqe=256) failed: Connection timed out
[1741000000.742863] [ohm:3228321:0]        ib_iface.c:1059 UCX  ERROR ibv_create_cq(cqe=256) failed: Connection timed out
[1741000000.762417] [ohm:3228333:0]        ib_iface.c:1059 UCX  ERROR ibv_create_cq(cqe=256) failed: Connection timed out
[1741000000.763117] [ohm:3228331:0]        ib_iface.c:1059 UCX  ERROR ibv_create_cq(cqe=256) failed: Connection timed out


           ************************************************************
           *        Program running with 16 parallel MPI-processes    *
           *              working on a common directory               *
           ************************************************************
-------------------------------------------------------------------------------
                                 ORCA GUESS
                   Start orbitals & Density for SCF / CASSCF
-------------------------------------------------------------------------------

------------
SCF SETTINGS
------------
Hamiltonian:
 Density Functional     Method          .... DFT(GTOs)
  Functional kind                       .... Exchange-Correlation
  Functional name                       .... wB97M-V exchange-correlation functional
  Functional family                     .... Hybrid MGGA
  Functional refs                              
    [ 0] N. Mardirossian and M. Head-Gordon.,  J. Chem. Phys. 144, 214110 (2016), doi: 10.1063/1.4952647
  Fraction of HF Exchange (short range) .... 0.1500
  Fraction of HF Exchange (long range)  .... 1.0000
  Range separation parameter mu         .... 0.3000
  Functional external parameters        .... 17
    Parameter  0 _cx00      =  8.500000e-01 : u^00 coefficient for exchange
    Parameter  1 _cx01      =  1.007000e+00 : u^01 coefficient for exchange
    Parameter  2 _cx10      =  2.590000e-01 : u^10 coefficient for exchange
    Parameter  3 _css00     =  4.430000e-01 : u^00 coefficient for same-spin correlation
    Parameter  4 _css04     = -1.437000e+00 : u^04 coefficient for same-spin correlation
    Parameter  5 _css10     = -4.535000e+00 : u^10 coefficient for same-spin correlation
    Parameter  6 _css20     = -3.390000e+00 : u^20 coefficient for same-spin correlation
    Parameter  7 _css43     =  4.278000e+00 : u^43 coefficient for same-spin correlation
    Parameter  8 _cos00     =  1.000000e+00 : u^00 coefficient for opposite-spin correlation
    Parameter  9 _cos10     =  1.358000e+00 : u^10 coefficient for opposite-spin correlation
    Parameter 10 _cos20     =  2.924000e+00 : u^20 coefficient for opposite-spin correlation
    Parameter 11 _cos21     = -8.812000e+00 : u^21 coefficient for opposite-spin correlation
    Parameter 12 _cos60     = -1.390000e+00 : u^60 coefficient for opposite-spin correlation
    Parameter 13 _cos61     =  9.142000e+00 : u^61 coefficient for opposite-spin correlation
    Parameter 14 _alpha     =  1.000000e+00 : fraction of HF exchange
    Parameter 15 _beta      = -8.500000e-01 : fraction of short-range exchange
    Parameter 16 _omega     =  3.000000e-01 : range-separation constant
 Long-range corrected/Screened/Range-Separated Hybrid DFT is turned on
   Amount of maximum screened exact exchange              ....  0.850000
   Range separation parameter mu (erf(mu*r12)/r12)        ....  0.300000
 RI-approximation to the Coulomb term is turned on
   Number of AuxJ basis functions       .... 191
   RIJ-COSX (HFX calculated with COS-X)).... on


General Settings:
 Integral files         IntName         .... orca
 Hartree-Fock type      HFTyp           .... UHF
 Total Charge           Charge          ....    0
 Multiplicity           Mult            ....    3
 Number of Electrons    NEL             ....   24
 Basis Dimension        Dim             ....  182
 Nuclear Repulsion      ENuc            ....     69.5862060294 Eh

Convergence Acceleration:
 AO-DIIS                CNVDIIS         .... on
   Start iteration      DIISMaxIt       ....    12
   Startup error        DIISStart       ....  0.200000
   # of expansion vecs  DIISMaxEq       ....     5
   Bias factor          DIISBfac        ....   1.050
   Max. coefficient     DIISMaxC        ....  10.000
 MO-DIIS                CNVKDIIS        .... off
 Trust-Rad. Augm. Hess. CNVTRAH         .... auto
   Auto Start mean grad. ratio tolernc. ....  1.125000
   Auto Start start iteration           ....    50
   Auto Start num. interpolation iter.  ....    10
   Max. Number of Micro iterations      ....    24
   Max. Number of Macro iterations      .... Maxiter - #DIIS iter
   Number of Davidson start vectors     ....     2
   Converg. threshold    (grad. norm)   ....   1.000e-05
   Grad. Scal. Fac. for Micro threshold ....   0.100
   Minimum threshold for Micro iter.    ....   1.000e-02
   NR start threshold (gradient norm)   ....   1.000e-04
   Initial trust radius                 ....   0.400
   Minimum AH scaling param. (alpha)    ....   1.000
   Maximum AH scaling param. (alpha)    .... 1000.000
   Quad. conv. algorithm                .... NR
   White noise on init. David. guess    .... on
   Maximum white noise                  ....   0.010
   Pseudo random numbers                .... off
   Inactive MOs                         .... canonical
   Orbital update algorithm             .... Taylor
   Preconditioner                       .... Diag
   Full preconditioner red. dimension   ....   250
 SOSCF                  CNVSOSCF        .... on
   Start iteration      SOSCFMaxIt      ....   150
   Startup grad/error   SOSCFStart      ....  0.003300
   Hessian update       SOSCFHessUp     .... L-BFGS
 Level Shifting         CNVShift        .... on
   Level shift para.    LevelShift      ....    0.2500
   Turn off err/grad.   ShiftErr        ....    0.0010
 Zerner damping         CNVZerner       .... off
 Static damping         CNVDamp         .... on
   Fraction old density DampFac         ....    0.7000
   Max. Damping (<1)    DampMax         ....    0.9800
   Min. Damping (>=0)   DampMin         ....    0.0000
   Turn off err/grad.   DampErr         ....    0.1000

SCF Procedure:
 Maximum # iterations   MaxIter         ....   125
 SCF integral mode      SCFMode         .... Direct
   Integral package                     .... SHARK and LIBINT hybrid scheme
 Reset frequency        DirectResetFreq ....    20
 Integral Threshold     Thresh          ....  2.500e-11 Eh
 Primitive CutOff       TCut            ....  2.500e-12 Eh

Convergence Tolerance:
 Convergence Check Mode ConvCheckMode   .... Total+1el-Energy
 Convergence forced     ConvForced      .... 1
 Energy Change          TolE            ....  1.000e-08 Eh
 1-El. energy change                    ....  1.000e-05 Eh
 Orbital Gradient       TolG            ....  1.000e-05
 Orbital Rotation angle TolX            ....  1.000e-05
 DIIS Error             TolErr          ....  5.000e-07

------------------------------
INITIAL GUESS: MODEL POTENTIAL
------------------------------
Loading Hartree-Fock densities                     ... done
Calculating cut-offs                               ... done
Initializing the effective Hamiltonian             ... done
Setting up the integral package (SHARK)            ... done
Starting the Coulomb interaction                   ... done (   0.0 sec)
Making the grid                                    ... done (   0.0 sec)
Mapping shells                                     ... done
Starting the XC term evaluation                    ... done (   0.0 sec)
  promolecular density results
     # of electrons  =     23.997446847
     EX              =    -19.482588596
     EC              =     -0.768895485
     EX+EC           =    -20.251484082
Transforming the Hamiltonian                       ... done (   0.0 sec)
Diagonalizing the Hamiltonian                      ... done (   0.0 sec)
Back transforming the eigenvectors                 ... done (   0.0 sec)
Now organizing SCF variables                       ... done
                      ------------------
                      INITIAL GUESS DONE (   0.1 sec)
                      ------------------
             **** ENERGY FILE WAS UPDATED (orca.en.tmp) ****
Finished Guess after   0.5 sec
Maximum memory used throughout the entire GUESS-calculation: 9.7 MB
[1741000001.489688] [ohm:3228387:0]        ib_iface.c:1059 UCX  ERROR ibv_create_cq(cqe=256) failed: Connection timed out
[1741000001.489689] [ohm:3228389:0]        ib_iface.c:1059 UCX  ERROR ibv_create_cq(cqe=256) failed: Connection timed out
[1741000001.489694] [ohm:3228391:0]        ib_iface.c:1059 UCX  ERROR ibv_create_cq(cqe=256) failed: Connection timed out
[1741000001.493927] [ohm:3228388:0]        ib_iface.c:1059 UCX  ERROR ibv_create_cq(cqe=256) failed: Connection timed out
[1741000001.493937] [ohm:3228390:0]        ib_iface.c:1059 UCX  ERROR ibv_create_cq(cqe=256) failed: Connection timed out
[1741000001.494630] [ohm:3228386:0]        ib_iface.c:1059 UCX  ERROR ibv_create_cq(cqe=256) failed: Connection timed out
[1741000001.494702] [ohm:3228392:0]        ib_iface.c:1059 UCX  ERROR ibv_create_cq(cqe=256) failed: Connection timed out
[1741000001.503348] [ohm:3228407:0]        ib_iface.c:1059 UCX  ERROR ibv_create_cq(cqe=256) failed: Connection timed out
[1741000001.503333] [ohm:3228399:0]        ib_iface.c:1059 UCX  ERROR ibv_create_cq(cqe=256) failed: Connection timed out
[1741000001.503382] [ohm:3228393:0]        ib_iface.c:1059 UCX  ERROR ibv_create_cq(cqe=256) failed: Connection timed out
[1741000001.506196] [ohm:3228396:0]        ib_iface.c:1059 UCX  ERROR ibv_create_cq(cqe=256) failed: Connection timed out
[1741000001.507425] [ohm:3228398:0]        ib_iface.c:1059 UCX  ERROR ibv_create_cq(cqe=256) failed: Connection timed out
[1741000001.507642] [ohm:3228394:0]        ib_iface.c:1059 UCX  ERROR ibv_create_cq(cqe=256) failed: Connection timed out
[1741000001.523057] [ohm:3228402:0]        ib_iface.c:1059 UCX  ERROR ibv_create_cq(cqe=256) failed: Connection timed out
[1741000001.523053] [ohm:3228412:0]        ib_iface.c:1059 UCX  ERROR ibv_create_cq(cqe=256) failed: Connection timed out
[1741000001.524000] [ohm:3228415:0]        ib_iface.c:1059 UCX  ERROR ibv_create_cq(cqe=256) failed: Connection timed out


           ************************************************************
           *        Program running with 16 parallel MPI-processes    *
           *              working on a common directory               *
           ************************************************************

-------------------------------------------------------------------------------------------
                                      ORCA LEAN-SCF
                              memory conserving SCF solver
-------------------------------------------------------------------------------------------

----------------------------------------D-I-I-S--------------------------------------------
Iteration    Energy (Eh)           Delta-E    RMSDP     MaxDP     DIISErr   Damp  Time(sec)
-------------------------------------------------------------------------------------------
               ***  Starting incremental Fock matrix formation  ***
    1    -153.6979371681239854     0.00e+00  8.96e-04  2.18e-02  7.99e-02  0.700   0.4
    2    -153.7266506378105078    -2.87e-02  7.96e-04  1.95e-02  5.24e-02  0.700   0.3
                               ***Turning on AO-DIIS***
    3    -153.7426883010193706    -1.60e-02  6.44e-04  1.76e-02  3.49e-02  0.700   0.3
    4    -153.7527669565008068    -1.01e-02  1.62e-03  4.35e-02  2.88e-02  0.000   0.3
    5    -153.7769357273871265    -2.42e-02  1.98e-04  8.63e-03  1.12e-02  0.000   0.3
    6    -153.7777877860048079    -8.52e-04  1.38e-04  5.67e-03  6.34e-03  0.000   0.3
    7    -153.7782573325010844    -4.70e-04  8.56e-05  3.19e-03  4.96e-03  0.000   0.3
                              *** Initializing SOSCF ***
---------------------------------------S-O-S-C-F--------------------------------------
Iteration    Energy (Eh)           Delta-E    RMSDP     MaxDP     MaxGrad    Time(sec)
--------------------------------------------------------------------------------------
    8    -153.7784753063061771    -2.18e-04  5.42e-05  1.73e-03  2.13e-03     0.3
               *** Restarting incremental Fock matrix formation ***
    9    -153.7785529781622245    -7.77e-05  2.71e-05  7.85e-04  1.70e-03     0.4
   10    -153.7785710680549869    -1.81e-05  4.17e-05  1.16e-03  8.17e-04     0.3
   11    -153.7785794384372480    -8.37e-06  1.26e-05  2.69e-04  2.91e-04     0.3
   12    -153.7785812073391867    -1.77e-06  2.98e-06  7.82e-05  1.02e-04     0.3
   13    -153.7785812892117860    -8.19e-08  1.30e-06  6.91e-05  2.39e-05     0.3
   14    -153.7785813066833498    -1.75e-08  4.50e-07  1.44e-05  1.21e-05     0.3
   15    -153.7785813071973280    -5.14e-10  3.90e-07  1.66e-05  2.98e-06     0.3
                 **** Energy Check signals convergence ****

               *****************************************************
               *                     SUCCESS                       *
               *           SCF CONVERGED AFTER  15 CYCLES          *
               *****************************************************

Recomputing exchange energy using gridx3       ... done (    0.424 sec)
Old exchange energy                            :     -6.203701310 Eh
New exchange energy                            :     -6.203699500 Eh
Exchange energy change after final integration :      0.000001810 Eh
Total energy after final integration           :   -153.778579497 Eh
             **** ENERGY FILE WAS UPDATED (orca.en.tmp) ****

----------------
TOTAL SCF ENERGY
----------------

Total Energy       :       -153.77857949706197 Eh           -4184.52789 eV

Components:
Nuclear Repulsion  :         69.58620602942098 Eh            1893.53693 eV
Electronic Energy  :       -223.36478733661829 Eh           -6078.06487 eV
One Electron Energy:       -345.66986678299355 Eh           -9406.15527 eV
Two Electron Energy:        122.30507944637525 Eh            3328.09041 eV

Virial components:
Potential Energy   :       -307.23376442914497 Eh           -8360.25576 eV
Kinetic Energy     :        153.45518493208300 Eh            4175.72787 eV
Virial Ratio       :          2.00210742025512

DFT components:
N(Alpha)           :       12.999992469355 electrons
N(Beta)            :       10.999987233657 electrons
N(Total)           :       23.999979703012 electrons
E(XC)              :      -14.724572207012 Eh       

---------------
SCF CONVERGENCE
---------------

  Last Energy change         ...    5.1398e-10  Tolerance :   1.0000e-08
  Last MAX-Density change    ...    1.6560e-05  Tolerance :   1.0000e-07
  Last RMS-Density change    ...    3.8970e-07  Tolerance :   5.0000e-09
  Last DIIS Error            ...    2.1329e-03  Tolerance :   5.0000e-07
  Last Orbital Gradient      ...    2.9787e-06  Tolerance :   1.0000e-05
  Last Orbital Rotation      ...    1.3267e-05  Tolerance :   1.0000e-05


----------------------
UHF SPIN CONTAMINATION
----------------------

Warning: in a DFT calculation there is little theoretical justification to 
         calculate <S**2> as in Hartree-Fock theory. We will do it anyways
         but you should keep in mind that the values have only limited relevance

Expectation value of <S**2>     :     2.008119
Ideal value S*(S+1) for S=1.0   :     2.000000
Deviation                       :     0.008119

----------------
ORBITAL ENERGIES
----------------
                 SPIN UP ORBITALS
  NO   OCC          E(Eh)            E(eV) 
   0   1.0000     -19.392940      -527.7087 
   1   1.0000     -10.407715      -283.2083 
   2   1.0000     -10.355527      -281.7882 
   3   1.0000      -1.187556       -32.3150 
   4   1.0000      -0.877874       -23.8882 
   5   1.0000      -0.734127       -19.9766 
   6   1.0000      -0.631976       -17.1970 
   7   1.0000      -0.589685       -16.0461 
   8   1.0000      -0.557381       -15.1671 
   9   1.0000      -0.517458       -14.0808 
  10   1.0000      -0.435722       -11.8566 
  11   1.0000      -0.419272       -11.4090 
  12   1.0000      -0.320048        -8.7089 
  13   0.0000       0.041021         1.1162 
  14   0.0000       0.063082         1.7166 
  15   0.0000       0.074110         2.0166 
  16   0.0000       0.087346         2.3768 
  17   0.0000       0.116849         3.1796 
  18   0.0000       0.129860         3.5337 
  19   0.0000       0.133609         3.6357 
  20   0.0000       0.137168         3.7325 
  21   0.0000       0.165622         4.5068 
  22   0.0000       0.191635         5.2147 
  23   0.0000       0.208530         5.6744 

                 SPIN DOWN ORBITALS
  NO   OCC          E(Eh)            E(eV) 
   0   1.0000     -19.367739      -527.0230 
   1   1.0000     -10.409057      -283.2449 
   2   1.0000     -10.342646      -281.4377 
   3   1.0000      -1.132185       -30.8083 
   4   1.0000      -0.844377       -22.9767 
   5   1.0000      -0.709691       -19.3117 
   6   1.0000      -0.594184       -16.1686 
   7   1.0000      -0.557857       -15.1801 
   8   1.0000      -0.535334       -14.5672 
   9   1.0000      -0.478956       -13.0330 
  10   1.0000      -0.383031       -10.4228 
  11   0.0000      -0.063067        -1.7161 
  12   0.0000       0.003740         0.1018 
  13   0.0000       0.039976         1.0878 
  14   0.0000       0.063681         1.7328 
  15   0.0000       0.073761         2.0071 
  16   0.0000       0.091219         2.4822 
  17   0.0000       0.116818         3.1788 
  18   0.0000       0.133956         3.6451 
  19   0.0000       0.134681         3.6649 
  20   0.0000       0.143490         3.9046 
  21   0.0000       0.173017         4.7080 
*Only the first 10 virtual orbitals were printed.

                    ********************************
                    * MULLIKEN POPULATION ANALYSIS *
                    ********************************

--------------------------------------------
MULLIKEN ATOMIC CHARGES AND SPIN POPULATIONS
--------------------------------------------
   0 O :   -0.322052    0.942893
   1 C :    0.024365   -0.002386
   2 C :   -0.586558    0.855361
   3 H :    0.201046    0.070703
   4 H :    0.200952    0.070724
   5 H :    0.241087    0.031357
   6 H :    0.241160    0.031349
Sum of atomic charges         :    0.0000000
Sum of atomic spin populations:    2.0000000

-----------------------------------------------------
MULLIKEN REDUCED ORBITAL CHARGES AND SPIN POPULATIONS
-----------------------------------------------------
CHARGE
  0 O s       :     4.004580  s :     4.004580
      pz      :     1.072300  p :     4.296357
      px      :     1.889971
      py      :     1.334086
      dz2     :     0.002846  d :     0.019759
      dxz     :    -0.000733
      dyz     :     0.006591
      dx2y2   :     0.007185
      dxy     :     0.003869
      f0      :     0.000136  f :     0.001355
      f+1     :     0.000031
      f-1     :     0.000146
      f+2     :     0.000220
      f-2     :     0.000018
      f+3     :     0.000351
      f-3     :     0.000452

  1 C s       :     3.193542  s :     3.193542
      pz      :     1.120437  p :     2.614869
      px      :     0.882764
      py      :     0.611668
      dz2     :     0.005514  d :     0.155905
      dxz     :     0.018986
      dyz     :     0.049353
      dx2y2   :     0.021970
      dxy     :     0.060082
      f0      :     0.001019  f :     0.011319
      f+1     :     0.000720
      f-1     :     0.000925
      f+2     :     0.001589
      f-2     :     0.000257
      f+3     :     0.004454
      f-3     :     0.002355

  2 C s       :     3.574447  s :     3.574447
      pz      :     1.113527  p :     2.988683
      px      :     0.959279
      py      :     0.915877
      dz2     :     0.007986  d :     0.019356
      dxz     :     0.003912
      dyz     :    -0.001922
      dx2y2   :     0.003930
      dxy     :     0.005450
      f0      :     0.000538  f :     0.004072
      f+1     :     0.000595
      f-1     :     0.000117
      f+2     :     0.000608
      f-2     :     0.000282
      f+3     :     0.001224
      f-3     :     0.000707

  3 H s       :     0.759984  s :     0.759984
      pz      :     0.017360  p :     0.036388
      px      :     0.006818
      py      :     0.012210
      dz2     :     0.000748  d :     0.002582
      dxz     :     0.000523
      dyz     :     0.000572
      dx2y2   :     0.000450
      dxy     :     0.000289

  4 H s       :     0.760052  s :     0.760052
      pz      :     0.017340  p :     0.036412
      px      :     0.006819
      py      :     0.012254
      dz2     :     0.000748  d :     0.002583
      dxz     :     0.000523
      dyz     :     0.000572
      dx2y2   :     0.000452
      dxy     :     0.000289

  5 H s       :     0.708252  s :     0.708252
      pz      :     0.010989  p :     0.048427
      px      :     0.015355
      py      :     0.022084
      dz2     :     0.000628  d :     0.002233
      dxz     :     0.000496
      dyz     :     0.000623
      dx2y2   :     0.000214
      dxy     :     0.000273

  6 H s       :     0.708165  s :     0.708165
      pz      :     0.011012  p :     0.048442
      px      :     0.015368
      py      :     0.022062
      dz2     :     0.000628  d :     0.002234
      dxz     :     0.000496
      dyz     :     0.000623
      dx2y2   :     0.000214
      dxy     :     0.000272


SPIN
  0 O s       :     0.005833  s :     0.005833
      pz      :     0.855942  p :     0.941668
      px      :     0.027579
      py      :     0.058147
      dz2     :     0.000817  d :    -0.004433
      dxz     :    -0.000214
      dyz     :    -0.005079
      dx2y2   :    -0.000115
      dxy     :     0.000157
      f0      :    -0.000050  f :    -0.000175
      f+1     :     0.000008
      f-1     :    -0.000141
      f+2     :    -0.000007
      f-2     :    -0.000001
      f+3     :     0.000006
      f-3     :     0.000011

  1 C s       :     0.003789  s :     0.003789
      pz      :     0.002250  p :    -0.082869
      px      :    -0.019428
      py      :    -0.065690
      dz2     :     0.002936  d :     0.073123
      dxz     :     0.010149
      dyz     :     0.048369
      dx2y2   :     0.019144
      dxy     :    -0.007474
      f0      :     0.000671  f :     0.003570
      f+1     :     0.000041
      f-1     :     0.000000
      f+2     :     0.001081
      f-2     :     0.000023
      f+3     :     0.001472
      f-3     :     0.000281

  2 C s       :    -0.020109  s :    -0.020109
      pz      :     0.008765  p :     0.890983
      px      :     0.073501
      py      :     0.808718
      dz2     :    -0.000452  d :    -0.014518
      dxz     :    -0.010496
      dyz     :     0.000652
      dx2y2   :    -0.003929
      dxy     :    -0.000292
      f0      :    -0.000102  f :    -0.000995
      f+1     :    -0.000217
      f-1     :     0.000046
      f+2     :    -0.000197
      f-2     :    -0.000036
      f+3     :    -0.000312
      f-3     :    -0.000178

  3 H s       :     0.059700  s :     0.059700
      pz      :     0.004907  p :     0.010984
      px      :     0.001040
      py      :     0.005036
      dz2     :    -0.000007  d :     0.000020
      dxz     :     0.000024
      dyz     :    -0.000002
      dx2y2   :     0.000007
      dxy     :    -0.000002

  4 H s       :     0.059714  s :     0.059714
      pz      :     0.004882  p :     0.010990
      px      :     0.001037
      py      :     0.005071
      dz2     :    -0.000007  d :     0.000020
      dxz     :     0.000024
      dyz     :    -0.000002
      dx2y2   :     0.000007
      dxy     :    -0.000002

  5 H s       :     0.003269  s :     0.003269
      pz      :     0.000446  p :     0.027069
      px      :     0.005100
      py      :     0.021523
      dz2     :     0.000107  d :     0.001018
      dxz     :     0.000042
      dyz     :     0.000601
      dx2y2   :     0.000028
      dxy     :     0.000240

  6 H s       :     0.003284  s :     0.003284
      pz      :     0.000417  p :     0.027047
      px      :     0.005094
      py      :     0.021537
      dz2     :     0.000108  d :     0.001018
      dxz     :     0.000042
      dyz     :     0.000601
      dx2y2   :     0.000028
      dxy     :     0.000240



                     *******************************
                     * LOEWDIN POPULATION ANALYSIS *
                     *******************************

-------------------------------------------
LOEWDIN ATOMIC CHARGES AND SPIN POPULATIONS
-------------------------------------------
   0 O :    0.083179    0.887758
   1 C :   -0.290485    0.203278
   2 C :    0.224861    0.651895
   3 H :    0.040571    0.050900
   4 H :    0.040574    0.050879
   5 H :   -0.049359    0.077658
   6 H :   -0.049343    0.077631

----------------------------------------------------
LOEWDIN REDUCED ORBITAL CHARGES AND SPIN POPULATIONS
----------------------------------------------------
CHARGE
  0 O s       :     3.454860  s :     3.454860
      pz      :     1.004048  p :     4.182776
      px      :     1.711536
      py      :     1.467193
      dz2     :     0.024629  d :     0.274578
      dxz     :     0.006606
      dyz     :     0.079734
      dx2y2   :     0.064423
      dxy     :     0.099186
      f0      :     0.000568  f :     0.004606
      f+1     :     0.000148
      f-1     :     0.000510
      f+2     :     0.000789
      f-2     :     0.000062
      f+3     :     0.001479
      f-3     :     0.001049

  1 C s       :     2.647226  s :     2.647226
      pz      :     0.894661  p :     2.613009
      px      :     0.923409
      py      :     0.794940
      dz2     :     0.105447  d :     0.935741
      dxz     :     0.166861
      dyz     :     0.117409
      dx2y2   :     0.255209
      dxy     :     0.290815
      f0      :     0.007289  f :     0.094508
      f+1     :     0.006696
      f-1     :     0.011538
      f+2     :     0.011306
      f-2     :     0.005955
      f+3     :     0.031008
      f-3     :     0.020716

  2 C s       :     2.728527  s :     2.728527
      pz      :     0.963244  p :     2.594143
      px      :     0.930081
      py      :     0.700819
      dz2     :     0.066334  d :     0.426761
      dxz     :     0.188917
      dyz     :     0.012997
      dx2y2   :     0.093515
      dxy     :     0.064997
      f0      :     0.003310  f :     0.025707
      f+1     :     0.005265
      f-1     :     0.001211
      f+2     :     0.004077
      f-2     :     0.001634
      f+3     :     0.005703
      f-3     :     0.004507

  3 H s       :     0.674233  s :     0.674233
      pz      :     0.108830  p :     0.255763
      px      :     0.085030
      py      :     0.061903
      dz2     :     0.008870  d :     0.029433
      dxz     :     0.007582
      dyz     :     0.006155
      dx2y2   :     0.003698
      dxy     :     0.003128

  4 H s       :     0.674194  s :     0.674194
      pz      :     0.108811  p :     0.255798
      px      :     0.084968
      py      :     0.062019
      dz2     :     0.008860  d :     0.029435
      dxz     :     0.007573
      dyz     :     0.006169
      dx2y2   :     0.003702
      dxy     :     0.003130

  5 H s       :     0.729146  s :     0.729146
      pz      :     0.122703  p :     0.289534
      px      :     0.084279
      py      :     0.082553
      dz2     :     0.009325  d :     0.030679
      dxz     :     0.009078
      dyz     :     0.006905
      dx2y2   :     0.002621
      dxy     :     0.002750

  6 H s       :     0.729143  s :     0.729143
      pz      :     0.122705  p :     0.289521
      px      :     0.084256
      py      :     0.082560
      dz2     :     0.009330  d :     0.030678
      dxz     :     0.009079
      dyz     :     0.006908
      dx2y2   :     0.002616
      dxy     :     0.002746


SPIN
  0 O s       :     0.019693  s :     0.019693
      pz      :     0.760797  p :     0.848689
      px      :     0.041950
      py      :     0.045942
      dz2     :     0.002649  d :     0.019339
      dxz     :     0.000601
      dyz     :     0.010436
      dx2y2   :     0.000173
      dxy     :     0.005480
      f0      :     0.000100  f :     0.000037
      f+1     :     0.000051
      f-1     :    -0.000139
      f+2     :     0.000069
      f-2     :     0.000009
      f+3     :     0.000002
      f-3     :    -0.000055

  1 C s       :    -0.004257  s :    -0.004257
      pz      :     0.005334  p :    -0.011857
      px      :    -0.012504
      py      :    -0.004688
      dz2     :     0.004421  d :     0.191790
      dxz     :     0.019296
      dyz     :     0.103119
      dx2y2   :     0.048209
      dxy     :     0.016745
      f0      :     0.004913  f :     0.027602
      f+1     :     0.000310
      f-1     :     0.000395
      f+2     :     0.008343
      f-2     :     0.000420
      f+3     :     0.010596
      f-3     :     0.002626

  2 C s       :     0.013732  s :     0.013732
      pz      :     0.012532  p :     0.637406
      px      :     0.036623
      py      :     0.588250
      dz2     :    -0.002392  d :     0.001450
      dxz     :    -0.000773
      dyz     :     0.001640
      dx2y2   :     0.004308
      dxy     :    -0.001334
      f0      :    -0.000104  f :    -0.000692
      f+1     :    -0.000463
      f-1     :     0.000220
      f+2     :    -0.000074
      f-2     :    -0.000090
      f+3     :     0.000111
      f-3     :    -0.000293

  3 H s       :     0.042858  s :     0.042858
      pz      :     0.001393  p :     0.008567
      px      :     0.000370
      py      :     0.006804
      dz2     :    -0.000148  d :    -0.000524
      dxz     :    -0.000045
      dyz     :    -0.000177
      dx2y2   :    -0.000026
      dxy     :    -0.000128

  4 H s       :     0.042850  s :     0.042850
      pz      :     0.001389  p :     0.008553
      px      :     0.000355
      py      :     0.006809
      dz2     :    -0.000149  d :    -0.000524
      dxz     :    -0.000044
      dyz     :    -0.000176
      dx2y2   :    -0.000027
      dxy     :    -0.000128

  5 H s       :    -0.011568  s :    -0.011568
      pz      :     0.003142  p :     0.079013
      px      :     0.004840
      py      :     0.071031
      dz2     :     0.000491  d :     0.010214
      dxz     :     0.000575
      dyz     :     0.006523
      dx2y2   :     0.000159
      dxy     :     0.002466

  6 H s       :    -0.011567  s :    -0.011567
      pz      :     0.003126  p :     0.078985
      px      :     0.004835
      py      :     0.071023
      dz2     :     0.000505  d :     0.010213
      dxz     :     0.000570
      dyz     :     0.006520
      dx2y2   :     0.000151
      dxy     :     0.002468



                      *****************************
                      * MAYER POPULATION ANALYSIS *
                      *****************************

  NA   - Mulliken gross atomic population
  ZA   - Total nuclear charge
  QA   - Mulliken gross atomic charge
  VA   - Mayer's total valence
  BVA  - Mayer's bonded valence
  FA   - Mayer's free valence

  ATOM       NA         ZA         QA         VA         BVA        FA
  0 O      8.3221     8.0000    -0.3221     1.8328     1.0813     0.7515
  1 C      5.9756     6.0000     0.0244     3.5395     3.5226     0.0169
  2 C      6.5866     6.0000    -0.5866     3.4646     2.7020     0.7625
  3 H      0.7990     1.0000     0.2010     1.0178     1.0149     0.0029
  4 H      0.7990     1.0000     0.2010     1.0179     1.0150     0.0029
  5 H      0.7589     1.0000     0.2411     0.9709     0.9701     0.0009
  6 H      0.7588     1.0000     0.2412     0.9710     0.9701     0.0009

  Mayer bond orders larger than 0.100000
B(  0-O ,  1-C ) :   0.9076 B(  1-C ,  2-C ) :   0.7076 B(  1-C ,  3-H ) :   0.9758 
B(  1-C ,  4-H ) :   0.9758 B(  2-C ,  5-H ) :   0.9813 B(  2-C ,  6-H ) :   0.9813 


-------
TIMINGS
-------

Total SCF time: 0 days 0 hours 0 min 5 sec 

Total time                  ....       5.463 sec
Sum of individual times     ....       5.452 sec  ( 99.8%)

SCF preparation             ....       0.414 sec  (  7.6%)
Fock matrix formation       ....       4.443 sec  ( 81.3%)
  Startup                   ....       0.033 sec  (  0.7% of F)
  Split-RI-J                ....       0.198 sec  (  4.5% of F)
  Chain of spheres X        ....       2.834 sec  ( 63.8% of F)
  XC integration            ....       1.279 sec  ( 28.8% of F)
    XC Preparation          ....       0.000 sec  (  0.0% of XC)
    Basis function eval.    ....       0.091 sec  (  7.1% of XC)
    Density eval.           ....       0.394 sec  ( 30.8% of XC)
    XC-Functional eval.     ....       0.038 sec  (  2.9% of XC)
    XC-Potential eval.      ....       0.633 sec  ( 49.5% of XC)
Diagonalization             ....       0.000 sec  (  0.0%)
Density matrix formation    ....       0.072 sec  (  1.3%)
Total Energy calculation    ....       0.047 sec  (  0.9%)
Population analysis         ....       0.020 sec  (  0.4%)
Orbital Transformation      ....       0.048 sec  (  0.9%)
Orbital Orthonormalization  ....       0.000 sec  (  0.0%)
DIIS solution               ....       0.290 sec  (  5.3%)
SOSCF solution              ....       0.115 sec  (  2.1%)
Finished LeanSCF after   5.5 sec

Maximum memory used throughout the entire LEANSCF-calculation: 14.8 MB
[1741000007.260818] [ohm:3228491:0]        ib_iface.c:1059 UCX  ERROR ibv_create_cq(cqe=256) failed: Connection timed out
[1741000007.260818] [ohm:3228489:0]        ib_iface.c:1059 UCX  ERROR ibv_create_cq(cqe=256) failed: Connection timed out
[1741000007.260955] [ohm:3228493:0]        ib_iface.c:1059 UCX  ERROR ibv_create_cq(cqe=256) failed: Connection timed out
[1741000007.261066] [ohm:3228490:0]        ib_iface.c:1059 UCX  ERROR ibv_create_cq(cqe=256) failed: Connection timed out
[1741000007.262282] [ohm:3228492:0]        ib_iface.c:1059 UCX  ERROR ibv_create_cq(cqe=256) failed: Connection timed out
[1741000007.263767] [ohm:3228488:0]        ib_iface.c:1059 UCX  ERROR ibv_create_cq(cqe=256) failed: Connection timed out
[1741000007.268353] [ohm:3228495:0]        ib_iface.c:1059 UCX  ERROR ibv_create_cq(cqe=256) failed: Connection timed out
[1741000007.272506] [ohm:3228497:0]        ib_iface.c:1059 UCX  ERROR ibv_create_cq(cqe=256) failed: Connection timed out
[1741000007.272522] [ohm:3228494:0]        ib_iface.c:1059 UCX  ERROR ibv_create_cq(cqe=256) failed: Connection timed out
[1741000007.273677] [ohm:3228501:0]        ib_iface.c:1059 UCX  ERROR ibv_create_cq(cqe=256) failed: Connection timed out
[1741000007.274916] [ohm:3228513:0]        ib_iface.c:1059 UCX  ERROR ibv_create_cq(cqe=256) failed: Connection timed out
[1741000007.276217] [ohm:3228499:0]        ib_iface.c:1059 UCX  ERROR ibv_create_cq(cqe=256) failed: Connection timed out
[1741000007.284600] [ohm:3228505:0]        ib_iface.c:1059 UCX  ERROR ibv_create_cq(cqe=256) failed: Connection timed out
[1741000007.285792] [ohm:3228517:0]        ib_iface.c:1059 UCX  ERROR ibv_create_cq(cqe=256) failed: Connection timed out
[1741000007.291195] [ohm:3228510:0]        ib_iface.c:1059 UCX  ERROR ibv_create_cq(cqe=256) failed: Connection timed out
[1741000007.291306] [ohm:3228515:0]        ib_iface.c:1059 UCX  ERROR ibv_create_cq(cqe=256) failed: Connection timed out


           ************************************************************
           *        Program running with 16 parallel MPI-processes    *
           *              working on a common directory               *
           ************************************************************

------------------------------------------------------------------------------
                         ORCA PROPERTY INTEGRAL CALCULATIONS
------------------------------------------------------------------------------

GBWName                                   ... orca.gbw
Number of atoms                           ...      7
Number of basis functions                 ...    182
Max core memory                           ...   1024 MB

Dipole integrals                          ... YES
Quadrupole integrals                      ...  NO
Linear momentum integrals                 ... YES
Angular momentum integrals                ... YES
Higher moments length integrals           ...  NO
Higher moments velocity integrals         ...  NO
Kinetic energy integrals                  ...  NO
GIAO right hand sides                     ...  NO
GIAO dipole derivative integrals          ...  NO
SOC integrals                             ...  NO
EPR diamagnetic integrals (GIAO)          ...  NO
EPR gauge integrals                       ...  NO
Field gradient integrals                  ...  NO (   0 nuclei)
Spin-dipole/Fermi contact integrals       ...  NO (   0 nuclei)
Contact density integrals                 ...  NO (   0 nuclei)
Nucleus-orbit integrals                   ...  NO (   0 nuclei)
Geometric perturbations                   ...  NO (   7 nuclei)

Choice of electric origin   ... Center of mass
Position of electric origin ... (  0.2478,  0.1174, -0.0013) 
Choice of magnetic origin   ... GIAO
Position of magnetic origin ... (  0.0000,  0.0000,  0.0000) 

Calculating integrals                     ... Electric Dipole (Length)     done (  0.0 sec)
Calculating integrals                     ... Linear Momentum              done (  0.0 sec)
Calculating integrals                     ... Angular Momentum  (ElOri)    done (  0.0 sec)

Property integrals calculated in   0.0 sec

Maximum memory used throughout the entire PROPINT-calculation: 10.3 MB
[1741000007.958361] [ohm:3228584:0]        ib_iface.c:1059 UCX  ERROR ibv_create_cq(cqe=256) failed: Connection timed out
[1741000007.958651] [ohm:3228586:0]        ib_iface.c:1059 UCX  ERROR ibv_create_cq(cqe=256) failed: Connection timed out
[1741000007.961370] [ohm:3228588:0]        ib_iface.c:1059 UCX  ERROR ibv_create_cq(cqe=256) failed: Connection timed out
[1741000007.961489] [ohm:3228590:0]        ib_iface.c:1059 UCX  ERROR ibv_create_cq(cqe=256) failed: Connection timed out
[1741000007.969238] [ohm:3228583:0]        ib_iface.c:1059 UCX  ERROR ibv_create_cq(cqe=256) failed: Connection timed out
[1741000007.969262] [ohm:3228587:0]        ib_iface.c:1059 UCX  ERROR ibv_create_cq(cqe=256) failed: Connection timed out
[1741000007.969422] [ohm:3228585:0]        ib_iface.c:1059 UCX  ERROR ibv_create_cq(cqe=256) failed: Connection timed out
[1741000007.969569] [ohm:3228589:0]        ib_iface.c:1059 UCX  ERROR ibv_create_cq(cqe=256) failed: Connection timed out
[1741000007.969997] [ohm:3228591:0]        ib_iface.c:1059 UCX  ERROR ibv_create_cq(cqe=256) failed: Connection timed out
[1741000007.972339] [ohm:3228593:0]        ib_iface.c:1059 UCX  ERROR ibv_create_cq(cqe=256) failed: Connection timed out
[1741000007.972330] [ohm:3228597:0]        ib_iface.c:1059 UCX  ERROR ibv_create_cq(cqe=256) failed: Connection timed out
[1741000007.972338] [ohm:3228606:0]        ib_iface.c:1059 UCX  ERROR ibv_create_cq(cqe=256) failed: Connection timed out
[1741000007.972804] [ohm:3228595:0]        ib_iface.c:1059 UCX  ERROR ibv_create_cq(cqe=256) failed: Connection timed out
[1741000007.985346] [ohm:3228601:0]        ib_iface.c:1059 UCX  ERROR ibv_create_cq(cqe=256) failed: Connection timed out
[1741000007.985400] [ohm:3228609:0]        ib_iface.c:1059 UCX  ERROR ibv_create_cq(cqe=256) failed: Connection timed out
[1741000007.985871] [ohm:3228611:0]        ib_iface.c:1059 UCX  ERROR ibv_create_cq(cqe=256) failed: Connection timed out


           ************************************************************
           *        Program running with 16 parallel MPI-processes    *
           *              working on a common directory               *
           ************************************************************
------------------------------------------------------------------------------
                        ORCA TD-DFT/TDA CALCULATION
------------------------------------------------------------------------------

Input orbitals are from        ... orca.gbw
CI-vector output               ... orca.cis
Solver                         ... FN-2001
Tamm-Dancoff approximation     ... operative
CIS-Integral strategy          ... AO-integrals
Integral handling              ... AO integral Direct
Max. core memory used          ... 512 MB
Reference state                ... UHF
Follow IRoot                   ... off
Number of operators            ... 2
Orbital ranges used for CIS calculation:
 Operator 0:  Orbitals   3... 12  to  11...181

-------------------
XC-INTEGRATION GRID
-------------------

General Integration Accuracy     IntAcc      ... 3.467
Radial Grid Type                 RadialGrid  ... OptM3 with GC (2021)
Angular Grid (max. ang.)         AngularGrid ... 1 (Lebedev-50)
Angular grid pruning method      GridPruning ... 4 (adaptive)
Weight generation scheme         WeightScheme... mBecke (2022)
Basis function cutoff            BFCut       ... 1.0000e-11
Integration weight cutoff        WCut        ... 1.0000e-14
Partially contracted basis set               ... off
Rotationally invariant grid construction     ... off
Angular grids for H and He will be reduced by one unit
Diffuse basis detected: some atoms will have their outermost
                        angular grid increased by 1.

Total number of grid points                  ...     4740
Total number of batches                      ...       77
Average number of points per batch           ...       61
Average number of grid points per atom       ...      677

---------------------
COSX-INTEGRATION GRID
---------------------

General Integration Accuracy     IntAcc      ... 3.067
Radial Grid Type                 RadialGrid  ... OptM3 with GC (2021)
Angular Grid (max. ang.)         AngularGrid ... 1 (Lebedev-50)
Angular grid pruning method      GridPruning ... 4 (adaptive)
Weight generation scheme         WeightScheme... mBecke (2022)
Basis function cutoff            BFCut       ... 1.0000e-11
Integration weight cutoff        WCut        ... 1.0000e-14
Partially contracted basis set               ... on
Rotationally invariant grid construction     ... off
Angular grids for H and He will be reduced by one unit
Diffuse basis detected: some atoms will have their outermost
                        angular grid increased by 1.

Total number of grid points                  ...     2152
Total number of batches                      ...       22
Average number of points per batch           ...       97
Average number of grid points per atom       ...      307

---------------
TD-DFT XC SETUP
---------------

DFT calculation                         ... on
Name of the grid file                   ... orca.grid_cis.tmp
RI-approximation                        ... on
Aux-basis dimension                     ... 0
Functional (TD-DFT)
  Functional kind                       .... Exchange-Correlation
  Functional name                       .... wB97M-V exchange-correlation functional
  Functional family                     .... Hybrid MGGA
  Functional refs                              
    [ 0] N. Mardirossian and M. Head-Gordon.,  J. Chem. Phys. 144, 214110 (2016), doi: 10.1063/1.4952647
  Fraction of HF Exchange (short range) .... 0.1500
  Fraction of HF Exchange (long range)  .... 1.0000
  Range separation parameter mu         .... 0.3000
  Functional external parameters        .... 17
    Parameter  0 _cx00      =  8.500000e-01 : u^00 coefficient for exchange
    Parameter  1 _cx01      =  1.007000e+00 : u^01 coefficient for exchange
    Parameter  2 _cx10      =  2.590000e-01 : u^10 coefficient for exchange
    Parameter  3 _css00     =  4.430000e-01 : u^00 coefficient for same-spin correlation
    Parameter  4 _css04     = -1.437000e+00 : u^04 coefficient for same-spin correlation
    Parameter  5 _css10     = -4.535000e+00 : u^10 coefficient for same-spin correlation
    Parameter  6 _css20     = -3.390000e+00 : u^20 coefficient for same-spin correlation
    Parameter  7 _css43     =  4.278000e+00 : u^43 coefficient for same-spin correlation
    Parameter  8 _cos00     =  1.000000e+00 : u^00 coefficient for opposite-spin correlation
    Parameter  9 _cos10     =  1.358000e+00 : u^10 coefficient for opposite-spin correlation
    Parameter 10 _cos20     =  2.924000e+00 : u^20 coefficient for opposite-spin correlation
    Parameter 11 _cos21     = -8.812000e+00 : u^21 coefficient for opposite-spin correlation
    Parameter 12 _cos60     = -1.390000e+00 : u^60 coefficient for opposite-spin correlation
    Parameter 13 _cos61     =  9.142000e+00 : u^61 coefficient for opposite-spin correlation
    Parameter 14 _alpha     =  1.000000e+00 : fraction of HF exchange
    Parameter 15 _beta      = -8.500000e-01 : fraction of short-range exchange
    Parameter 16 _omega     =  3.000000e-01 : range-separation constant
Hybrid DFT                              ... on
   Exchange mixing (TD-DFT)             ...  0.150
   GGA exch. scaling (TD-DFT)           ...  0.000
   GGA corr. scaling (TD-DFT)           ...  1.000
Range-Separated Exchange                ... on
   Range Range separation parameter mu  .... 0.300
   Max. amount of RS exchange (TD-DFT)  ...  0.850

Building densities             ... done
Calculating rho(r) on the grid ... done
Building xc-kernel on the grid ... done
                    *** TD-DFT CALCULATION INITIALIZED ***

------------------------
DAVIDSON-DIAGONALIZATION
------------------------

Dimension of the eigenvalue problem            ...   1710
Number of roots to be determined               ...      2
Maximum size of the expansion space            ...     20
Maximum number of iterations                   ...    100
Convergence tolerance for the residual         ...    2.500e-07
Convergence tolerance for the energies         ...    2.500e-07
Orthogonality tolerance                        ...    1.000e-14
Level Shift                                    ...    0.000e+00
Constructing the preconditioner                ... o.k.
Building the initial guess                     ... o.k.
Number of trial vectors determined             ...     20


                       ****Iteration    0****
   Time for iteration     :  TOTAL=0.2 TRAFO=0.0 RIJ=0.0 COSX=0.2
   Size of expansion space: 6
   Lowest Energy          :     0.023429162777
   Maximum Energy change  :     0.056455606392 (vector 1)
   Maximum residual norm  :     0.004520202347

                       ****Iteration    1****
   Time for iteration     :  TOTAL=0.1 TRAFO=0.0 COSX=0.1
   Size of expansion space: 8
   Lowest Energy          :     0.012972977484
   Maximum Energy change  :     0.016733246213 (vector 1)
   Maximum residual norm  :     0.000294128582

                       ****Iteration    2****
   Time for iteration     :  TOTAL=0.1 TRAFO=0.0 COSX=0.1
   Size of expansion space: 10
   Lowest Energy          :     0.012442320151
   Maximum Energy change  :     0.000530657334 (vector 0)
   Maximum residual norm  :     0.000011886399

                       ****Iteration    3****
   Time for iteration     :  TOTAL=0.1 TRAFO=0.0 RIJ=0.0 COSX=0.1
   Size of expansion space: 12
   Lowest Energy          :     0.012431454069
   Maximum Energy change  :     0.000013604944 (vector 1)
   Maximum residual norm  :     0.000000586998

                       ****Iteration    4****
   Time for iteration     :  TOTAL=0.1 TRAFO=0.0 COSX=0.1
   Size of expansion space: 14
   Lowest Energy          :     0.012431269236
   Maximum Energy change  :     0.000000768802 (vector 1)
   Maximum residual norm  :     0.000000036699

      *** CONVERGENCE OF RESIDUAL NORM REACHED ***

Storing the converged CI vectors               ... orca.cis3

                 *** DAVIDSON DONE ***

Total time for solving the CIS problem:     0.778sec

---------------------
SF-TDA EXCITED STATES
---------------------

the weight of the individual excitations are printed if larger than 1.0e-02

UHF/UKS reference: multiplicity estimated based on rounded <S**2> value, RELEVANCE IS LIMITED!

(SPIN-FLIP GROUND STATE)
STATE  1:  E=   0.012431 au      0.338 eV     2728.3 cm**-1 <S**2> =   0.450218 Mult 1
     7a ->  11b  :     0.020735 (c= -0.14399785)
    11a ->  11b  :     0.303626 (c= -0.55102313)
    12a ->  11b  :     0.656789 (c=  0.81042529)

STATE  2:  E=   0.039240 au      1.068 eV     8612.2 cm**-1 <S**2> =   1.046138 Mult 3
    12a ->  12b  :     0.921305 (c=  0.95984621)
    12a ->  16b  :     0.020293 (c= -0.14245356)
    12a ->  18b  :     0.011117 (c=  0.10543827)
    12a ->  21b  :     0.018349 (c=  0.13545809)


-----------------------------
TD-DFT/TDA-EXCITATION SPECTRA
-----------------------------

Center of mass = (  0.2478,  0.1174, -0.0013)
Generating CIS-Spin-flip transition densities           ... done

UHF/UKS reference: multiplicity estimated based on rounded <S**2> value, use it judiciously!

----------------------------------------------------------------------------------------------------
          SPIN FLIP ABSORPTION SPECTRUM VIA TRANSITION ELECTRIC DIPOLE MOMENTS    
----------------------------------------------------------------------------------------------------
     Transition      Energy     Energy  Wavelength fosc(D2)      D2        DX        DY        DZ   
                      (eV)      (cm-1)    (nm)                 (au**2)    (au)      (au)      (au)  
----------------------------------------------------------------------------------------------------
  1-3A  ->  2-3A    0.729502    5883.8  1699.6   0.000084087   0.00470   0.00016  -0.00010  -0.06859

----------------------------------------------------------------------------------------------------
          SPIN FLIP ABSORPTION SPECTRUM VIA TRANSITION VELOCITY DIPOLE MOMENTS    
----------------------------------------------------------------------------------------------------
     Transition      Energy     Energy  Wavelength fosc(P2)      P2        PX        PY        PZ   
                      (eV)      (cm-1)    (nm)                 (au**2)    (au)      (au)      (au)  
----------------------------------------------------------------------------------------------------
  1-3A  ->  2-3A    0.729502    5883.8  1699.6   0.000050627   0.00000   0.00000  -0.00002  -0.00143

------------------------------------------------------------------------------------------
          SPIN FLIP CD SPECTRUM VIA TRANSITION ELECTRIC DIPOLE MOMENTS    
------------------------------------------------------------------------------------------
     Transition      Energy     Energy  Wavelength    R        MX        MY        MZ   
                      (eV)      (cm-1)    (nm)   (1e40*cgs)   (au)      (au)      (au)  
------------------------------------------------------------------------------------------
  1-3A  ->  2-3A    0.729502    5883.8  1699.6    0.00818  -0.03834   0.00347   0.00016

------------------------------------------------------------------------------------------
[...]
      f-1     :    -0.000010
      f+2     :     0.008160
      f-2     :     0.000273
      f+3     :    -0.008858
      f-3     :    -0.001490
  2 C s       :    -0.020290  s :    -0.020290
      pz      :    -0.010204  p :    -0.617644
      px      :    -0.035486
      py      :    -0.571954
      dz2     :     0.001520  d :    -0.000859
      dxz     :     0.005776
      dyz     :     0.001167
      dx2y2   :    -0.008407
      dxy     :    -0.000915
      f0      :     0.000073  f :     0.000818
      f+1     :     0.000496
      f-1     :    -0.000220
      f+2     :     0.000546
      f-2     :    -0.000098
      f+3     :    -0.000216
      f-3     :     0.000238
  3 H s       :     0.039445  s :     0.039445
      pz      :     0.001207  p :    -0.010006
      px      :    -0.000830
      py      :    -0.010383
      dz2     :    -0.000087  d :    -0.000044
      dxz     :     0.000126
      dyz     :    -0.000084
      dx2y2   :     0.000132
      dxy     :    -0.000130
  4 H s       :     0.039499  s :     0.039499
      pz      :     0.001190  p :    -0.009989
      px      :    -0.000814
      py      :    -0.010364
      dz2     :    -0.000088  d :    -0.000044
      dxz     :     0.000128
      dyz     :    -0.000084
      dx2y2   :     0.000131
      dxy     :    -0.000130
  5 H s       :     0.009461  s :     0.009461
      pz      :    -0.003248  p :    -0.086342
      px      :    -0.005338
      py      :    -0.077756
      dz2     :    -0.000465  d :    -0.009261
      dxz     :    -0.000560
      dyz     :    -0.005890
      dx2y2   :    -0.000135
      dxy     :    -0.002211
  6 H s       :     0.009462  s :     0.009462
      pz      :    -0.003238  p :    -0.086309
      px      :    -0.005334
      py      :    -0.077737
      dz2     :    -0.000479  d :    -0.009260
      dxz     :    -0.000555
      dyz     :    -0.005886
      dx2y2   :    -0.000127
      dxy     :    -0.002213


                      *****************************
                      * MAYER POPULATION ANALYSIS *
                      *****************************

  NA   - Mulliken gross atomic population
  ZA   - Total nuclear charge
  QA   - Mulliken gross atomic charge
  VA   - Mayer's total valence
  BVA  - Mayer's bonded valence
  FA   - Mayer's free valence

  ATOM       NA         ZA         QA         VA         BVA        FA
  0 O      8.3355     8.0000    -0.3355     1.8822     1.1153     0.7668
  1 C      5.8883     6.0000     0.1117     3.5350     3.3506     0.1844
  2 C      6.4125     6.0000    -0.4125     3.5885     2.9026     0.6859
  3 H      0.8027     1.0000     0.1973     1.0248     1.0295    -0.0047
  4 H      0.8027     1.0000     0.1973     1.0249     1.0296    -0.0047
  5 H      0.8792     1.0000     0.1208     1.1108     1.1069     0.0039
  6 H      0.8792     1.0000     0.1208     1.1108     1.1069     0.0039

  Mayer bond orders larger than 0.100000
B(  0-O ,  1-C ) :   0.9537 B(  1-C ,  2-C ) :   0.5931 B(  1-C ,  3-H ) :   0.9615 
B(  1-C ,  4-H ) :   0.9616 B(  2-C ,  5-H ) :   1.1253 B(  2-C ,  6-H ) :   1.1252 



-------
TIMINGS
-------

Total TD-DFT gradient time  ....        4.997 sec

Fock matrix formation       ....       1.140 sec  ( 22.8%)
  Coulomb formation         ....       0.895 sec  ( 78.6% of F)
  XC integration            ....       0.244 sec  ( 21.4% of F)
Z-vector equation           ....       1.312 sec  ( 26.2%)
Densities                   ....       0.000 sec  (  0.0%)
One electron gradient       ....       0.009 sec  (  0.2%)
Two electron gradient       ....       0.000 sec  (  0.0%)
RI-J Coulomb gradient       ....       0.091 sec  (  1.8%)
COSX gradient               ....       0.423 sec  (  8.5%)
XC gradient                 ....       1.757 sec  ( 35.2%)

Maximum memory used throughout the entire CIS-calculation: 35.8 MB
=> NOW LEAVING ORCA_CIS


-------------------------------------------------------------------------------
                          DFT DISPERSION CORRECTION                            
                                                                               
                              DFTD3 V3.1  Rev 1                                
                          USING Becke-Johnson damping                          
-------------------------------------------------------------------------------
The WB97M functional is recognized
Active option DFTDOPT                   ...         4   

molecular C6(AA) [au] = 394.515789 


            DFT-D V3
 parameters
 s6 scaling factor         :     1.0000 
 a1 scaling factor         :     0.5660 
 s8 scaling factor         :     0.3908 
 a2 scaling factor         :     3.1280 
 ad hoc parameters k1-k3   :    16.0000     1.3333    -4.0000 

 Edisp/kcal,au: -3.523884790992  -0.005615667270 
 E6   /kcal   :  -2.838555519 
 E8   /kcal   :  -0.685329272 
 % E8         :  19.448117978 

-------------------------   ----------------
Dispersion correction           -0.005615667
-------------------------   ----------------


-------------------------   --------------------
FINAL SINGLE POINT ENERGY      -153.744955205808
-------------------------   --------------------

[1741000014.501235] [ohm:3228694:0]        ib_iface.c:1059 UCX  ERROR ibv_create_cq(cqe=256) failed: Connection timed out
[1741000014.502069] [ohm:3228692:0]        ib_iface.c:1059 UCX  ERROR ibv_create_cq(cqe=256) failed: Connection timed out
[1741000014.525029] [ohm:3228697:0]        ib_iface.c:1059 UCX  ERROR ibv_create_cq(cqe=256) failed: Connection timed out
[1741000014.526643] [ohm:3228695:0]        ib_iface.c:1059 UCX  ERROR ibv_create_cq(cqe=256) failed: Connection timed out
[1741000014.526643] [ohm:3228693:0]        ib_iface.c:1059 UCX  ERROR ibv_create_cq(cqe=256) failed: Connection timed out
[1741000014.526673] [ohm:3228691:0]        ib_iface.c:1059 UCX  ERROR ibv_create_cq(cqe=256) failed: Connection timed out
[1741000014.531695] [ohm:3228702:0]        ib_iface.c:1059 UCX  ERROR ibv_create_cq(cqe=256) failed: Connection timed out
[1741000014.532081] [ohm:3228699:0]        ib_iface.c:1059 UCX  ERROR ibv_create_cq(cqe=256) failed: Connection timed out
[1741000014.533299] [ohm:3228698:0]        ib_iface.c:1059 UCX  ERROR ibv_create_cq(cqe=256) failed: Connection timed out
[1741000014.533347] [ohm:3228700:0]        ib_iface.c:1059 UCX  ERROR ibv_create_cq(cqe=256) failed: Connection timed out
[1741000014.551109] [ohm:3228720:0]        ib_iface.c:1059 UCX  ERROR ibv_create_cq(cqe=256) failed: Connection timed out
[1741000014.551082] [ohm:3228706:0]        ib_iface.c:1059 UCX  ERROR ibv_create_cq(cqe=256) failed: Connection timed out
[1741000014.551177] [ohm:3228714:0]        ib_iface.c:1059 UCX  ERROR ibv_create_cq(cqe=256) failed: Connection timed out
[1741000014.554728] [ohm:3228710:0]        ib_iface.c:1059 UCX  ERROR ibv_create_cq(cqe=256) failed: Connection timed out
[1741000014.554813] [ohm:3228704:0]        ib_iface.c:1059 UCX  ERROR ibv_create_cq(cqe=256) failed: Connection timed out
[1741000014.554812] [ohm:3228717:0]        ib_iface.c:1059 UCX  ERROR ibv_create_cq(cqe=256) failed: Connection timed out


           ************************************************************
           *        Program running with 16 parallel MPI-processes    *
           *              working on a common directory               *
           ************************************************************

------------------------------------------------------------------------------
                              ORCA PROPERTY CALCULATIONS
------------------------------------------------------------------------------

GBWName                                 ... orca.gbw
Number of atoms                         ...      7
Number of basis functions               ...    182
Max core memory                         ...   1024 MB

Electric properties:
Dipole moment                           ... YES
Quadrupole moment                       ...  NO
Static polarizability (Dipole/Dipole)   ...  NO
Static polarizability (Dipole/Quad.)    ...  NO
Static polarizability (Quad./Quad.)     ...  NO
Static polarizability (Velocity)        ...  NO

Atomic electric properties:
Dipole moment                           ...  NO
Quadrupole moment                       ...  NO
Static polarizability                   ...  NO

Choice of electric origin               ... Center of mass
Position of electric origin             ...     0.247800     0.117382    -0.001294

General magnetic properties:
Magnetizability                         ...  NO

EPR properties:
g-Tensor (aka g-matrix)                 ...  NO
Zero-Field splitting spin-orbit         ...  NO
Zero-field splitting spin-spin          ...  NO
Hyperfine couplings                     ...  NO (   0 nuclei)
Quadrupole couplings                    ...  NO (   0 nuclei)
Contact density                         ...  NO (   0 nuclei)

NMR properties:
Chemical shifts                         ...  NO (   0 nuclei)
Spin-rotation constants                 ...  NO (   0 nuclei)
Spin-spin couplings                     ...  NO (   0 nuclei,    0 pairs)

Choice of magnetic origin               ... GIAO
Position of magnetic origin             ...     0.000000     0.000000     0.000000

Properties with geometric perturbations:
SCF Hessian                             ...  NO
IR spectrum                             ...  NO
VCD spectrum                            ...  NO
X-ray spectroscopy properties:
SCF XES/XAS/RIXS spectra                ...  NO


-------------
DIPOLE MOMENT
-------------

Method             : SCF
Type of density    : Electron Density
Multiplicity       :   3
Irrep              :   0
Energy             :  -153.7785794970619691 Eh
Relativity type    : 
Basis              : AO
                                X                 Y                 Z
Electronic contribution:      0.937023041       2.236130315      -0.003483288
Nuclear contribution   :     -0.808932586      -2.862098983       0.004263661
                        -----------------------------------------
Total Dipole Moment    :      0.128090455      -0.625968668       0.000780374
                        -----------------------------------------
Magnitude (a.u.)       :      0.638940175
Magnitude (Debye)      :      1.624056859



--------------------
Rotational spectrum 
--------------------
 
Rotational constants in cm-1:             1.281136             0.396690             0.343233 
Rotational constants in MHz :         38407.486147         11892.455997         10289.861546 

Dipole components along the rotational axes: 
x,y,z [a.u.] :    -0.424338     0.477684    -0.000009 
x,y,z [Debye]:    -1.078582     1.214175    -0.000023 

 

-------------
DIPOLE MOMENT
-------------

Method             : TDA/CIS
Type of density    : Electron Density
Level              : Relaxed density
State              :   2
Multiplicity       :   3
Irrep              :   0
Energy             :     0.0000000000000000 Eh
Relativity type    : 
Basis              : AO
                                X                 Y                 Z
Electronic contribution:      0.963987064       2.380723740      -0.003781653
Nuclear contribution   :     -0.808932586      -2.862098983       0.004263661
                        -----------------------------------------
Total Dipole Moment    :      0.155054478      -0.481375243       0.000482008
                        -----------------------------------------
Magnitude (a.u.)       :      0.505731399
Magnitude (Debye)      :      1.285467059



--------------------
Rotational spectrum 
--------------------
 
Rotational constants in cm-1:             1.281136             0.396690             0.343233 
Rotational constants in MHz :         38407.486147         11892.455997         10289.861546 

Dipole components along the rotational axes: 
x,y,z [a.u.] :    -0.292428     0.412614    -0.000085 
x,y,z [Debye]:    -0.743293     1.048781    -0.000216 

 

Dipole moment calculation done in   0.0 sec 

Maximum memory used throughout the entire PROP-calculation: 7.5 MB
[1741000015.201805] [ohm:3228781:0]        ib_iface.c:1059 UCX  ERROR ibv_create_cq(cqe=256) failed: Connection timed out
[1741000015.202314] [ohm:3228777:0]        ib_iface.c:1059 UCX  ERROR ibv_create_cq(cqe=256) failed: Connection timed out
[1741000015.205261] [ohm:3228783:0]        ib_iface.c:1059 UCX  ERROR ibv_create_cq(cqe=256) failed: Connection timed out
[1741000015.205738] [ohm:3228779:0]        ib_iface.c:1059 UCX  ERROR ibv_create_cq(cqe=256) failed: Connection timed out
[1741000015.207676] [ohm:3228778:0]        ib_iface.c:1059 UCX  ERROR ibv_create_cq(cqe=256) failed: Connection timed out
[1741000015.207840] [ohm:3228776:0]        ib_iface.c:1059 UCX  ERROR ibv_create_cq(cqe=256) failed: Connection timed out
[1741000015.208170] [ohm:3228780:0]        ib_iface.c:1059 UCX  ERROR ibv_create_cq(cqe=256) failed: Connection timed out
[1741000015.208654] [ohm:3228786:0]        ib_iface.c:1059 UCX  ERROR ibv_create_cq(cqe=256) failed: Connection timed out
[1741000015.213395] [ohm:3228782:0]        ib_iface.c:1059 UCX  ERROR ibv_create_cq(cqe=256) failed: Connection timed out
[1741000015.213416] [ohm:3228784:0]        ib_iface.c:1059 UCX  ERROR ibv_create_cq(cqe=256) failed: Connection timed out
[1741000015.222749] [ohm:3228802:0]        ib_iface.c:1059 UCX  ERROR ibv_create_cq(cqe=256) failed: Connection timed out
[1741000015.224777] [ohm:3228808:0]        ib_iface.c:1059 UCX  ERROR ibv_create_cq(cqe=256) failed: Connection timed out
[1741000015.224841] [ohm:3228793:0]        ib_iface.c:1059 UCX  ERROR ibv_create_cq(cqe=256) failed: Connection timed out
[1741000015.225914] [ohm:3228804:0]        ib_iface.c:1059 UCX  ERROR ibv_create_cq(cqe=256) failed: Connection timed out
[1741000015.225914] [ohm:3228789:0]        ib_iface.c:1059 UCX  ERROR ibv_create_cq(cqe=256) failed: Connection timed out
[1741000015.226393] [ohm:3228798:0]        ib_iface.c:1059 UCX  ERROR ibv_create_cq(cqe=256) failed: Connection timed out

--------------------------------
SUGGESTED CITATIONS FOR THIS RUN
--------------------------------

Below you find a list of papers that are relevant to this ORCA run
We neither can nor want to force you to cite these papers, but we appreciate if you do
You receive ORCA, which is the product of decades of hard work by many enthusiastic individuals, for free
The only thing we kindly ask in return is that you cite our papers,
We deeply appreciate it, if you show your appreciation for ORCA by not just citing the generic ORCA reference.

Please note that relegating all ORCA citations to the supporting information does *not* help us.
SI sections are not indexed - citations you put there will not count into any citation statistics
But we need these citations in order to attract the funding resources that allow us to do what we are doing

Therefore, if you are a happy ORCA user, please consider citing a few of the papers listed below in the main body of your paper

In addition to the list printed below, the program has created the file orca.bibtex that contains the list in bibtex format
You can import this file easily into all common literature databanks and citation aid programs


List of essential papers. We consider these as the minimum necessary citations

  1. Neese,F.
     Software update: the ORCA program system, version 5.0
     WIRES Comput. Molec. Sci., 2022 12(1)e1606
     doi.org/10.1002/wcms.1606

List of papers to cite with high priority. The work reported in these papers was absolutely
necessary for this run to complete.
Our perspective: the developers of density functionals and basis sets usually get cited in chemistry papers
Good! But without the algorithms to do something with them, the functionals or basis sets would not do anything.
Hence, in our opinion, the algorithm design and method developments papers are equally worthy of getting cited

  1. Neese,F.; Olbrich,G.
     Efficient use of the resolution of the identity approximation in time-dependent density functional calculations with hybrid density functionals
     Chem. Phys. Lett., 2002 362 170-178
     doi.org/10.1016/s0009-2614(02)01053-9
  2. Neese,F.
     An improvement of the resolution of the identity approximation for the formation of the Coulomb matrix
     J. Comp. Chem., 2003 24(14)1740-1747
     doi.org/10.1002/jcc.10318
  3. Neese,F.; Wennmohs,F.; Hansen,A.; Becker,U.
     Efficient, approximate and parallel Hartree-Fock and hybrid DFT calculations. A 'chain-of-spheres' algorithm for the Hartree-Fock exchange
     Chem. Phys., 2009 356(1-3)98-109
     doi.org/10.1016/j.chemphys.2008.10.036
  4. Petrenko,T.; Kossmann,S.; Neese,F.
     Efficient time-dependent density functional theory approximations for hybrid density functionals: Analytical gradients and parallelization
     J. Chem. Phys., 2011 134 054116
     doi.org/10.1063/1.3533441
  5. Helmich-Paris,B.; de Souza,B.; Neese,F.; Izsák,R.
     An improved chain of spheres for exchange algorithm
     J. Chem. Phys., 2021 155 104109
     doi.org/doi: 10.1063/5.0058766.
  6. Neese,F.
     The SHARK Integral Generation and Digestion System
     J. Comp. Chem., 2022  1-16
     doi.org/10.1002/jcc.26942
  7. Lehtola,S.; Steigemann,C.; Oliveira,M.; Marques,M.
     Recent developments in Libxc - A comprehensive library of functionals for density functional theory
     Software X, 2018 7 
     doi.org/10.1016/j.softx.2017.11.002
  8. Grimme,S.; Antony,J.; Ehrlich,S.; Krieg,H.
     A consistent and accurate ab initio parametrization of density functional dispersion correction (DFT-D) for the 94 elements H-Pu
     J. Chem. Phys., 2010 132 154104-XXXX
     doi.org/10.1063/1.3382344
  9. Grimme,S.; Ehrlich,S.; Goerigk,L.
     Effect of the damping function in dispersion corrected density functional theory
     J. Comput. Chem., 2011 32(7)1456-1465
     doi.org/10.1002/jcc.21759

List of suggested additional citations. These are papers that are important in the 'surrounding' of 
of this run, or papers that preceded the highly important papers. If you like your results we are grateful for a citation.

  1. Izsak,R.; Neese,F.
     An overlap fitted chain of spheres exchange method
     J. Chem. Phys., 2011 135 144105
     doi.org/10.1063/1.3646921
  2. Izsak,R.; Hansen,A.; Neese,F.
     The resolution of identity and chain of spheres approximations for the LPNO-CCSD singles Fock term
     Molec. Phys., 2012 110 2413-2417
     doi.org/10.1080/00268976.2012.687466
  3. Neese,F.
     The ORCA program system
     WIRES Comput. Molec. Sci., 2012 2(1)73-78
     doi.org/10.1002/wcms.81
  4. Izsak,R.; Neese,F.; Klopper,W.
     Robust fitting techniques in the chain of spheres approximation to the Fock exchange: The role of the complementary space
     J. Chem. Phys., 2013 139 
     doi.org/10.1063/1.4819264
  5. Neese,F.
     Software update: the ORCA program system, version 4.0
     WIRES Comput. Molec. Sci., 2018 8(1)1-6
     doi.org/10.1002/wcms.1327
  6. Neese,F.; Wennmohs,F.; Becker,U.; Riplinger,C.
     The ORCA quantum chemistry program package
     J. Chem. Phys., 2020 152 Art. No. L224108
     doi.org/10.1063/5.0004608

List of optional additional citations

  1. Neese,F.
     Approximate second-order SCF convergence for spin unrestricted wavefunctions
     Chem. Phys. Lett., 2000 325(1-3)93-98
     doi.org/10.1016/s0009-2614(00)00662-x

Timings for individual modules:

Sum of individual times          ...       15.466 sec (=   0.258 min)
Startup calculation              ...        1.016 sec (=   0.017 min)   6.6 %
SCF iterations                   ...        6.550 sec (=   0.109 min)  42.3 %
Property integrals               ...        0.686 sec (=   0.011 min)   4.4 %
Property calculations            ...        0.674 sec (=   0.011 min)   4.4 %
CIS module                       ...        6.540 sec (=   0.109 min)  42.3 %
                             ****ORCA TERMINATED NORMALLY****
TOTAL RUN TIME: 0 days 0 hours 0 minutes 16 seconds 173 msec
