
                                 *****************
                                 * O   R   C   A *
                                 *****************

                                            #,                                       
                                            ###                                      
                                            ####                                     
                                            #####                                    
                                            ######                                   
                                           ########,                                 
                                     ,,################,,,,,                         
                               ,,#################################,,                 
                          ,,##########################################,,             
                       ,#########################################, ''#####,          
                    ,#############################################,,   '####,        
                  ,##################################################,,,,####,       
                ,###########''''           ''''###############################       
              ,#####''   ,,,,##########,,,,          '''####'''          '####       
            ,##' ,,,,###########################,,,                        '##       
           ' ,,###''''                  '''############,,,                           
         ,,##''                                '''############,,,,        ,,,,,,###''
      ,#''                                            '''#######################'''  
     '                                                          ''''####''''         
             ,#######,   #######,   ,#######,      ##                                
            ,#'     '#,  ##    ##  ,#'     '#,    #''#        ,####,   ,####,        
            ##       ##  ##   ,#'  ##            #'  '#       #'       #'  '#        
            ##       ##  #######   ##           ,######,      #####,   #    #        
            '#,     ,#'  ##    ##  '#,     ,#' ,#      #,     #,   #   #,  ,#        
             '#######'   ##     ##  '#######'  #'      '#     '####' # '####'        



                #########################################################
                #                        -***-                          #
                #          Department of theory and spectroscopy        #
                #                                                       #
                #                      Frank Neese                      #
                #                                                       #
                #     Directorship, Architecture, Infrastructure        #
                #                    SHARK, DRIVERS                     #
                #        Core code/Algorithms in most modules           #
                #                                                       #
                #        Max Planck Institute fuer Kohlenforschung      #
                #                Kaiser Wilhelm Platz 1                 #
                #                 D-45470 Muelheim/Ruhr                 #
                #                      Germany                          #
                #                                                       #
                #                  All rights reserved                  #
                #                        -***-                          #
                #########################################################


                         Program Version 6.0.0  -   RELEASE  -


 With contributions from (in alphabetic order):
   Daniel Aravena         : Magnetic Suceptibility
   Michael Atanasov       : Ab Initio Ligand Field Theory (pilot matlab implementation)
   Alexander A. Auer      : GIAO ZORA, VPT2 properties, NMR spectrum
   Ute Becker             : All parallelization in ORCA, NUMFREQ, NUMCALC
   Giovanni Bistoni       : ED, misc. LED, open-shell LED, HFLD
   Martin Brehm           : Molecular dynamics
   Dmytro Bykov           : pre 5.0 version of the SCF Hessian
   Marcos Casanova-Páez   : Triplet and SCS-CIS(D). UHF-(DLPNO)-IP/EA/STEOM-CCSD. UHF-CVS-IP/STEOM-CCSD
   Vijay G. Chilkuri      : MRCI spin determinant printing, contributions to CSF-ICE
   Pauline Colinet        : FMM embedding
   Dipayan Datta          : RHF DLPNO-CCSD density
   Achintya Kumar Dutta   : EOM-CC, STEOM-CC
   Nicolas Foglia         : Exact transition moments, OPA infrastructure, MCD improvements
   Dmitry Ganyushin       : Spin-Orbit,Spin-Spin,Magnetic field MRCI
   Miquel Garcia          : C-PCM and meta-GGA Hessian, CCSD/C-PCM, Gaussian charge scheme
   Tiago L. C. Gouveia    : GS-ROHF, GS-ROCIS
   Yang Guo               : DLPNO-NEVPT2, F12-NEVPT2, CIM, IAO-localization
   Andreas Hansen         : Spin unrestricted coupled pair/coupled cluster methods
   Ingolf Harden          : AUTO-CI MPn and infrastructure 
   Benjamin Helmich-Paris : MC-RPA, TRAH-(SCF,CASSCF), AVAS, COSX integrals, SCF dyn. polar.
   Lee Huntington         : MR-EOM, pCC
   Robert Izsak           : Overlap fitted RIJCOSX, COSX-SCS-MP3, EOM
   Riya Kayal             : Wick's Theorem for AUTO-CI, AUTO-CI UHF-CCSDT
   Emily Kempfer          : AUTO-CI, RHF CISDT and CCSDT
   Christian Kollmar      : KDIIS, OOCD, Brueckner-CCSD(T), CCSD density, CASPT2, CASPT2-K, improved NEVPT2
   Axel Koslowski         : Symmetry handling
   Simone Kossmann        : Meta GGA functionals, TD-DFT gradient, OOMP2, (MP2 Hessian; deprecated post 5.0)
   Lucas Lang             : DCDCAS
   Marvin Lechner         : AUTO-CI (C++ implementation), FIC-MRCC
   Spencer Leger          : CASSCF response
   Dagmar Lenk            : GEPOL surface, SMD, ORCA-2-JSON
   Dimitrios Liakos       : Extrapolation schemes; Compound Job, initial MDCI parallelization
   Dimitrios Manganas     : Further ROCIS development; embedding schemes. LFT, Crystal Embedding
   Dimitrios Pantazis     : SARC Basis sets
   Anastasios Papadopoulos: AUTO-CI, single reference methods and gradients
   Taras Petrenko         : pre 6.0 DFT Hessian and TD-DFT gradient, (ASA, deprecated), ECA, 1-Electron XAS/XES, NRVS
   Peter Pinski           : DLPNO-MP2, DLPNO-MP2 Gradient
   Christoph Reimann      : Effective Core Potentials
   Marius Retegan         : Local ZFS, SOC
   Christoph Riplinger    : Optimizer, TS searches, QM/MM, DLPNO-CCSD(T), (RO)-DLPNO pert. Triples
   Michael Roemelt        : Original ROCIS implementation
   Masaaki Saitow         : Open-shell DLPNO-CCSD energy and density
   Barbara Sandhoefer     : DKH picture change effects
   Kantharuban Sivalingam : CASSCF convergence/infrastructure, NEVPT2 and variants, FIC-MRCI
   Bernardo de Souza      : ESD, SOC TD-DFT
   Georgi Stoychev        : AutoAux, RI-MP2 NMR, DLPNO-MP2 response, X2C
   Van Anh Tran           : RI-MP2 g-tensors
   Willem Van den Heuvel  : Paramagnetic NMR
   Zikuan Wang            : NOTCH, Electric field optimization 
   Frank Wennmohs         : Technical directorship and infrastructure
   Hang Xu                : AUTO-CI-Response properties 


 We gratefully acknowledge several colleagues who have allowed us to
 interface, adapt or use parts of their codes:
   Stefan Grimme, W. Hujo, H. Kruse, P. Pracht,  : VdW corrections, initial TS optimization,
                  C. Bannwarth, S. Ehlert,         DFT functionals, gCP, sTDA/sTD-DF
                  L. Wittmann, M. Mueller
   Ed Valeev, F. Pavosevic, A. Kumar             : LibInt (2-el integral package), F12 methods
   Garnet Chan, S. Sharma, J. Yang, R. Olivares  : DMRG
   Ulf Ekstrom                                   : XCFun DFT Library
   Mihaly Kallay                                 : mrcc  (arbitrary order and MRCC methods)
   Frank Weinhold                                : gennbo (NPA and NBO analysis)
   Simon Mueller                                 : openCOSMO-RS
   Christopher J. Cramer and Donald G. Truhlar   : smd solvation model
   Lars Goerigk                                  : TD-DFT with DH, B97 family of functionals
   V. Asgeirsson, H. Jonsson                     : NEB implementation
   FAccTs GmbH                                   : IRC, NEB, NEB-TS, DLPNO-Multilevel, CI-OPT
                                                   MM, QMMM, 2- and 3-layer-ONIOM, Crystal-QMMM,
                                                   LR-CPCM, SF, NACMEs, symmetry and pop. for TD-DFT,
                                                   nearIR, NL-DFT gradient (VV10), updates on ESD,
                                                   ML-optimized integration grids, MBIS, APM,
                                                   GOAT, DOCKER, SOLVATOR, interface openCOSMO-RS
   S Lehtola, MJT Oliveira, MAL Marques          : LibXC Library
   Liviu Ungur et al                             : ANISO software


 Your calculation uses the libint2 library for the computation of 2-el integrals
 For citations please refer to: http://libint.valeyev.net

 Your ORCA version has been built with support for libXC version: 6.2.2
 For citations please refer to: https://libxc.gitlab.io

 This ORCA versions uses:
   CBLAS   interface :  Fast vector & matrix operations
   LAPACKE interface :  Fast linear algebra routines
   SCALAPACK package :  Parallel linear algebra routines
   Shared memory     :  Shared parallel matrices
   BLAS/LAPACK       :  OpenBLAS 0.3.27  USE64BITINT DYNAMIC_ARCH NO_AFFINITY Zen SINGLE_THREADED
        Core in use  :  Zen
   Copyright (c) 2011-2014, The OpenBLAS Project


Your calculation utilizes the atom-pairwise dispersion correction
with the Becke-Johnson damping scheme (D3BJ)


Warning: RI is on but no J-basis has been assigned. Assigning Def2/J (nothing to worry about!)
================================================================================

----- Orbital basis set information -----
Your calculation utilizes the basis: def2-TZVPPD
   F. Weigend and R. Ahlrichs, Phys. Chem. Chem. Phys. 7, 3297 (2005).
   D. Rappoport and F. Furche, J. Chem. Phys. 133, 134105 (2010)
   D. Rappoport, J. Chem. Phys. 155, 124102 (2021).

----- AuxJ basis set information -----
Your calculation utilizes the auxiliary basis: def2/J
   F. Weigend, Phys. Chem. Chem. Phys. 8, 1057 (2006).

================================================================================
                                        WARNINGS
                       Please study these warnings very carefully!
================================================================================

Using LibXC functional ID 531 : wB97M-V exchange-correlation functional
[ 1]  N. Mardirossian and M. Head-Gordon.,  J. Chem. Phys. 144, 214110 (2016)
Using LibXC functional ID 531 : wB97M-V exchange-correlation functional
[ 1]  N. Mardirossian and M. Head-Gordon.,  J. Chem. Phys. 144, 214110 (2016)

WARNING: B97M-V or wB97M-V functional requested.
  ===> : libXC variant has now been activated.
         Any manually given DFX/HFX/RangeSep scaling parameters are IGNORED!

Your calculation utilizes LibXC
 by S Lehtola, C Steigemann, MJT Oliveira & MAL Marques
Please cite in your paper:
 S Lehtola, C Steigemann, MJT Oliveira & MAL Marques, SoftwareX, 7, (2018), 1.
   


WARNING: your system is open-shell and RHF/RKS was chosen
  ===> : WILL SWITCH to UHF/UKS

INFO   : Checking CIS options ...

WARNING: CIS/ROCIS methods need fully converged wavefunctions
  ===> : Setting SCFConvForced true
         You can overwrite this default with %scf ConvForced false 


================================================================================
                                       INPUT FILE
================================================================================
NAME = orca.inp
|  1> ! Engrad def2-TZVPPD wB97M-D3BJ 
|  2> %pal nprocs 8 end%pal nprocs 64 end 
|  3> %tddft Nroots 2 Iroot 1 
|  4> sf true 
|  5> end 
|  6> *xyz 0 3 
|  7> O   2.60404722 1.15505994 -0.51695747
|  8> O   -0.58391005 0.87187548 -2.28215811
|  9> O   0.64160428 -2.8283577 -1.50807198
| 10> O   -2.53786237 -1.63486837 0.97519183
| 11> N   0.60386163 -2.0916403 0.64530644
| 12> N   -2.00031329 0.53384376 1.42690825
| 13> N   1.70310002 -0.87238295 -0.97062383
| 14> N   -1.62807946 -0.33197883 -0.66144072
| 15> C   1.42103562 0.08319842 1.22211208
| 16> C   -0.82637556 1.89017795 -0.15901958
| 17> C   0.77562794 -1.06187709 1.54194381
| 18> C   -1.3825957 1.70197984 1.07719486
| 19> C   1.67092968 1.18478165 2.1981838
| 20> C   -0.12906071 3.13551359 -0.56642189
| 21> C   1.96005067 0.20469405 -0.12302487
| 22> C   -0.98636073 0.81398153 -1.13058399
| 23> C   0.95962288 -1.99746121 -0.67997565
| 24> C   -2.09724033 -0.56455767 0.61021857
| 25> H   0.40069032 -1.21544323 2.51663458
| 26> H   -1.36894737 2.4933921 1.82828227
| 27> H   1.38964061 2.13069134 1.78048241
| 28> H   1.13205994 1.02726629 3.11877515
| 29> H   2.74795543 1.25347385 2.41806138
| 30> H   -0.59440696 3.57361636 -1.43967879
| 31> H   -0.17286709 3.88132646 0.23104324
| 32> H   0.90106785 2.92625143 -0.81305377
| 33> H   -0.03710414 -2.82736733 0.86881092
| 34> H   -2.37505742 0.40261639 2.35116293
| 35> H   1.96076159 -0.75153348 -1.94346674
| 36> H   -1.69896707 -1.10630917 -1.29968399
| 37> *
| 38> 
| 39>                          ****END OF INPUT****
================================================================================

                     *******************************
                     * Energy+Gradient Calculation *
                     *******************************

---------------------------------
CARTESIAN COORDINATES (ANGSTROEM)
---------------------------------
  O      2.604047    1.155060   -0.516957
  O     -0.583910    0.871875   -2.282158
  O      0.641604   -2.828358   -1.508072
  O     -2.537862   -1.634868    0.975192
  N      0.603862   -2.091640    0.645306
  N     -2.000313    0.533844    1.426908
  N      1.703100   -0.872383   -0.970624
  N     -1.628079   -0.331979   -0.661441
  C      1.421036    0.083198    1.222112
  C     -0.826376    1.890178   -0.159020
  C      0.775628   -1.061877    1.541944
  C     -1.382596    1.701980    1.077195
  C      1.670930    1.184782    2.198184
  C     -0.129061    3.135514   -0.566422
  C      1.960051    0.204694   -0.123025
  C     -0.986361    0.813982   -1.130584
  C      0.959623   -1.997461   -0.679976
  C     -2.097240   -0.564558    0.610219
  H      0.400690   -1.215443    2.516635
  H     -1.368947    2.493392    1.828282
  H      1.389641    2.130691    1.780482
  H      1.132060    1.027266    3.118775
  H      2.747955    1.253474    2.418061
  H     -0.594407    3.573616   -1.439679
  H     -0.172867    3.881326    0.231043
  H      0.901068    2.926251   -0.813054
  H     -0.037104   -2.827367    0.868811
  H     -2.375057    0.402616    2.351163
  H      1.960762   -0.751533   -1.943467
  H     -1.698967   -1.106309   -1.299684

----------------------------
CARTESIAN COORDINATES (A.U.)
----------------------------
  NO LB      ZA    FRAG     MASS         X           Y           Z
   0 O     8.0000    0    15.999    4.920936    2.182747   -0.976908
   1 O     8.0000    0    15.999   -1.103430    1.647606   -4.312654
   2 O     8.0000    0    15.999    1.212456   -5.344821   -2.849843
   3 O     8.0000    0    15.999   -4.795865   -3.089453    1.842845
   4 N     7.0000    0    14.007    1.141133   -3.952627    1.219452
   5 N     7.0000    0    14.007   -3.780044    1.008819    2.696466
   6 N     7.0000    0    14.007    3.218393   -1.648565   -1.834213
   7 N     7.0000    0    14.007   -3.076624   -0.627349   -1.249942
   8 C     6.0000    0    12.011    2.685368    0.157222    2.309457
   9 C     6.0000    0    12.011   -1.561623    3.571919   -0.300503
  10 C     6.0000    0    12.011    1.465724   -2.006657    2.913852
  11 C     6.0000    0    12.011   -2.612727    3.216276    2.035603
  12 C     6.0000    0    12.011    3.157599    2.238913    4.153965
  13 C     6.0000    0    12.011   -0.243889    5.925262   -1.070382
  14 C     6.0000    0    12.011    3.703959    0.386816   -0.232483
  15 C     6.0000    0    12.011   -1.863952    1.538202   -2.136494
  16 C     6.0000    0    12.011    1.813424   -3.774655   -1.284968
  17 C     6.0000    0    12.011   -3.963210   -1.066859    1.153146
  18 H     1.0000    0     1.008    0.757195   -2.296855    4.755750
  19 H     1.0000    0     1.008   -2.586936    4.711828    3.454953
  20 H     1.0000    0     1.008    2.626040    4.026423    3.364624
  21 H     1.0000    0     1.008    2.139283    1.941252    5.893631
  22 H     1.0000    0     1.008    5.192883    2.368722    4.569474
  23 H     1.0000    0     1.008   -1.123266    6.753156   -2.720599
  24 H     1.0000    0     1.008   -0.326671    7.334644    0.436608
  25 H     1.0000    0     1.008    1.702771    5.529814   -1.536449
  26 H     1.0000    0     1.008   -0.070117   -5.342950    1.641815
  27 H     1.0000    0     1.008   -4.488208    0.760835    4.443054
  28 H     1.0000    0     1.008    3.705302   -1.420192   -3.672620
  29 H     1.0000    0     1.008   -3.210582   -2.090621   -2.456047

--------------------------------
INTERNAL COORDINATES (ANGSTROEM)
--------------------------------
 O      0   0   0     0.000000000000     0.00000000     0.00000000
 O      1   0   0     3.655023706242     0.00000000     0.00000000
 O      2   1   0     3.974018154974    73.08776032     0.00000000
 O      3   2   1     4.207139658882    67.52881465   105.81359531
 N      3   2   1     2.276228383711    82.98099821    58.01084775
 N      4   3   2     2.279543603513   102.04275079   320.24404058
 N      1   2   3     2.264518424653    59.12726234     0.09356641
 N      2   1   3     2.272945185158    95.58685108    56.99335672
 C      1   2   3     2.360670765594    83.31038164   297.96604523
 C      2   1   3     2.367160041383    67.84237253   114.47740996
 C      9   1   2     1.352790202699   142.90055470    62.71703884
 C      6   4   3     1.366900280759   150.33180514    26.98094097
 C      9   1   2     1.492865920444    93.59674545   237.93377582
 C     10   2   1     1.484279454307    93.82005123    69.93229069
 C      1   2   3     1.213717337204    68.48706035   325.70450258
 C      2   1   3     1.221245762790    80.54360779    85.23512282
 C      3   2   1     1.215429281694    64.96790315    32.22920375
 C      4   3   2     1.213638437585    78.36367864   338.98056330
 H     11   9   1     1.055548613456   120.72552716   175.33254654
 H     12   6   4     1.091169986597   116.70318970   186.97274482
 H     13   9   1     1.071607733149   110.64342268    51.72557288
 H     13   9   1     1.078276457602   111.51612191   173.61054849
 H     13   9   1     1.101385143667   109.89146979   294.73231430
 H     14  10   2     1.082154694518   111.04743489    55.34625144
 H     14  10   2     1.092751787714   110.70125349   174.27549640
 H     14  10   2     1.079714214951   110.38397947   295.94366769
 H      5   3   2     1.001042273615    89.08112046   122.17179098
 H      6   4   3     1.005932651378    88.28725020   215.77710525
 H      7   1   2     1.013616005493    89.10611778    73.72041537
 H      8   2   1     1.005965705378    89.29302969   244.48208148

---------------------------
INTERNAL COORDINATES (A.U.)
---------------------------
 O      0   0   0     0.000000000000     0.00000000     0.00000000
 O      1   0   0     6.906993817786     0.00000000     0.00000000
 O      2   1   0     7.509805964133    73.08776032     0.00000000
 O      3   2   1     7.950341762447    67.52881465   105.81359531
 N      3   2   1     4.301448263473    82.98099821    58.01084775
 N      4   3   2     4.307713120971   102.04275079   320.24404058
 N      1   2   3     4.279319647814    59.12726234     0.09356641
 N      2   1   3     4.295243917364    95.58685108    56.99335672
 C      1   2   3     4.461021239326    83.31038164   297.96604523
 C      2   1   3     4.473284193375    67.84237253   114.47740996
 C      9   1   2     2.556402999754   142.90055470    62.71703884
 C      6   4   3     2.583067183014   150.33180514    26.98094097
 C      9   1   2     2.821107744304    93.59674545   237.93377582
 C     10   2   1     2.804881674846    93.82005123    69.93229069
 C      1   2   3     2.293593371308    68.48706035   325.70450258
 C      2   1   3     2.307820033885    80.54360779    85.23512282
 C      3   2   1     2.296828477551    64.96790315    32.22920375
 C      4   3   2     2.293444272635    78.36367864   338.98056330
 H     11   9   1     1.994697800472   120.72552716   175.33254654
 H     12   6   4     2.062012440223   116.70318970   186.97274482
 H     13   9   1     2.025045138644   110.64342268    51.72557288
 H     13   9   1     2.037647201522   111.51612191   173.61054849
 H     13   9   1     2.081316289500   109.89146979   294.73231430
 H     14  10   2     2.044976007177   111.04743489    55.34625144
 H     14  10   2     2.065001611132   110.70125349   174.27549640
 H     14  10   2     2.040364169160   110.38397947   295.94366769
 H      5   3   2     1.891695745610    89.08112046   122.17179098
 H      6   4   3     1.900937220274    88.28725020   215.77710525
 H      7   1   2     1.915456655341    89.10611778    73.72041537
 H      8   2   1     1.900999683281    89.29302969   244.48208148

---------------------
BASIS SET INFORMATION
---------------------
There are 4 groups of distinct atoms

 Group   1 Type O   : 12s7p3d1f contracted to 6s4p3d1f pattern {621111/4111/111/1}
 Group   2 Type N   : 12s6p3d1f contracted to 6s3p3d1f pattern {621111/411/111/1}
 Group   3 Type C   : 12s6p3d1f contracted to 6s3p3d1f pattern {621111/411/111/1}
 Group   4 Type H   : 5s3p1d contracted to 3s3p1d pattern {311/111/1}

Atom   0O    basis set group =>   1
Atom   1O    basis set group =>   1
Atom   2O    basis set group =>   1
Atom   3O    basis set group =>   1
Atom   4N    basis set group =>   2
Atom   5N    basis set group =>   2
Atom   6N    basis set group =>   2
Atom   7N    basis set group =>   2
Atom   8C    basis set group =>   3
Atom   9C    basis set group =>   3
Atom  10C    basis set group =>   3
Atom  11C    basis set group =>   3
Atom  12C    basis set group =>   3
Atom  13C    basis set group =>   3
Atom  14C    basis set group =>   3
Atom  15C    basis set group =>   3
Atom  16C    basis set group =>   3
Atom  17C    basis set group =>   3
Atom  18H    basis set group =>   4
Atom  19H    basis set group =>   4
Atom  20H    basis set group =>   4
Atom  21H    basis set group =>   4
Atom  22H    basis set group =>   4
Atom  23H    basis set group =>   4
Atom  24H    basis set group =>   4
Atom  25H    basis set group =>   4
Atom  26H    basis set group =>   4
Atom  27H    basis set group =>   4
Atom  28H    basis set group =>   4
Atom  29H    basis set group =>   4
---------------------------------
AUXILIARY/J BASIS SET INFORMATION
---------------------------------
There are 4 groups of distinct atoms

 Group   1 Type O   : 12s5p4d2f1g contracted to 6s4p3d1f1g pattern {711111/2111/211/2/1}
 Group   2 Type N   : 12s5p4d2f1g contracted to 6s4p3d1f1g pattern {711111/2111/211/2/1}
 Group   3 Type C   : 12s5p4d2f1g contracted to 6s4p3d1f1g pattern {711111/2111/211/2/1}
 Group   4 Type H   : 5s2p1d contracted to 3s1p1d pattern {311/2/1}

Atom   0O    basis set group =>   1
Atom   1O    basis set group =>   1
Atom   2O    basis set group =>   1
Atom   3O    basis set group =>   1
Atom   4N    basis set group =>   2
Atom   5N    basis set group =>   2
Atom   6N    basis set group =>   2
Atom   7N    basis set group =>   2
Atom   8C    basis set group =>   3
Atom   9C    basis set group =>   3
Atom  10C    basis set group =>   3
Atom  11C    basis set group =>   3
Atom  12C    basis set group =>   3
Atom  13C    basis set group =>   3
Atom  14C    basis set group =>   3
Atom  15C    basis set group =>   3
Atom  16C    basis set group =>   3
Atom  17C    basis set group =>   3
Atom  18H    basis set group =>   4
Atom  19H    basis set group =>   4
Atom  20H    basis set group =>   4
Atom  21H    basis set group =>   4
Atom  22H    basis set group =>   4
Atom  23H    basis set group =>   4
Atom  24H    basis set group =>   4
Atom  25H    basis set group =>   4
Atom  26H    basis set group =>   4
Atom  27H    basis set group =>   4
Atom  28H    basis set group =>   4
Atom  29H    basis set group =>   4
[1739901017.249715] [ohm:319994:0]        ib_iface.c:1059 UCX  ERROR ibv_create_cq(cqe=256) failed: Connection timed out
[1739901017.263676] [ohm:320015:0]        ib_iface.c:1059 UCX  ERROR ibv_create_cq(cqe=256) failed: Connection timed out
[1739901017.267996] [ohm:319999:0]        ib_iface.c:1059 UCX  ERROR ibv_create_cq(cqe=256) failed: Connection timed out
[1739901017.279726] [ohm:319992:0]        ib_iface.c:1059 UCX  ERROR ibv_create_cq(cqe=256) failed: Connection timed out
[1739901017.285077] [ohm:319996:0]        ib_iface.c:1059 UCX  ERROR ibv_create_cq(cqe=256) failed: Connection timed out
[1739901017.285139] [ohm:320000:0]        ib_iface.c:1059 UCX  ERROR ibv_create_cq(cqe=256) failed: Connection timed out
[1739901017.289392] [ohm:320001:0]        ib_iface.c:1059 UCX  ERROR ibv_create_cq(cqe=256) failed: Connection timed out
[1739901017.292457] [ohm:319995:0]        ib_iface.c:1059 UCX  ERROR ibv_create_cq(cqe=256) failed: Connection timed out
[1739901017.295938] [ohm:319993:0]        ib_iface.c:1059 UCX  ERROR ibv_create_cq(cqe=256) failed: Connection timed out
[1739901017.298230] [ohm:320040:0]        ib_iface.c:1059 UCX  ERROR ibv_create_cq(cqe=256) failed: Connection timed out
[1739901017.304256] [ohm:320017:0]        ib_iface.c:1059 UCX  ERROR ibv_create_cq(cqe=256) failed: Connection timed out
[1739901017.305793] [ohm:319997:0]        ib_iface.c:1059 UCX  ERROR ibv_create_cq(cqe=256) failed: Connection timed out
[1739901017.306360] [ohm:320043:0]        ib_iface.c:1059 UCX  ERROR ibv_create_cq(cqe=256) failed: Connection timed out
[1739901017.309014] [ohm:320009:0]        ib_iface.c:1059 UCX  ERROR ibv_create_cq(cqe=256) failed: Connection timed out
[1739901017.309626] [ohm:320012:0]        ib_iface.c:1059 UCX  ERROR ibv_create_cq(cqe=256) failed: Connection timed out
[1739901017.333567] [ohm:320002:0]        ib_iface.c:1059 UCX  ERROR ibv_create_cq(cqe=256) failed: Connection timed out
[1739901017.340949] [ohm:320095:0]        ib_iface.c:1059 UCX  ERROR ibv_create_cq(cqe=256) failed: Connection timed out
[1739901017.343211] [ohm:320008:0]        ib_iface.c:1059 UCX  ERROR ibv_create_cq(cqe=256) failed: Connection timed out
[1739901017.343389] [ohm:320108:0]        ib_iface.c:1059 UCX  ERROR ibv_create_cq(cqe=256) failed: Connection timed out
[1739901017.355058] [ohm:320018:0]        ib_iface.c:1059 UCX  ERROR ibv_create_cq(cqe=256) failed: Connection timed out
[1739901017.356030] [ohm:320003:0]        ib_iface.c:1059 UCX  ERROR ibv_create_cq(cqe=256) failed: Connection timed out
[1739901017.408635] [ohm:319998:0]        ib_iface.c:1059 UCX  ERROR ibv_create_cq(cqe=256) failed: Connection timed out
[1739901017.414512] [ohm:320011:0]        ib_iface.c:1059 UCX  ERROR ibv_create_cq(cqe=256) failed: Connection timed out
[1739901017.415173] [ohm:320004:0]        ib_iface.c:1059 UCX  ERROR ibv_create_cq(cqe=256) failed: Connection timed out
[1739901017.423711] [ohm:320059:0]        ib_iface.c:1059 UCX  ERROR ibv_create_cq(cqe=256) failed: Connection timed out
[1739901017.425619] [ohm:320007:0]        ib_iface.c:1059 UCX  ERROR ibv_create_cq(cqe=256) failed: Connection timed out
[1739901017.430127] [ohm:319991:0]        ib_iface.c:1059 UCX  ERROR ibv_create_cq(cqe=256) failed: Connection timed out
[1739901017.430403] [ohm:320077:0]        ib_iface.c:1059 UCX  ERROR ibv_create_cq(cqe=256) failed: Connection timed out
[1739901017.432363] [ohm:320066:0]        ib_iface.c:1059 UCX  ERROR ibv_create_cq(cqe=256) failed: Connection timed out
[1739901017.432960] [ohm:320013:0]        ib_iface.c:1059 UCX  ERROR ibv_create_cq(cqe=256) failed: Connection timed out
[1739901017.437769] [ohm:320014:0]        ib_iface.c:1059 UCX  ERROR ibv_create_cq(cqe=256) failed: Connection timed out
[1739901017.442407] [ohm:320073:0]        ib_iface.c:1059 UCX  ERROR ibv_create_cq(cqe=256) failed: Connection timed out
[1739901017.442545] [ohm:320104:0]        ib_iface.c:1059 UCX  ERROR ibv_create_cq(cqe=256) failed: Connection timed out
[1739901017.444145] [ohm:320115:0]        ib_iface.c:1059 UCX  ERROR ibv_create_cq(cqe=256) failed: Connection timed out
[1739901017.455886] [ohm:320010:0]        ib_iface.c:1059 UCX  ERROR ibv_create_cq(cqe=256) failed: Connection timed out
[1739901017.463315] [ohm:320122:0]        ib_iface.c:1059 UCX  ERROR ibv_create_cq(cqe=256) failed: Connection timed out
[1739901017.466995] [ohm:320061:0]        ib_iface.c:1059 UCX  ERROR ibv_create_cq(cqe=256) failed: Connection timed out
[1739901017.466964] [ohm:320110:0]        ib_iface.c:1059 UCX  ERROR ibv_create_cq(cqe=256) failed: Connection timed out
[1739901017.469105] [ohm:320089:0]        ib_iface.c:1059 UCX  ERROR ibv_create_cq(cqe=256) failed: Connection timed out
[1739901017.469644] [ohm:320135:0]        ib_iface.c:1059 UCX  ERROR ibv_create_cq(cqe=256) failed: Connection timed out
[1739901017.470546] [ohm:320132:0]        ib_iface.c:1059 UCX  ERROR ibv_create_cq(cqe=256) failed: Connection timed out
[1739901017.472138] [ohm:320087:0]        ib_iface.c:1059 UCX  ERROR ibv_create_cq(cqe=256) failed: Connection timed out
[1739901017.473482] [ohm:320024:0]        ib_iface.c:1059 UCX  ERROR ibv_create_cq(cqe=256) failed: Connection timed out
[1739901017.474560] [ohm:320053:0]        ib_iface.c:1059 UCX  ERROR ibv_create_cq(cqe=256) failed: Connection timed out
[1739901017.478234] [ohm:320033:0]        ib_iface.c:1059 UCX  ERROR ibv_create_cq(cqe=256) failed: Connection timed out
[1739901017.489263] [ohm:320129:0]        ib_iface.c:1059 UCX  ERROR ibv_create_cq(cqe=256) failed: Connection timed out
[1739901017.493998] [ohm:320016:0]        ib_iface.c:1059 UCX  ERROR ibv_create_cq(cqe=256) failed: Connection timed out
[1739901017.494300] [ohm:320125:0]        ib_iface.c:1059 UCX  ERROR ibv_create_cq(cqe=256) failed: Connection timed out
[1739901017.517310] [ohm:320082:0]        ib_iface.c:1059 UCX  ERROR ibv_create_cq(cqe=256) failed: Connection timed out
[1739901017.522235] [ohm:320102:0]        ib_iface.c:1059 UCX  ERROR ibv_create_cq(cqe=256) failed: Connection timed out
[1739901017.523312] [ohm:320045:0]        ib_iface.c:1059 UCX  ERROR ibv_create_cq(cqe=256) failed: Connection timed out
[1739901017.530324] [ohm:320005:0]        ib_iface.c:1059 UCX  ERROR ibv_create_cq(cqe=256) failed: Connection timed out
[1739901017.530913] [ohm:320096:0]        ib_iface.c:1059 UCX  ERROR ibv_create_cq(cqe=256) failed: Connection timed out
[1739901017.532850] [ohm:320138:0]        ib_iface.c:1059 UCX  ERROR ibv_create_cq(cqe=256) failed: Connection timed out
[1739901017.536308] [ohm:320006:0]        ib_iface.c:1059 UCX  ERROR ibv_create_cq(cqe=256) failed: Connection timed out
[1739901017.538360] [ohm:320118:0]        ib_iface.c:1059 UCX  ERROR ibv_create_cq(cqe=256) failed: Connection timed out
[1739901017.540337] [ohm:320022:0]        ib_iface.c:1059 UCX  ERROR ibv_create_cq(cqe=256) failed: Connection timed out
[1739901017.540500] [ohm:320019:0]        ib_iface.c:1059 UCX  ERROR ibv_create_cq(cqe=256) failed: Connection timed out
[1739901017.542929] [ohm:320081:0]        ib_iface.c:1059 UCX  ERROR ibv_create_cq(cqe=256) failed: Connection timed out
[1739901017.544380] [ohm:320029:0]        ib_iface.c:1059 UCX  ERROR ibv_create_cq(cqe=256) failed: Connection timed out
[1739901017.545142] [ohm:320069:0]        ib_iface.c:1059 UCX  ERROR ibv_create_cq(cqe=256) failed: Connection timed out
[1739901017.545507] [ohm:320086:0]        ib_iface.c:1059 UCX  ERROR ibv_create_cq(cqe=256) failed: Connection timed out
[1739901017.546167] [ohm:320048:0]        ib_iface.c:1059 UCX  ERROR ibv_create_cq(cqe=256) failed: Connection timed out
[1739901017.546205] [ohm:320106:0]        ib_iface.c:1059 UCX  ERROR ibv_create_cq(cqe=256) failed: Connection timed out


           ************************************************************
           *        Program running with 64 parallel MPI-processes    *
           *              working on a common directory               *
           ************************************************************
------------------------------------------------------------------------------
                             ORCA STARTUP CALCULATIONS
                           -- RI-GTO INTEGRALS CHOSEN --
------------------------------------------------------------------------------
------------------------------------------------------------------------------
                   ___                                                        
                  /   \      - P O W E R E D   B Y -                         
                 /     \                                                     
                 |  |  |   _    _      __       _____    __    __             
                 |  |  |  | |  | |    /  \     |  _  \  |  |  /  |          
                  \  \/   | |  | |   /    \    | | | |  |  | /  /          
                 / \  \   | |__| |  /  /\  \   | |_| |  |  |/  /          
                |  |  |   |  __  | /  /__\  \  |    /   |      \           
                |  |  |   | |  | | |   __   |  |    \   |  |\   \          
                \     /   | |  | | |  |  |  |  | |\  \  |  | \   \       
                 \___/    |_|  |_| |__|  |__|  |_| \__\ |__|  \__/        
                                                                              
                      - O R C A' S   B I G   F R I E N D -                    
                                      &                                       
                       - I N T E G R A L  F E E D E R -                       
                                                                              
 v1 FN, 2020, v2 2021, v3 2022-2024                                           
------------------------------------------------------------------------------


----------------------
SHARK INTEGRAL PACKAGE
----------------------

Number of atoms                             ...     30
Number of basis functions                   ...    882
Number of shells                            ...    322
Maximum angular momentum                    ...      3
Integral batch strategy                     ... SHARK/LIBINT Hybrid
RI-J (if used) integral strategy            ... SPLIT-RIJ (Revised 2003 algorithm where possible)
Printlevel                                  ...      1
Contraction scheme used                     ... SEGMENTED contraction
Prescreening option                         ... SCHWARTZ
   Thresh                                   ... 2.500e-11
   Tcut                                     ... 2.500e-12
   Tpresel                                  ... 2.500e-12 
Coulomb Range Separation                    ... NOT USED
Exchange Range Separation                   ... Long Range
   Mu parameter                             ... 3.000e-01
   Scaling (regular/separated)              ... 1.500e-01 8.500e-01
Multipole approximations                    ... NOT USED
Finite Nucleus Model                        ... NOT USED
CABS basis                                  ... NOT available
Auxiliary Coulomb fitting basis             ... AVAILABLE
   # of basis functions in Aux-J            ...   1014
   # of shells in Aux-J                     ...    330
   Maximum angular momentum in Aux-J        ...      4
Auxiliary J/K fitting basis                 ... NOT available
Auxiliary Correlation fitting basis         ... NOT available
Auxiliary 'external' fitting basis          ... NOT available

Checking pre-screening integrals            ... done (  0.0 sec) Dimension = 322
Check shell pair data                       ... done (  0.0 sec)
Shell pair information
Shell pair cut-off parameter TPreSel        ...   2.5e-12
Total number of shell pairs                 ...     52003
Shell pairs after pre-screening             ...     45363
Total number of primitive shell pairs       ...    129718
Primitive shell pairs kept                  ...     84530
          la=0 lb=0:   8770 shell pairs
          la=1 lb=0:  11970 shell pairs
          la=1 lb=1:   4137 shell pairs
          la=2 lb=0:   8151 shell pairs
          la=2 lb=1:   5633 shell pairs
          la=2 lb=2:   1941 shell pairs
          la=3 lb=0:   2087 shell pairs
          la=3 lb=1:   1501 shell pairs
          la=3 lb=2:   1025 shell pairs
          la=3 lb=3:    148 shell pairs

Calculating one electron integrals          ... done (  0.2 sec)
Calculating RI/J V-Matrix + Cholesky decomp.... done (  0.1 sec)
Calculating Nuclear repulsion               ... done (  0.0 sec) ENN=   1456.308221307380 Eh

Diagonalization of the overlap matrix:
Smallest eigenvalue                        ... 5.148e-07
Time for diagonalization                   ...    0.129 sec
Threshold for overlap eigenvalues          ... 1.000e-07
Number of eigenvalues below threshold      ... 0

IMPORTANT:
Smallest eigenvalue of S below the DiffSThresh (1.000e-06) while
Thresh>1e-12 and/or TCut>1e-13! In order to avoid SCF convergence issues,
Thresh will be set to at least 1e-12 and TCut to at least 1e-13.
This can be turned off by adding %SCF DiffSThresh -1 END to the input.

Time for construction of square roots      ...    0.143 sec
Total time needed                          ...    0.283 sec

-------------------
DFT GRID GENERATION
-------------------

General Integration Accuracy     IntAcc      ... 4.388
Radial Grid Type                 RadialGrid  ... OptM3 with GC (2021)
Angular Grid (max. ang.)         AngularGrid ... 4 (Lebedev-302)
Angular grid pruning method      GridPruning ... 4 (adaptive)
Weight generation scheme         WeightScheme... mBecke (2022)
Basis function cutoff            BFCut       ... 1.0000e-11
Integration weight cutoff        WCut        ... 1.0000e-14
Partially contracted basis set               ... off
Rotationally invariant grid construction     ... off
Angular grids for H and He will be reduced by one unit
Diffuse basis detected: some atoms will have their outermost
                        angular grid increased by 1.

Total number of grid points                  ...   152102
Total number of batches                      ...     2393
Average number of points per batch           ...       63
Average number of grid points per atom       ...     5070

--------------------
COSX GRID GENERATION
--------------------

GRIDX 1
-------
General Integration Accuracy     IntAcc      ... 3.816
Radial Grid Type                 RadialGrid  ... OptM3 with GC (2021)
Angular Grid (max. ang.)         AngularGrid ... 1 (Lebedev-50)
Angular grid pruning method      GridPruning ... 4 (adaptive)
Weight generation scheme         WeightScheme... mBecke (2022)
Basis function cutoff            BFCut       ... 1.0000e-11
Integration weight cutoff        WCut        ... 1.0000e-14
Partially contracted basis set               ... on
Rotationally invariant grid construction     ... off
Angular grids for H and He will be reduced by one unit
Diffuse basis detected: some atoms will have their outermost
                        angular grid increased by 1.

Total number of grid points                  ...    19034
Total number of batches                      ...      165
Average number of points per batch           ...      115
Average number of grid points per atom       ...      634
UseSFitting                                  ... on

GRIDX 2
-------
General Integration Accuracy     IntAcc      ... 4.020
Radial Grid Type                 RadialGrid  ... OptM3 with GC (2021)
Angular Grid (max. ang.)         AngularGrid ... 2 (Lebedev-110)
Angular grid pruning method      GridPruning ... 4 (adaptive)
Weight generation scheme         WeightScheme... mBecke (2022)
Basis function cutoff            BFCut       ... 1.0000e-11
Integration weight cutoff        WCut        ... 1.0000e-14
Partially contracted basis set               ... on
Rotationally invariant grid construction     ... off
Angular grids for H and He will be reduced by one unit
Diffuse basis detected: some atoms will have their outermost
                        angular grid increased by 1.

Total number of grid points                  ...    45848
Total number of batches                      ...      376
Average number of points per batch           ...      121
Average number of grid points per atom       ...     1528
UseSFitting                                  ... on

GRIDX 3
-------
General Integration Accuracy     IntAcc      ... 4.338
Radial Grid Type                 RadialGrid  ... OptM3 with GC (2021)
Angular Grid (max. ang.)         AngularGrid ... 3 (Lebedev-194)
Angular grid pruning method      GridPruning ... 4 (adaptive)
Weight generation scheme         WeightScheme... mBecke (2022)
Basis function cutoff            BFCut       ... 1.0000e-11
Integration weight cutoff        WCut        ... 1.0000e-14
Partially contracted basis set               ... on
Rotationally invariant grid construction     ... off
Angular grids for H and He will be reduced by one unit
Diffuse basis detected: some atoms will have their outermost
                        angular grid increased by 1.

Total number of grid points                  ...   100949
Total number of batches                      ...      804
Average number of points per batch           ...      125
Average number of grid points per atom       ...     3365
UseSFitting                                  ... on
Initializing property integral containers    ... done (  0.0 sec)

SHARK setup successfully completed in   4.2 seconds

Maximum memory used throughout the entire STARTUP-calculation: 80.4 MB
[1739901023.651976] [ohm:320367:0]        ib_iface.c:1059 UCX  ERROR ibv_create_cq(cqe=256) failed: Connection timed out
[1739901023.652065] [ohm:320375:0]        ib_iface.c:1059 UCX  ERROR ibv_create_cq(cqe=256) failed: Connection timed out
[1739901023.675620] [ohm:320368:0]        ib_iface.c:1059 UCX  ERROR ibv_create_cq(cqe=256) failed: Connection timed out
[1739901023.682809] [ohm:320374:0]        ib_iface.c:1059 UCX  ERROR ibv_create_cq(cqe=256) failed: Connection timed out
[1739901023.700262] [ohm:320378:0]        ib_iface.c:1059 UCX  ERROR ibv_create_cq(cqe=256) failed: Connection timed out
[1739901023.743092] [ohm:320369:0]        ib_iface.c:1059 UCX  ERROR ibv_create_cq(cqe=256) failed: Connection timed out
[1739901023.751631] [ohm:320372:0]        ib_iface.c:1059 UCX  ERROR ibv_create_cq(cqe=256) failed: Connection timed out
[1739901023.764762] [ohm:320382:0]        ib_iface.c:1059 UCX  ERROR ibv_create_cq(cqe=256) failed: Connection timed out
[1739901023.771208] [ohm:320379:0]        ib_iface.c:1059 UCX  ERROR ibv_create_cq(cqe=256) failed: Connection timed out
[1739901023.774638] [ohm:320366:0]        ib_iface.c:1059 UCX  ERROR ibv_create_cq(cqe=256) failed: Connection timed out
[1739901023.775294] [ohm:320370:0]        ib_iface.c:1059 UCX  ERROR ibv_create_cq(cqe=256) failed: Connection timed out
[1739901023.775902] [ohm:320381:0]        ib_iface.c:1059 UCX  ERROR ibv_create_cq(cqe=256) failed: Connection timed out
[1739901023.784988] [ohm:320384:0]        ib_iface.c:1059 UCX  ERROR ibv_create_cq(cqe=256) failed: Connection timed out
[1739901023.788086] [ohm:320388:0]        ib_iface.c:1059 UCX  ERROR ibv_create_cq(cqe=256) failed: Connection timed out
[1739901023.793358] [ohm:320386:0]        ib_iface.c:1059 UCX  ERROR ibv_create_cq(cqe=256) failed: Connection timed out
[1739901023.834562] [ohm:320419:0]        ib_iface.c:1059 UCX  ERROR ibv_create_cq(cqe=256) failed: Connection timed out
[1739901023.858509] [ohm:320414:0]        ib_iface.c:1059 UCX  ERROR ibv_create_cq(cqe=256) failed: Connection timed out
[1739901023.859311] [ohm:320376:0]        ib_iface.c:1059 UCX  ERROR ibv_create_cq(cqe=256) failed: Connection timed out
[1739901023.860367] [ohm:320400:0]        ib_iface.c:1059 UCX  ERROR ibv_create_cq(cqe=256) failed: Connection timed out
[1739901023.868577] [ohm:320393:0]        ib_iface.c:1059 UCX  ERROR ibv_create_cq(cqe=256) failed: Connection timed out
[1739901023.873897] [ohm:320385:0]        ib_iface.c:1059 UCX  ERROR ibv_create_cq(cqe=256) failed: Connection timed out
[1739901023.886852] [ohm:320387:0]        ib_iface.c:1059 UCX  ERROR ibv_create_cq(cqe=256) failed: Connection timed out
[1739901023.890898] [ohm:320389:0]        ib_iface.c:1059 UCX  ERROR ibv_create_cq(cqe=256) failed: Connection timed out
[1739901023.891444] [ohm:320404:0]        ib_iface.c:1059 UCX  ERROR ibv_create_cq(cqe=256) failed: Connection timed out
[1739901023.893663] [ohm:320391:0]        ib_iface.c:1059 UCX  ERROR ibv_create_cq(cqe=256) failed: Connection timed out
[1739901023.905736] [ohm:320383:0]        ib_iface.c:1059 UCX  ERROR ibv_create_cq(cqe=256) failed: Connection timed out
[1739901023.914841] [ohm:320427:0]        ib_iface.c:1059 UCX  ERROR ibv_create_cq(cqe=256) failed: Connection timed out
[1739901023.915033] [ohm:320482:0]        ib_iface.c:1059 UCX  ERROR ibv_create_cq(cqe=256) failed: Connection timed out
[1739901023.920863] [ohm:320397:0]        ib_iface.c:1059 UCX  ERROR ibv_create_cq(cqe=256) failed: Connection timed out
[1739901023.926658] [ohm:320377:0]        ib_iface.c:1059 UCX  ERROR ibv_create_cq(cqe=256) failed: Connection timed out
[1739901023.938726] [ohm:320514:0]        ib_iface.c:1059 UCX  ERROR ibv_create_cq(cqe=256) failed: Connection timed out
[1739901023.947252] [ohm:320435:0]        ib_iface.c:1059 UCX  ERROR ibv_create_cq(cqe=256) failed: Connection timed out
[1739901023.949730] [ohm:320464:0]        ib_iface.c:1059 UCX  ERROR ibv_create_cq(cqe=256) failed: Connection timed out
[1739901023.959895] [ohm:320472:0]        ib_iface.c:1059 UCX  ERROR ibv_create_cq(cqe=256) failed: Connection timed out
[1739901023.960249] [ohm:320429:0]        ib_iface.c:1059 UCX  ERROR ibv_create_cq(cqe=256) failed: Connection timed out
[1739901023.961339] [ohm:320470:0]        ib_iface.c:1059 UCX  ERROR ibv_create_cq(cqe=256) failed: Connection timed out
[1739901023.962115] [ohm:320476:0]        ib_iface.c:1059 UCX  ERROR ibv_create_cq(cqe=256) failed: Connection timed out
[1739901023.965416] [ohm:320444:0]        ib_iface.c:1059 UCX  ERROR ibv_create_cq(cqe=256) failed: Connection timed out
[1739901023.974213] [ohm:320485:0]        ib_iface.c:1059 UCX  ERROR ibv_create_cq(cqe=256) failed: Connection timed out
[1739901023.975290] [ohm:320504:0]        ib_iface.c:1059 UCX  ERROR ibv_create_cq(cqe=256) failed: Connection timed out
[1739901023.985466] [ohm:320394:0]        ib_iface.c:1059 UCX  ERROR ibv_create_cq(cqe=256) failed: Connection timed out
[1739901023.996017] [ohm:320492:0]        ib_iface.c:1059 UCX  ERROR ibv_create_cq(cqe=256) failed: Connection timed out
[1739901024.005009] [ohm:320415:0]        ib_iface.c:1059 UCX  ERROR ibv_create_cq(cqe=256) failed: Connection timed out
[1739901024.005767] [ohm:320371:0]        ib_iface.c:1059 UCX  ERROR ibv_create_cq(cqe=256) failed: Connection timed out
[1739901024.007042] [ohm:320497:0]        ib_iface.c:1059 UCX  ERROR ibv_create_cq(cqe=256) failed: Connection timed out
[1739901024.007331] [ohm:320423:0]        ib_iface.c:1059 UCX  ERROR ibv_create_cq(cqe=256) failed: Connection timed out
[1739901024.007495] [ohm:320380:0]        ib_iface.c:1059 UCX  ERROR ibv_create_cq(cqe=256) failed: Connection timed out
[1739901024.011509] [ohm:320408:0]        ib_iface.c:1059 UCX  ERROR ibv_create_cq(cqe=256) failed: Connection timed out
[1739901024.014845] [ohm:320480:0]        ib_iface.c:1059 UCX  ERROR ibv_create_cq(cqe=256) failed: Connection timed out
[1739901024.015183] [ohm:320461:0]        ib_iface.c:1059 UCX  ERROR ibv_create_cq(cqe=256) failed: Connection timed out
[1739901024.019432] [ohm:320447:0]        ib_iface.c:1059 UCX  ERROR ibv_create_cq(cqe=256) failed: Connection timed out
[1739901024.024004] [ohm:320373:0]        ib_iface.c:1059 UCX  ERROR ibv_create_cq(cqe=256) failed: Connection timed out
[1739901024.026540] [ohm:320493:0]        ib_iface.c:1059 UCX  ERROR ibv_create_cq(cqe=256) failed: Connection timed out
[1739901024.029233] [ohm:320390:0]        ib_iface.c:1059 UCX  ERROR ibv_create_cq(cqe=256) failed: Connection timed out
[1739901024.030360] [ohm:320410:0]        ib_iface.c:1059 UCX  ERROR ibv_create_cq(cqe=256) failed: Connection timed out
[1739901024.031299] [ohm:320459:0]        ib_iface.c:1059 UCX  ERROR ibv_create_cq(cqe=256) failed: Connection timed out
[1739901024.033558] [ohm:320489:0]        ib_iface.c:1059 UCX  ERROR ibv_create_cq(cqe=256) failed: Connection timed out
[1739901024.034238] [ohm:320467:0]        ib_iface.c:1059 UCX  ERROR ibv_create_cq(cqe=256) failed: Connection timed out
[1739901024.035428] [ohm:320440:0]        ib_iface.c:1059 UCX  ERROR ibv_create_cq(cqe=256) failed: Connection timed out
[1739901024.035673] [ohm:320519:0]        ib_iface.c:1059 UCX  ERROR ibv_create_cq(cqe=256) failed: Connection timed out
[1739901024.036602] [ohm:320437:0]        ib_iface.c:1059 UCX  ERROR ibv_create_cq(cqe=256) failed: Connection timed out
[1739901024.037224] [ohm:320451:0]        ib_iface.c:1059 UCX  ERROR ibv_create_cq(cqe=256) failed: Connection timed out
[1739901024.037450] [ohm:320454:0]        ib_iface.c:1059 UCX  ERROR ibv_create_cq(cqe=256) failed: Connection timed out
[1739901024.038184] [ohm:320420:0]        ib_iface.c:1059 UCX  ERROR ibv_create_cq(cqe=256) failed: Connection timed out


           ************************************************************
           *        Program running with 64 parallel MPI-processes    *
           *              working on a common directory               *
           ************************************************************
-------------------------------------------------------------------------------
                                 ORCA GUESS
                   Start orbitals & Density for SCF / CASSCF
-------------------------------------------------------------------------------

------------
SCF SETTINGS
------------
Hamiltonian:
 Density Functional     Method          .... DFT(GTOs)
  Functional kind                       .... Exchange-Correlation
  Functional name                       .... wB97M-V exchange-correlation functional
  Functional family                     .... Hybrid MGGA
  Functional refs                              
    [ 0] N. Mardirossian and M. Head-Gordon.,  J. Chem. Phys. 144, 214110 (2016), doi: 10.1063/1.4952647
  Fraction of HF Exchange (short range) .... 0.1500
  Fraction of HF Exchange (long range)  .... 1.0000
  Range separation parameter mu         .... 0.3000
  Functional external parameters        .... 17
    Parameter  0 _cx00      =  8.500000e-01 : u^00 coefficient for exchange
    Parameter  1 _cx01      =  1.007000e+00 : u^01 coefficient for exchange
    Parameter  2 _cx10      =  2.590000e-01 : u^10 coefficient for exchange
    Parameter  3 _css00     =  4.430000e-01 : u^00 coefficient for same-spin correlation
    Parameter  4 _css04     = -1.437000e+00 : u^04 coefficient for same-spin correlation
    Parameter  5 _css10     = -4.535000e+00 : u^10 coefficient for same-spin correlation
    Parameter  6 _css20     = -3.390000e+00 : u^20 coefficient for same-spin correlation
    Parameter  7 _css43     =  4.278000e+00 : u^43 coefficient for same-spin correlation
    Parameter  8 _cos00     =  1.000000e+00 : u^00 coefficient for opposite-spin correlation
    Parameter  9 _cos10     =  1.358000e+00 : u^10 coefficient for opposite-spin correlation
    Parameter 10 _cos20     =  2.924000e+00 : u^20 coefficient for opposite-spin correlation
    Parameter 11 _cos21     = -8.812000e+00 : u^21 coefficient for opposite-spin correlation
    Parameter 12 _cos60     = -1.390000e+00 : u^60 coefficient for opposite-spin correlation
    Parameter 13 _cos61     =  9.142000e+00 : u^61 coefficient for opposite-spin correlation
    Parameter 14 _alpha     =  1.000000e+00 : fraction of HF exchange
    Parameter 15 _beta      = -8.500000e-01 : fraction of short-range exchange
    Parameter 16 _omega     =  3.000000e-01 : range-separation constant
 Long-range corrected/Screened/Range-Separated Hybrid DFT is turned on
   Amount of maximum screened exact exchange              ....  0.850000
   Range separation parameter mu (erf(mu*r12)/r12)        ....  0.300000
 RI-approximation to the Coulomb term is turned on
   Number of AuxJ basis functions       .... 1014
   RIJ-COSX (HFX calculated with COS-X)).... on


General Settings:
 Integral files         IntName         .... orca
 Hartree-Fock type      HFTyp           .... UHF
 Total Charge           Charge          ....    0
 Multiplicity           Mult            ....    3
 Number of Electrons    NEL             ....  132
 Basis Dimension        Dim             ....  882
 Nuclear Repulsion      ENuc            ....   1456.3082213074 Eh

Convergence Acceleration:
 AO-DIIS                CNVDIIS         .... on
   Start iteration      DIISMaxIt       ....    12
   Startup error        DIISStart       ....  0.200000
   # of expansion vecs  DIISMaxEq       ....     5
   Bias factor          DIISBfac        ....   1.050
   Max. coefficient     DIISMaxC        ....  10.000
 MO-DIIS                CNVKDIIS        .... off
 Trust-Rad. Augm. Hess. CNVTRAH         .... auto
   Auto Start mean grad. ratio tolernc. ....  1.125000
   Auto Start start iteration           ....    50
   Auto Start num. interpolation iter.  ....    10
   Max. Number of Micro iterations      ....    24
   Max. Number of Macro iterations      .... Maxiter - #DIIS iter
   Number of Davidson start vectors     ....     2
   Converg. threshold    (grad. norm)   ....   1.000e-05
   Grad. Scal. Fac. for Micro threshold ....   0.100
   Minimum threshold for Micro iter.    ....   1.000e-02
   NR start threshold (gradient norm)   ....   1.000e-04
   Initial trust radius                 ....   0.400
   Minimum AH scaling param. (alpha)    ....   1.000
   Maximum AH scaling param. (alpha)    .... 1000.000
   Quad. conv. algorithm                .... NR
   White noise on init. David. guess    .... on
   Maximum white noise                  ....   0.010
   Pseudo random numbers                .... off
   Inactive MOs                         .... canonical
   Orbital update algorithm             .... Taylor
   Preconditioner                       .... Diag
   Full preconditioner red. dimension   ....   250
 SOSCF                  CNVSOSCF        .... on
   Start iteration      SOSCFMaxIt      ....   150
   Startup grad/error   SOSCFStart      ....  0.003300
   Hessian update       SOSCFHessUp     .... L-BFGS
 Level Shifting         CNVShift        .... on
   Level shift para.    LevelShift      ....    0.2500
   Turn off err/grad.   ShiftErr        ....    0.0010
 Zerner damping         CNVZerner       .... off
 Static damping         CNVDamp         .... on
   Fraction old density DampFac         ....    0.7000
   Max. Damping (<1)    DampMax         ....    0.9800
   Min. Damping (>=0)   DampMin         ....    0.0000
   Turn off err/grad.   DampErr         ....    0.1000

SCF Procedure:
 Maximum # iterations   MaxIter         ....   125
 SCF integral mode      SCFMode         .... Direct
   Integral package                     .... SHARK and LIBINT hybrid scheme
 Reset frequency        DirectResetFreq ....    20
 Integral Threshold     Thresh          ....  1.000e-12 Eh
 Primitive CutOff       TCut            ....  1.000e-13 Eh

Convergence Tolerance:
 Convergence Check Mode ConvCheckMode   .... Total+1el-Energy
 Convergence forced     ConvForced      .... 1
 Energy Change          TolE            ....  1.000e-08 Eh
 1-El. energy change                    ....  1.000e-05 Eh
 Orbital Gradient       TolG            ....  1.000e-05
 Orbital Rotation angle TolX            ....  1.000e-05
 DIIS Error             TolErr          ....  5.000e-07

------------------------------
INITIAL GUESS: MODEL POTENTIAL
------------------------------
Loading Hartree-Fock densities                     ... done
Calculating cut-offs                               ... done
Initializing the effective Hamiltonian             ... done
Setting up the integral package (SHARK)            ... done
Starting the Coulomb interaction                   ... done (   0.1 sec)
Making the grid                                    ... done (   0.3 sec)
Mapping shells                                     ... done
Starting the XC term evaluation                    ... done (   0.1 sec)
  promolecular density results
     # of electrons  =    131.999765942
     EX              =   -113.588761804
     EC              =     -4.481408525
     EX+EC           =   -118.070170329
Transforming the Hamiltonian                       ... done (   0.1 sec)
Diagonalizing the Hamiltonian                      ... done (   0.1 sec)
Back transforming the eigenvectors                 ... done (   0.1 sec)
Now organizing SCF variables                       ... done
                      ------------------
                      INITIAL GUESS DONE (   1.1 sec)
                      ------------------
             **** ENERGY FILE WAS UPDATED (orca.en.tmp) ****
Finished Guess after   3.6 sec
Maximum memory used throughout the entire GUESS-calculation: 72.8 MB
[1739901027.832083] [ohm:320725:0]        ib_iface.c:1059 UCX  ERROR ibv_create_cq(cqe=256) failed: Connection timed out
[1739901027.841846] [ohm:320721:0]        ib_iface.c:1059 UCX  ERROR ibv_create_cq(cqe=256) failed: Connection timed out
[1739901027.854057] [ohm:320722:0]        ib_iface.c:1059 UCX  ERROR ibv_create_cq(cqe=256) failed: Connection timed out
[1739901027.856010] [ohm:320723:0]        ib_iface.c:1059 UCX  ERROR ibv_create_cq(cqe=256) failed: Connection timed out
[1739901027.857195] [ohm:320724:0]        ib_iface.c:1059 UCX  ERROR ibv_create_cq(cqe=256) failed: Connection timed out
[1739901027.866720] [ohm:320727:0]        ib_iface.c:1059 UCX  ERROR ibv_create_cq(cqe=256) failed: Connection timed out
[1739901027.871874] [ohm:320794:0]        ib_iface.c:1059 UCX  ERROR ibv_create_cq(cqe=256) failed: Connection timed out
[1739901027.875609] [ohm:320735:0]        ib_iface.c:1059 UCX  ERROR ibv_create_cq(cqe=256) failed: Connection timed out
[1739901027.890380] [ohm:320781:0]        ib_iface.c:1059 UCX  ERROR ibv_create_cq(cqe=256) failed: Connection timed out
[1739901027.891262] [ohm:320822:0]        ib_iface.c:1059 UCX  ERROR ibv_create_cq(cqe=256) failed: Connection timed out
[1739901027.909414] [ohm:320734:0]        ib_iface.c:1059 UCX  ERROR ibv_create_cq(cqe=256) failed: Connection timed out
[1739901027.915416] [ohm:320749:0]        ib_iface.c:1059 UCX  ERROR ibv_create_cq(cqe=256) failed: Connection timed out
[1739901027.915859] [ohm:320730:0]        ib_iface.c:1059 UCX  ERROR ibv_create_cq(cqe=256) failed: Connection timed out
[1739901027.919055] [ohm:320808:0]        ib_iface.c:1059 UCX  ERROR ibv_create_cq(cqe=256) failed: Connection timed out
[1739901027.920849] [ohm:320824:0]        ib_iface.c:1059 UCX  ERROR ibv_create_cq(cqe=256) failed: Connection timed out
[1739901027.942285] [ohm:320731:0]        ib_iface.c:1059 UCX  ERROR ibv_create_cq(cqe=256) failed: Connection timed out
[1739901027.952133] [ohm:320739:0]        ib_iface.c:1059 UCX  ERROR ibv_create_cq(cqe=256) failed: Connection timed out
[1739901027.958616] [ohm:320745:0]        ib_iface.c:1059 UCX  ERROR ibv_create_cq(cqe=256) failed: Connection timed out
[1739901027.967140] [ohm:320733:0]        ib_iface.c:1059 UCX  ERROR ibv_create_cq(cqe=256) failed: Connection timed out
[1739901027.971303] [ohm:320740:0]        ib_iface.c:1059 UCX  ERROR ibv_create_cq(cqe=256) failed: Connection timed out
[1739901027.978393] [ohm:320728:0]        ib_iface.c:1059 UCX  ERROR ibv_create_cq(cqe=256) failed: Connection timed out
[1739901028.020647] [ohm:320748:0]        ib_iface.c:1059 UCX  ERROR ibv_create_cq(cqe=256) failed: Connection timed out
[1739901028.034386] [ohm:320742:0]        ib_iface.c:1059 UCX  ERROR ibv_create_cq(cqe=256) failed: Connection timed out
[1739901028.043760] [ohm:320746:0]        ib_iface.c:1059 UCX  ERROR ibv_create_cq(cqe=256) failed: Connection timed out
[1739901028.045667] [ohm:320759:0]        ib_iface.c:1059 UCX  ERROR ibv_create_cq(cqe=256) failed: Connection timed out
[1739901028.057719] [ohm:320747:0]        ib_iface.c:1059 UCX  ERROR ibv_create_cq(cqe=256) failed: Connection timed out
[1739901028.080292] [ohm:320784:0]        ib_iface.c:1059 UCX  ERROR ibv_create_cq(cqe=256) failed: Connection timed out
[1739901028.080585] [ohm:320805:0]        ib_iface.c:1059 UCX  ERROR ibv_create_cq(cqe=256) failed: Connection timed out
[1739901028.084359] [ohm:320753:0]        ib_iface.c:1059 UCX  ERROR ibv_create_cq(cqe=256) failed: Connection timed out
[1739901028.085130] [ohm:320833:0]        ib_iface.c:1059 UCX  ERROR ibv_create_cq(cqe=256) failed: Connection timed out
[1739901028.088660] [ohm:320840:0]        ib_iface.c:1059 UCX  ERROR ibv_create_cq(cqe=256) failed: Connection timed out
[1739901028.090910] [ohm:320726:0]        ib_iface.c:1059 UCX  ERROR ibv_create_cq(cqe=256) failed: Connection timed out
[1739901028.092344] [ohm:320810:0]        ib_iface.c:1059 UCX  ERROR ibv_create_cq(cqe=256) failed: Connection timed out
[1739901028.095832] [ohm:320819:0]        ib_iface.c:1059 UCX  ERROR ibv_create_cq(cqe=256) failed: Connection timed out
[1739901028.097759] [ohm:320736:0]        ib_iface.c:1059 UCX  ERROR ibv_create_cq(cqe=256) failed: Connection timed out
[1739901028.099637] [ohm:320743:0]        ib_iface.c:1059 UCX  ERROR ibv_create_cq(cqe=256) failed: Connection timed out
[1739901028.107227] [ohm:320837:0]        ib_iface.c:1059 UCX  ERROR ibv_create_cq(cqe=256) failed: Connection timed out
[1739901028.109148] [ohm:320813:0]        ib_iface.c:1059 UCX  ERROR ibv_create_cq(cqe=256) failed: Connection timed out
[1739901028.111031] [ohm:320816:0]        ib_iface.c:1059 UCX  ERROR ibv_create_cq(cqe=256) failed: Connection timed out
[1739901028.123084] [ohm:320789:0]        ib_iface.c:1059 UCX  ERROR ibv_create_cq(cqe=256) failed: Connection timed out
[1739901028.132712] [ohm:320741:0]        ib_iface.c:1059 UCX  ERROR ibv_create_cq(cqe=256) failed: Connection timed out
[1739901028.141333] [ohm:320756:0]        ib_iface.c:1059 UCX  ERROR ibv_create_cq(cqe=256) failed: Connection timed out
[1739901028.144152] [ohm:320850:0]        ib_iface.c:1059 UCX  ERROR ibv_create_cq(cqe=256) failed: Connection timed out
[1739901028.150058] [ohm:320767:0]        ib_iface.c:1059 UCX  ERROR ibv_create_cq(cqe=256) failed: Connection timed out
[1739901028.152015] [ohm:320846:0]        ib_iface.c:1059 UCX  ERROR ibv_create_cq(cqe=256) failed: Connection timed out
[1739901028.152000] [ohm:320842:0]        ib_iface.c:1059 UCX  ERROR ibv_create_cq(cqe=256) failed: Connection timed out
[1739901028.158217] [ohm:320858:0]        ib_iface.c:1059 UCX  ERROR ibv_create_cq(cqe=256) failed: Connection timed out
[1739901028.160488] [ohm:320855:0]        ib_iface.c:1059 UCX  ERROR ibv_create_cq(cqe=256) failed: Connection timed out
[1739901028.162827] [ohm:320738:0]        ib_iface.c:1059 UCX  ERROR ibv_create_cq(cqe=256) failed: Connection timed out
[1739901028.168873] [ohm:320848:0]        ib_iface.c:1059 UCX  ERROR ibv_create_cq(cqe=256) failed: Connection timed out
[1739901028.169415] [ohm:320861:0]        ib_iface.c:1059 UCX  ERROR ibv_create_cq(cqe=256) failed: Connection timed out
[1739901028.173423] [ohm:320830:0]        ib_iface.c:1059 UCX  ERROR ibv_create_cq(cqe=256) failed: Connection timed out
[1739901028.175546] [ohm:320765:0]        ib_iface.c:1059 UCX  ERROR ibv_create_cq(cqe=256) failed: Connection timed out
[1739901028.175829] [ohm:320864:0]        ib_iface.c:1059 UCX  ERROR ibv_create_cq(cqe=256) failed: Connection timed out
[1739901028.179230] [ohm:320737:0]        ib_iface.c:1059 UCX  ERROR ibv_create_cq(cqe=256) failed: Connection timed out
[1739901028.185102] [ohm:320827:0]        ib_iface.c:1059 UCX  ERROR ibv_create_cq(cqe=256) failed: Connection timed out
[1739901028.186427] [ohm:320744:0]        ib_iface.c:1059 UCX  ERROR ibv_create_cq(cqe=256) failed: Connection timed out
[1739901028.188351] [ohm:320751:0]        ib_iface.c:1059 UCX  ERROR ibv_create_cq(cqe=256) failed: Connection timed out
[1739901028.188746] [ohm:320779:0]        ib_iface.c:1059 UCX  ERROR ibv_create_cq(cqe=256) failed: Connection timed out
[1739901028.189637] [ohm:320729:0]        ib_iface.c:1059 UCX  ERROR ibv_create_cq(cqe=256) failed: Connection timed out
[1739901028.189652] [ohm:320802:0]        ib_iface.c:1059 UCX  ERROR ibv_create_cq(cqe=256) failed: Connection timed out
[1739901028.189809] [ohm:320732:0]        ib_iface.c:1059 UCX  ERROR ibv_create_cq(cqe=256) failed: Connection timed out
[1739901028.190043] [ohm:320774:0]        ib_iface.c:1059 UCX  ERROR ibv_create_cq(cqe=256) failed: Connection timed out
[1739901028.190362] [ohm:320772:0]        ib_iface.c:1059 UCX  ERROR ibv_create_cq(cqe=256) failed: Connection timed out


           ************************************************************
           *        Program running with 64 parallel MPI-processes    *
           *              working on a common directory               *
           ************************************************************

-------------------------------------------------------------------------------------------
                                      ORCA LEAN-SCF
                              memory conserving SCF solver
-------------------------------------------------------------------------------------------

----------------------------------------D-I-I-S--------------------------------------------
Iteration    Energy (Eh)           Delta-E    RMSDP     MaxDP     DIISErr   Damp  Time(sec)
-------------------------------------------------------------------------------------------
               ***  Starting incremental Fock matrix formation  ***
    1    -908.0814884762044130     0.00e+00  1.47e-03  2.60e-01  1.45e-01  0.700   7.8
    2    -908.3484263193277002    -2.67e-01  1.26e-03  1.72e-01  6.91e-02  0.700   6.6
                               ***Turning on AO-DIIS***
    3    -908.4679886346743842    -1.20e-01  9.90e-04  1.14e-01  2.80e-02  0.700   5.8
    4    -908.5410644786093144    -7.31e-02  2.52e-03  2.53e-01  1.88e-02  0.000   5.7
    5    -908.7044704739128065    -1.63e-01  4.06e-04  5.97e-02  4.53e-03  0.000   5.8
                              *** Initializing SOSCF ***
---------------------------------------S-O-S-C-F--------------------------------------
Iteration    Energy (Eh)           Delta-E    RMSDP     MaxDP     MaxGrad    Time(sec)
--------------------------------------------------------------------------------------
    6    -908.7062370700418796    -1.77e-03  2.98e-04  4.32e-02  3.22e-03     6.5
               *** Restarting incremental Fock matrix formation ***
    7    -908.7076895207997040    -1.45e-03  6.34e-04  8.06e-02  1.31e-02     7.4
               *** Scaled step length from 0.439951 to 0.200000 ***
Curvature condition for BFGS not met. Restarting diagonal Hessian.
    8    -908.7121634740865375    -4.47e-03  3.62e-03  4.83e-01  1.57e-02     7.5
               *** Scaled step length from 0.260212 to 0.200000 ***
    9    -908.7051217043035649     7.04e-03  2.11e-03  2.59e-01  4.09e-02     6.9
   10    -908.7132825934354514    -8.16e-03  1.90e-03  2.63e-01  2.77e-02     6.9
               *** Scaled step length from 1.171859 to 0.200000 ***
   11    -908.7256740826856003    -1.24e-02  1.36e-03  1.75e-01  2.11e-02     6.9
               *** Scaled step length from 0.429302 to 0.200000 ***
   12    -908.7356235706006373    -9.95e-03  1.21e-03  1.57e-01  1.34e-02     6.9
   13    -908.7406251134398190    -5.00e-03  1.30e-03  1.66e-01  3.85e-03     6.8
   14    -908.7415017211283157    -8.77e-04  7.29e-04  7.76e-02  1.97e-03     6.8
   15    -908.7417297505157876    -2.28e-04  1.41e-04  1.76e-02  1.98e-03     6.8
   16    -908.7418309179547578    -1.01e-04  1.58e-04  1.67e-02  8.30e-04     6.6
   17    -908.7418634360451506    -3.25e-05  4.81e-05  5.06e-03  5.38e-04     6.5
   18    -908.7418744697756665    -1.10e-05  3.91e-05  3.92e-03  2.27e-04     6.4
   19    -908.7418772629039267    -2.79e-06  2.11e-05  2.27e-03  9.25e-05     6.2
   20    -908.7418781071601188    -8.44e-07  6.57e-06  7.57e-04  4.59e-05     6.1
   21    -908.7418783403022644    -2.33e-07  5.98e-06  6.46e-04  2.49e-05     5.9
   22    -908.7418784167298327    -7.64e-08  1.90e-06  2.84e-04  2.23e-05     5.9
   23    -908.7418783952089143     2.15e-08  2.16e-06  4.67e-04  9.19e-06     5.6
   24    -908.7418784103301732    -1.51e-08  1.54e-06  2.90e-04  4.91e-06     5.6
   25    -908.7418784602864434    -5.00e-08  1.96e-06  3.98e-04  2.34e-06     5.4
                  *** Gradient check signals convergence ***

               *****************************************************
               *                     SUCCESS                       *
               *           SCF CONVERGED AFTER  25 CYCLES          *
               *****************************************************

Recomputing exchange energy using gridx3       ... done (    7.859 sec)
Old exchange energy                            :    -35.042059677 Eh
New exchange energy                            :    -35.042062960 Eh
Exchange energy change after final integration :     -0.000003283 Eh
Total energy after final integration           :   -908.741881743 Eh
             **** ENERGY FILE WAS UPDATED (orca.en.tmp) ****

----------------
TOTAL SCF ENERGY
----------------

Total Energy       :       -908.74188174287565 Eh          -24728.12376 eV

Components:
Nuclear Repulsion  :       1456.30822130737988 Eh           39628.16136 eV
Electronic Energy  :      -2365.05009976766632 Eh          -64356.28502 eV
One Electron Energy:      -4130.02539834553318 Eh         -112383.70457 eV
Two Electron Energy:       1764.97529857786662 Eh           48027.41954 eV

Virial components:
Potential Energy   :      -1814.97212355002330 Eh          -49387.90231 eV
Kinetic Energy     :        906.23024180714765 Eh           24659.77856 eV
Virial Ratio       :          2.00277152518186

DFT components:
N(Alpha)           :       67.000110845178 electrons
N(Beta)            :       65.000066461689 electrons
N(Total)           :      132.000177306867 electrons
E(XC)              :      -86.320610209901 Eh       

---------------
SCF CONVERGENCE
---------------

  Last Energy change         ...    4.9956e-08  Tolerance :   1.0000e-08
  Last MAX-Density change    ...    3.9819e-04  Tolerance :   1.0000e-07
  Last RMS-Density change    ...    1.9566e-06  Tolerance :   5.0000e-09
  Last DIIS Error            ...    3.2211e-03  Tolerance :   5.0000e-07
  Last Orbital Gradient      ...    2.3375e-06  Tolerance :   1.0000e-05
  Last Orbital Rotation      ...    1.4915e-05  Tolerance :   1.0000e-05


----------------------
UHF SPIN CONTAMINATION
----------------------

Warning: in a DFT calculation there is little theoretical justification to 
         calculate <S**2> as in Hartree-Fock theory. We will do it anyways
         but you should keep in mind that the values have only limited relevance

Expectation value of <S**2>     :     2.010729
Ideal value S*(S+1) for S=1.0   :     2.000000
Deviation                       :     0.010729

----------------
ORBITAL ENERGIES
----------------
                 SPIN UP ORBITALS
  NO   OCC          E(Eh)            E(eV) 
   0   1.0000     -19.340440      -526.2801 
   1   1.0000     -19.322160      -525.7827 
   2   1.0000     -19.318945      -525.6952 
   3   1.0000     -19.318241      -525.6761 
   4   1.0000     -14.598608      -397.2483 
   5   1.0000     -14.576645      -396.6507 
   6   1.0000     -14.563515      -396.2934 
   7   1.0000     -14.557482      -396.1292 
   8   1.0000     -10.517875      -286.2059 
   9   1.0000     -10.506134      -285.8864 
  10   1.0000     -10.474683      -285.0306 
  11   1.0000     -10.461810      -284.6803 
  12   1.0000     -10.430465      -283.8274 
  13   1.0000     -10.410840      -283.2934 
  14   1.0000     -10.406358      -283.1714 
  15   1.0000     -10.379958      -282.4530 
  16   1.0000     -10.360638      -281.9273 
  17   1.0000     -10.359836      -281.9055 
  18   1.0000      -1.233882       -33.5756 
  19   1.0000      -1.217298       -33.1244 
  20   1.0000      -1.189804       -32.3762 
  21   1.0000      -1.187671       -32.3182 
  22   1.0000      -1.132441       -30.8153 
  23   1.0000      -1.116239       -30.3744 
  24   1.0000      -1.068011       -29.0620 
  25   1.0000      -1.062923       -28.9236 
  26   1.0000      -0.974683       -26.5225 
  27   1.0000      -0.955780       -26.0081 
  28   1.0000      -0.858456       -23.3598 
  29   1.0000      -0.849567       -23.1179 
  30   1.0000      -0.815644       -22.1948 
  31   1.0000      -0.809319       -22.0227 
  32   1.0000      -0.795675       -21.6514 
  33   1.0000      -0.787364       -21.4253 
  34   1.0000      -0.705186       -19.1891 
  35   1.0000      -0.696199       -18.9445 
  36   1.0000      -0.691177       -18.8079 
  37   1.0000      -0.689509       -18.7625 
  38   1.0000      -0.645476       -17.5643 
  39   1.0000      -0.637563       -17.3490 
  40   1.0000      -0.636072       -17.3084 
  41   1.0000      -0.600160       -16.3312 
  42   1.0000      -0.598079       -16.2746 
  43   1.0000      -0.592808       -16.1311 
  44   1.0000      -0.577269       -15.7083 
  45   1.0000      -0.574881       -15.6433 
  46   1.0000      -0.559320       -15.2199 
  47   1.0000      -0.550574       -14.9819 
  48   1.0000      -0.549558       -14.9542 
  49   1.0000      -0.548360       -14.9216 
  50   1.0000      -0.532701       -14.4955 
  51   1.0000      -0.526052       -14.3146 
  52   1.0000      -0.520101       -14.1527 
  53   1.0000      -0.515714       -14.0333 
  54   1.0000      -0.506694       -13.7879 
  55   1.0000      -0.503161       -13.6917 
  56   1.0000      -0.498223       -13.5573 
  57   1.0000      -0.471821       -12.8389 
  58   1.0000      -0.427950       -11.6451 
  59   1.0000      -0.412499       -11.2247 
  60   1.0000      -0.410572       -11.1722 
  61   1.0000      -0.395172       -10.7532 
  62   1.0000      -0.389678       -10.6037 
  63   1.0000      -0.388534       -10.5726 
  64   1.0000      -0.382208       -10.4004 
  65   1.0000      -0.343329        -9.3424 
  66   1.0000      -0.217234        -5.9112 
  67   0.0000       0.011333         0.3084 
  68   0.0000       0.019789         0.5385 
  69   0.0000       0.033294         0.9060 
  70   0.0000       0.039214         1.0671 
  71   0.0000       0.040764         1.1093 
  72   0.0000       0.055578         1.5123 
  73   0.0000       0.060189         1.6378 
  74   0.0000       0.062566         1.7025 
  75   0.0000       0.065640         1.7862 
  76   0.0000       0.067469         1.8359 
  77   0.0000       0.070207         1.9104 

                 SPIN DOWN ORBITALS
  NO   OCC          E(Eh)            E(eV) 
   0   1.0000     -19.338608      -526.2303 
   1   1.0000     -19.318948      -525.6953 
   2   1.0000     -19.318204      -525.6750 
   3   1.0000     -19.315808      -525.6099 
   4   1.0000     -14.594380      -397.1333 
   5   1.0000     -14.576507      -396.6469 
   6   1.0000     -14.563527      -396.2937 
   7   1.0000     -14.556509      -396.1028 
   8   1.0000     -10.518115      -286.2125 
   9   1.0000     -10.506140      -285.8866 
  10   1.0000     -10.474672      -285.0303 
  11   1.0000     -10.461622      -284.6752 
  12   1.0000     -10.430214      -283.8206 
  13   1.0000     -10.401304      -283.0339 
  14   1.0000     -10.395617      -282.8791 
  15   1.0000     -10.380020      -282.4547 
  16   1.0000     -10.361036      -281.9381 
  17   1.0000     -10.359729      -281.9026 
  18   1.0000      -1.229868       -33.4664 
  19   1.0000      -1.217155       -33.1205 
  20   1.0000      -1.188128       -32.3306 
  21   1.0000      -1.180037       -32.1104 
  22   1.0000      -1.122293       -30.5391 
  23   1.0000      -1.115987       -30.3676 
  24   1.0000      -1.063120       -28.9290 
  25   1.0000      -1.062407       -28.9096 
  26   1.0000      -0.957285       -26.0490 
  27   1.0000      -0.948673       -25.8147 
  28   1.0000      -0.849384       -23.1129 
  29   1.0000      -0.846542       -23.0356 
  30   1.0000      -0.810001       -22.0412 
  31   1.0000      -0.804627       -21.8950 
  32   1.0000      -0.788976       -21.4691 
  33   1.0000      -0.787147       -21.4194 
  34   1.0000      -0.693960       -18.8836 
  35   1.0000      -0.691155       -18.8073 
  36   1.0000      -0.689498       -18.7622 
  37   1.0000      -0.687091       -18.6967 
  38   1.0000      -0.638659       -17.3788 
  39   1.0000      -0.633552       -17.2398 
  40   1.0000      -0.628954       -17.1147 
  41   1.0000      -0.594394       -16.1743 
  42   1.0000      -0.590646       -16.0723 
  43   1.0000      -0.589808       -16.0495 
  44   1.0000      -0.567901       -15.4534 
  45   1.0000      -0.563093       -15.3225 
  46   1.0000      -0.558379       -15.1943 
  47   1.0000      -0.549664       -14.9571 
  48   1.0000      -0.542174       -14.7533 
  49   1.0000      -0.537041       -14.6136 
  50   1.0000      -0.523585       -14.2475 
  51   1.0000      -0.519927       -14.1479 
  52   1.0000      -0.515915       -14.0388 
  53   1.0000      -0.506679       -13.7874 
  54   1.0000      -0.504721       -13.7342 
  55   1.0000      -0.498257       -13.5583 
  56   1.0000      -0.470680       -12.8078 
  57   1.0000      -0.456575       -12.4240 
  58   1.0000      -0.423941       -11.5360 
  59   1.0000      -0.411093       -11.1864 
  60   1.0000      -0.395848       -10.7716 
  61   1.0000      -0.386260       -10.5107 
  62   1.0000      -0.382669       -10.4130 
  63   1.0000      -0.380483       -10.3535 
  64   1.0000      -0.342345        -9.3157 
  65   0.0000      -0.105362        -2.8670 
  66   0.0000       0.011008         0.2995 
  67   0.0000       0.022042         0.5998 
  68   0.0000       0.031255         0.8505 
  69   0.0000       0.037177         1.0116 
  70   0.0000       0.040023         1.0891 
  71   0.0000       0.055275         1.5041 
  72   0.0000       0.058224         1.5844 
  73   0.0000       0.061881         1.6839 
  74   0.0000       0.065374         1.7789 
  75   0.0000       0.066893         1.8202 
*Only the first 10 virtual orbitals were printed.

                    ********************************
                    * MULLIKEN POPULATION ANALYSIS *
                    ********************************

--------------------------------------------
MULLIKEN ATOMIC CHARGES AND SPIN POPULATIONS
--------------------------------------------
   0 O :   -0.685622    0.001545
   1 O :   -0.675928    0.235278
   2 O :   -0.653482    0.001813
   3 O :   -0.651962    0.067865
   4 N :   -0.056775    0.005350
   5 N :    0.057253    0.184087
   6 N :    0.042284    0.000675
   7 N :    0.011382    0.047108
   8 C :    0.913863    0.050125
   9 C :    0.737471    0.255271
  10 C :    0.003583    0.013431
  11 C :   -0.326529    0.931544
  12 C :   -1.451956   -0.022198
  13 C :   -1.341370    0.029868
  14 C :    0.263398   -0.013445
  15 C :    0.655661    0.209207
  16 C :    0.377060   -0.003013
  17 C :    0.456519   -0.024802
  18 H :    0.199845    0.002496
  19 H :    0.124977    0.008011
  20 H :    0.239974   -0.005856
  21 H :    0.331231    0.003332
  22 H :    0.370632    0.006410
  23 H :    0.365241    0.013745
  24 H :    0.336277    0.008057
  25 H :    0.221453    0.016896
  26 H :    0.057702   -0.001375
[...]
[1739901356.503395] [ohm:323794:0]        ib_iface.c:1059 UCX  ERROR ibv_create_cq(cqe=256) failed: Connection timed out
[1739901356.506982] [ohm:323754:0]        ib_iface.c:1059 UCX  ERROR ibv_create_cq(cqe=256) failed: Connection timed out
[1739901356.507348] [ohm:323738:0]        ib_iface.c:1059 UCX  ERROR ibv_create_cq(cqe=256) failed: Connection timed out
[1739901356.511060] [ohm:323852:0]        ib_iface.c:1059 UCX  ERROR ibv_create_cq(cqe=256) failed: Connection timed out
[1739901356.511621] [ohm:323753:0]        ib_iface.c:1059 UCX  ERROR ibv_create_cq(cqe=256) failed: Connection timed out
[1739901356.513274] [ohm:323859:0]        ib_iface.c:1059 UCX  ERROR ibv_create_cq(cqe=256) failed: Connection timed out
[1739901356.513505] [ohm:323872:0]        ib_iface.c:1059 UCX  ERROR ibv_create_cq(cqe=256) failed: Connection timed out
[1739901356.513702] [ohm:323746:0]        ib_iface.c:1059 UCX  ERROR ibv_create_cq(cqe=256) failed: Connection timed out
[1739901356.514228] [ohm:323758:0]        ib_iface.c:1059 UCX  ERROR ibv_create_cq(cqe=256) failed: Connection timed out
[1739901356.517341] [ohm:323772:0]        ib_iface.c:1059 UCX  ERROR ibv_create_cq(cqe=256) failed: Connection timed out
[1739901356.518189] [ohm:323843:0]        ib_iface.c:1059 UCX  ERROR ibv_create_cq(cqe=256) failed: Connection timed out


           ************************************************************
           *        Program running with 64 parallel MPI-processes    *
           *              working on a common directory               *
           ************************************************************

------------------------------------------------------------------------------
                              ORCA PROPERTY CALCULATIONS
------------------------------------------------------------------------------

GBWName                                 ... orca.gbw
Number of atoms                         ...     30
Number of basis functions               ...    882
Max core memory                         ...   1024 MB

Electric properties:
Dipole moment                           ... YES
Quadrupole moment                       ...  NO
Static polarizability (Dipole/Dipole)   ...  NO
Static polarizability (Dipole/Quad.)    ...  NO
Static polarizability (Quad./Quad.)     ...  NO
Static polarizability (Velocity)        ...  NO

Atomic electric properties:
Dipole moment                           ...  NO
Quadrupole moment                       ...  NO
Static polarizability                   ...  NO

Choice of electric origin               ... Center of mass
Position of electric origin             ...     0.016321    -0.007799     0.078534

General magnetic properties:
Magnetizability                         ...  NO

EPR properties:
g-Tensor (aka g-matrix)                 ...  NO
Zero-Field splitting spin-orbit         ...  NO
Zero-field splitting spin-spin          ...  NO
Hyperfine couplings                     ...  NO (   0 nuclei)
Quadrupole couplings                    ...  NO (   0 nuclei)
Contact density                         ...  NO (   0 nuclei)

NMR properties:
Chemical shifts                         ...  NO (   0 nuclei)
Spin-rotation constants                 ...  NO (   0 nuclei)
Spin-spin couplings                     ...  NO (   0 nuclei,    0 pairs)

Choice of magnetic origin               ... GIAO
Position of magnetic origin             ...     0.000000     0.000000     0.000000

Properties with geometric perturbations:
SCF Hessian                             ...  NO
IR spectrum                             ...  NO
VCD spectrum                            ...  NO
X-ray spectroscopy properties:
SCF XES/XAS/RIXS spectra                ...  NO


-------------
DIPOLE MOMENT
-------------

Method             : SCF
Type of density    : Electron Density
Multiplicity       :   3
Irrep              :   0
Energy             :  -908.7418817428756483 Eh
Relativity type    : 
Basis              : AO
                                X                 Y                 Z
Electronic contribution:     -2.596388844     -10.081573367      -6.007687420
Nuclear contribution   :      2.040192994      11.054764502       8.504690252
                        -----------------------------------------
Total Dipole Moment    :     -0.556195850       0.973191136       2.497002832
                        -----------------------------------------
Magnitude (a.u.)       :      2.737056439
Magnitude (Debye)      :      6.957044583



--------------------
Rotational spectrum 
--------------------
 
Rotational constants in cm-1:             0.017273             0.016541             0.013520 
Rotational constants in MHz :           517.825191           495.877086           405.329573 

Dipole components along the rotational axes: 
x,y,z [a.u.] :     1.520915    -0.171621     2.269106 
x,y,z [Debye]:     3.865859    -0.436227     5.767608 

 

-------------
DIPOLE MOMENT
-------------

Method             : TDA/CIS
Type of density    : Electron Density
Level              : Relaxed density
State              :   1
Multiplicity       :   3
Irrep              :   0
Energy             :     0.0000000000000000 Eh
Relativity type    : 
Basis              : AO
                                X                 Y                 Z
Electronic contribution:     -2.764170370     -10.134466049      -5.786722248
Nuclear contribution   :      2.040192994      11.054764502       8.504690252
                        -----------------------------------------
Total Dipole Moment    :     -0.723977376       0.920298453       2.717968004
                        -----------------------------------------
Magnitude (a.u.)       :      2.959466600
Magnitude (Debye)      :      7.522366284



--------------------
Rotational spectrum 
--------------------
 
Rotational constants in cm-1:             0.017273             0.016541             0.013520 
Rotational constants in MHz :           517.825191           495.877086           405.329573 

Dipole components along the rotational axes: 
x,y,z [a.u.] :     1.603179    -0.361645     2.461194 
x,y,z [Debye]:     4.074956    -0.919227     6.255857 

 

Dipole moment calculation done in   0.2 sec 

Maximum memory used throughout the entire PROP-calculation: 81.9 MB
[1739901359.075209] [ohm:324088:0]        ib_iface.c:1059 UCX  ERROR ibv_create_cq(cqe=256) failed: Connection timed out
[1739901359.091649] [ohm:324076:0]        ib_iface.c:1059 UCX  ERROR ibv_create_cq(cqe=256) failed: Connection timed out
[1739901359.113960] [ohm:324078:0]        ib_iface.c:1059 UCX  ERROR ibv_create_cq(cqe=256) failed: Connection timed out
[1739901359.121267] [ohm:324086:0]        ib_iface.c:1059 UCX  ERROR ibv_create_cq(cqe=256) failed: Connection timed out
[1739901359.122246] [ohm:324079:0]        ib_iface.c:1059 UCX  ERROR ibv_create_cq(cqe=256) failed: Connection timed out
[1739901359.123073] [ohm:324080:0]        ib_iface.c:1059 UCX  ERROR ibv_create_cq(cqe=256) failed: Connection timed out
[1739901359.158772] [ohm:324151:0]        ib_iface.c:1059 UCX  ERROR ibv_create_cq(cqe=256) failed: Connection timed out
[1739901359.162648] [ohm:324090:0]        ib_iface.c:1059 UCX  ERROR ibv_create_cq(cqe=256) failed: Connection timed out
[1739901359.164529] [ohm:324087:0]        ib_iface.c:1059 UCX  ERROR ibv_create_cq(cqe=256) failed: Connection timed out
[1739901359.164569] [ohm:324131:0]        ib_iface.c:1059 UCX  ERROR ibv_create_cq(cqe=256) failed: Connection timed out
[1739901359.172891] [ohm:324084:0]        ib_iface.c:1059 UCX  ERROR ibv_create_cq(cqe=256) failed: Connection timed out
[1739901359.189308] [ohm:324110:0]        ib_iface.c:1059 UCX  ERROR ibv_create_cq(cqe=256) failed: Connection timed out
[1739901359.206972] [ohm:324082:0]        ib_iface.c:1059 UCX  ERROR ibv_create_cq(cqe=256) failed: Connection timed out
[1739901359.210649] [ohm:324124:0]        ib_iface.c:1059 UCX  ERROR ibv_create_cq(cqe=256) failed: Connection timed out
[1739901359.235856] [ohm:324122:0]        ib_iface.c:1059 UCX  ERROR ibv_create_cq(cqe=256) failed: Connection timed out
[1739901359.252383] [ohm:324102:0]        ib_iface.c:1059 UCX  ERROR ibv_create_cq(cqe=256) failed: Connection timed out
[1739901359.256467] [ohm:324219:0]        ib_iface.c:1059 UCX  ERROR ibv_create_cq(cqe=256) failed: Connection timed out
[1739901359.256469] [ohm:324138:0]        ib_iface.c:1059 UCX  ERROR ibv_create_cq(cqe=256) failed: Connection timed out
[1739901359.270072] [ohm:324153:0]        ib_iface.c:1059 UCX  ERROR ibv_create_cq(cqe=256) failed: Connection timed out
[1739901359.275238] [ohm:324143:0]        ib_iface.c:1059 UCX  ERROR ibv_create_cq(cqe=256) failed: Connection timed out
[1739901359.276039] [ohm:324142:0]        ib_iface.c:1059 UCX  ERROR ibv_create_cq(cqe=256) failed: Connection timed out
[1739901359.280930] [ohm:324135:0]        ib_iface.c:1059 UCX  ERROR ibv_create_cq(cqe=256) failed: Connection timed out
[1739901359.284674] [ohm:324128:0]        ib_iface.c:1059 UCX  ERROR ibv_create_cq(cqe=256) failed: Connection timed out
[1739901359.298069] [ohm:324144:0]        ib_iface.c:1059 UCX  ERROR ibv_create_cq(cqe=256) failed: Connection timed out
[1739901359.310764] [ohm:324149:0]        ib_iface.c:1059 UCX  ERROR ibv_create_cq(cqe=256) failed: Connection timed out
[1739901359.315590] [ohm:324115:0]        ib_iface.c:1059 UCX  ERROR ibv_create_cq(cqe=256) failed: Connection timed out
[1739901359.316030] [ohm:324194:0]        ib_iface.c:1059 UCX  ERROR ibv_create_cq(cqe=256) failed: Connection timed out
[1739901359.318423] [ohm:324139:0]        ib_iface.c:1059 UCX  ERROR ibv_create_cq(cqe=256) failed: Connection timed out
[1739901359.327945] [ohm:324174:0]        ib_iface.c:1059 UCX  ERROR ibv_create_cq(cqe=256) failed: Connection timed out
[1739901359.328283] [ohm:324145:0]        ib_iface.c:1059 UCX  ERROR ibv_create_cq(cqe=256) failed: Connection timed out
[1739901359.331003] [ohm:324156:0]        ib_iface.c:1059 UCX  ERROR ibv_create_cq(cqe=256) failed: Connection timed out
[1739901359.333293] [ohm:324146:0]        ib_iface.c:1059 UCX  ERROR ibv_create_cq(cqe=256) failed: Connection timed out
[1739901359.336940] [ohm:324091:0]        ib_iface.c:1059 UCX  ERROR ibv_create_cq(cqe=256) failed: Connection timed out
[1739901359.343890] [ohm:324116:0]        ib_iface.c:1059 UCX  ERROR ibv_create_cq(cqe=256) failed: Connection timed out
[1739901359.356919] [ohm:324202:0]        ib_iface.c:1059 UCX  ERROR ibv_create_cq(cqe=256) failed: Connection timed out
[1739901359.356948] [ohm:324093:0]        ib_iface.c:1059 UCX  ERROR ibv_create_cq(cqe=256) failed: Connection timed out
[1739901359.359023] [ohm:324095:0]        ib_iface.c:1059 UCX  ERROR ibv_create_cq(cqe=256) failed: Connection timed out
[1739901359.372211] [ohm:324162:0]        ib_iface.c:1059 UCX  ERROR ibv_create_cq(cqe=256) failed: Connection timed out
[1739901359.378411] [ohm:324147:0]        ib_iface.c:1059 UCX  ERROR ibv_create_cq(cqe=256) failed: Connection timed out
[1739901359.384886] [ohm:324167:0]        ib_iface.c:1059 UCX  ERROR ibv_create_cq(cqe=256) failed: Connection timed out
[1739901359.396627] [ohm:324085:0]        ib_iface.c:1059 UCX  ERROR ibv_create_cq(cqe=256) failed: Connection timed out
[1739901359.407214] [ohm:324092:0]        ib_iface.c:1059 UCX  ERROR ibv_create_cq(cqe=256) failed: Connection timed out
[1739901359.411810] [ohm:324214:0]        ib_iface.c:1059 UCX  ERROR ibv_create_cq(cqe=256) failed: Connection timed out
[1739901359.412298] [ohm:324224:0]        ib_iface.c:1059 UCX  ERROR ibv_create_cq(cqe=256) failed: Connection timed out
[1739901359.413457] [ohm:324205:0]        ib_iface.c:1059 UCX  ERROR ibv_create_cq(cqe=256) failed: Connection timed out
[1739901359.419735] [ohm:324103:0]        ib_iface.c:1059 UCX  ERROR ibv_create_cq(cqe=256) failed: Connection timed out
[1739901359.420414] [ohm:324133:0]        ib_iface.c:1059 UCX  ERROR ibv_create_cq(cqe=256) failed: Connection timed out
[1739901359.426792] [ohm:324089:0]        ib_iface.c:1059 UCX  ERROR ibv_create_cq(cqe=256) failed: Connection timed out
[1739901359.427388] [ohm:324209:0]        ib_iface.c:1059 UCX  ERROR ibv_create_cq(cqe=256) failed: Connection timed out
[1739901359.430285] [ohm:324226:0]        ib_iface.c:1059 UCX  ERROR ibv_create_cq(cqe=256) failed: Connection timed out
[1739901359.431012] [ohm:324200:0]        ib_iface.c:1059 UCX  ERROR ibv_create_cq(cqe=256) failed: Connection timed out
[1739901359.432066] [ohm:324081:0]        ib_iface.c:1059 UCX  ERROR ibv_create_cq(cqe=256) failed: Connection timed out
[1739901359.438224] [ohm:324189:0]        ib_iface.c:1059 UCX  ERROR ibv_create_cq(cqe=256) failed: Connection timed out
[1739901359.438787] [ohm:324187:0]        ib_iface.c:1059 UCX  ERROR ibv_create_cq(cqe=256) failed: Connection timed out
[1739901359.441641] [ohm:324077:0]        ib_iface.c:1059 UCX  ERROR ibv_create_cq(cqe=256) failed: Connection timed out
[1739901359.444775] [ohm:324097:0]        ib_iface.c:1059 UCX  ERROR ibv_create_cq(cqe=256) failed: Connection timed out
[1739901359.445348] [ohm:324183:0]        ib_iface.c:1059 UCX  ERROR ibv_create_cq(cqe=256) failed: Connection timed out
[1739901359.445709] [ohm:324094:0]        ib_iface.c:1059 UCX  ERROR ibv_create_cq(cqe=256) failed: Connection timed out
[1739901359.445821] [ohm:324160:0]        ib_iface.c:1059 UCX  ERROR ibv_create_cq(cqe=256) failed: Connection timed out
[1739901359.446177] [ohm:324197:0]        ib_iface.c:1059 UCX  ERROR ibv_create_cq(cqe=256) failed: Connection timed out
[1739901359.447136] [ohm:324179:0]        ib_iface.c:1059 UCX  ERROR ibv_create_cq(cqe=256) failed: Connection timed out
[1739901359.447194] [ohm:324083:0]        ib_iface.c:1059 UCX  ERROR ibv_create_cq(cqe=256) failed: Connection timed out
[1739901359.447799] [ohm:324171:0]        ib_iface.c:1059 UCX  ERROR ibv_create_cq(cqe=256) failed: Connection timed out
[1739901359.449519] [ohm:324178:0]        ib_iface.c:1059 UCX  ERROR ibv_create_cq(cqe=256) failed: Connection timed out

--------------------------------
SUGGESTED CITATIONS FOR THIS RUN
--------------------------------

Below you find a list of papers that are relevant to this ORCA run
We neither can nor want to force you to cite these papers, but we appreciate if you do
You receive ORCA, which is the product of decades of hard work by many enthusiastic individuals, for free
The only thing we kindly ask in return is that you cite our papers,
We deeply appreciate it, if you show your appreciation for ORCA by not just citing the generic ORCA reference.

Please note that relegating all ORCA citations to the supporting information does *not* help us.
SI sections are not indexed - citations you put there will not count into any citation statistics
But we need these citations in order to attract the funding resources that allow us to do what we are doing

Therefore, if you are a happy ORCA user, please consider citing a few of the papers listed below in the main body of your paper

In addition to the list printed below, the program has created the file orca.bibtex that contains the list in bibtex format
You can import this file easily into all common literature databanks and citation aid programs


List of essential papers. We consider these as the minimum necessary citations

  1. Neese,F.
     Software update: the ORCA program system, version 5.0
     WIRES Comput. Molec. Sci., 2022 12(1)e1606
     doi.org/10.1002/wcms.1606

List of papers to cite with high priority. The work reported in these papers was absolutely
necessary for this run to complete.
Our perspective: the developers of density functionals and basis sets usually get cited in chemistry papers
Good! But without the algorithms to do something with them, the functionals or basis sets would not do anything.
Hence, in our opinion, the algorithm design and method developments papers are equally worthy of getting cited

  1. Neese,F.; Olbrich,G.
     Efficient use of the resolution of the identity approximation in time-dependent density functional calculations with hybrid density functionals
     Chem. Phys. Lett., 2002 362 170-178
     doi.org/10.1016/s0009-2614(02)01053-9
  2. Neese,F.
     An improvement of the resolution of the identity approximation for the formation of the Coulomb matrix
     J. Comp. Chem., 2003 24(14)1740-1747
     doi.org/10.1002/jcc.10318
  3. Neese,F.; Wennmohs,F.; Hansen,A.; Becker,U.
     Efficient, approximate and parallel Hartree-Fock and hybrid DFT calculations. A 'chain-of-spheres' algorithm for the Hartree-Fock exchange
     Chem. Phys., 2009 356(1-3)98-109
     doi.org/10.1016/j.chemphys.2008.10.036
  4. Petrenko,T.; Kossmann,S.; Neese,F.
     Efficient time-dependent density functional theory approximations for hybrid density functionals: Analytical gradients and parallelization
     J. Chem. Phys., 2011 134 054116
     doi.org/10.1063/1.3533441
  5. Helmich-Paris,B.; de Souza,B.; Neese,F.; Izsák,R.
     An improved chain of spheres for exchange algorithm
     J. Chem. Phys., 2021 155 104109
     doi.org/doi: 10.1063/5.0058766.
  6. Neese,F.
     The SHARK Integral Generation and Digestion System
     J. Comp. Chem., 2022  1-16
     doi.org/10.1002/jcc.26942
  7. Lehtola,S.; Steigemann,C.; Oliveira,M.; Marques,M.
     Recent developments in Libxc - A comprehensive library of functionals for density functional theory
     Software X, 2018 7 
     doi.org/10.1016/j.softx.2017.11.002
  8. Grimme,S.; Antony,J.; Ehrlich,S.; Krieg,H.
     A consistent and accurate ab initio parametrization of density functional dispersion correction (DFT-D) for the 94 elements H-Pu
     J. Chem. Phys., 2010 132 154104-XXXX
     doi.org/10.1063/1.3382344
  9. Grimme,S.; Ehrlich,S.; Goerigk,L.
     Effect of the damping function in dispersion corrected density functional theory
     J. Comput. Chem., 2011 32(7)1456-1465
     doi.org/10.1002/jcc.21759

List of suggested additional citations. These are papers that are important in the 'surrounding' of 
of this run, or papers that preceded the highly important papers. If you like your results we are grateful for a citation.

  1. Izsak,R.; Neese,F.
     An overlap fitted chain of spheres exchange method
     J. Chem. Phys., 2011 135 144105
     doi.org/10.1063/1.3646921
  2. Izsak,R.; Hansen,A.; Neese,F.
     The resolution of identity and chain of spheres approximations for the LPNO-CCSD singles Fock term
     Molec. Phys., 2012 110 2413-2417
     doi.org/10.1080/00268976.2012.687466
  3. Neese,F.
     The ORCA program system
     WIRES Comput. Molec. Sci., 2012 2(1)73-78
     doi.org/10.1002/wcms.81
  4. Izsak,R.; Neese,F.; Klopper,W.
     Robust fitting techniques in the chain of spheres approximation to the Fock exchange: The role of the complementary space
     J. Chem. Phys., 2013 139 
     doi.org/10.1063/1.4819264
  5. Neese,F.
     Software update: the ORCA program system, version 4.0
     WIRES Comput. Molec. Sci., 2018 8(1)1-6
     doi.org/10.1002/wcms.1327
  6. Neese,F.; Wennmohs,F.; Becker,U.; Riplinger,C.
     The ORCA quantum chemistry program package
     J. Chem. Phys., 2020 152 Art. No. L224108
     doi.org/10.1063/5.0004608

List of optional additional citations

  1. Neese,F.
     Approximate second-order SCF convergence for spin unrestricted wavefunctions
     Chem. Phys. Lett., 2000 325(1-3)93-98
     doi.org/10.1016/s0009-2614(00)00662-x

Timings for individual modules:

Sum of individual times          ...      341.680 sec (=   5.695 min)
Startup calculation              ...        6.364 sec (=   0.106 min)   1.9 %
SCF iterations                   ...      178.566 sec (=   2.976 min)  52.3 %
Property integrals               ...        4.321 sec (=   0.072 min)   1.3 %
Property calculations            ...        3.123 sec (=   0.052 min)   0.9 %
CIS module                       ...      149.306 sec (=   2.488 min)  43.7 %
                             ****ORCA TERMINATED NORMALLY****
TOTAL RUN TIME: 0 days 0 hours 5 minutes 43 seconds 867 msec
