
                                 *****************
                                 * O   R   C   A *
                                 *****************

                                            #,                                       
                                            ###                                      
                                            ####                                     
                                            #####                                    
                                            ######                                   
                                           ########,                                 
                                     ,,################,,,,,                         
                               ,,#################################,,                 
                          ,,##########################################,,             
                       ,#########################################, ''#####,          
                    ,#############################################,,   '####,        
                  ,##################################################,,,,####,       
                ,###########''''           ''''###############################       
              ,#####''   ,,,,##########,,,,          '''####'''          '####       
            ,##' ,,,,###########################,,,                        '##       
           ' ,,###''''                  '''############,,,                           
         ,,##''                                '''############,,,,        ,,,,,,###''
      ,#''                                            '''#######################'''  
     '                                                          ''''####''''         
             ,#######,   #######,   ,#######,      ##                                
            ,#'     '#,  ##    ##  ,#'     '#,    #''#        ,####,   ,####,        
            ##       ##  ##   ,#'  ##            #'  '#       #'       #'  '#        
            ##       ##  #######   ##           ,######,      #####,   #    #        
            '#,     ,#'  ##    ##  '#,     ,#' ,#      #,     #,   #   #,  ,#        
             '#######'   ##     ##  '#######'  #'      '#     '####' # '####'        



                #########################################################
                #                        -***-                          #
                #          Department of theory and spectroscopy        #
                #                                                       #
                #                      Frank Neese                      #
                #                                                       #
                #     Directorship, Architecture, Infrastructure        #
                #                    SHARK, DRIVERS                     #
                #        Core code/Algorithms in most modules           #
                #                                                       #
                #        Max Planck Institute fuer Kohlenforschung      #
                #                Kaiser Wilhelm Platz 1                 #
                #                 D-45470 Muelheim/Ruhr                 #
                #                      Germany                          #
                #                                                       #
                #                  All rights reserved                  #
                #                        -***-                          #
                #########################################################


                         Program Version 6.0.0  -   RELEASE  -


 With contributions from (in alphabetic order):
   Daniel Aravena         : Magnetic Suceptibility
   Michael Atanasov       : Ab Initio Ligand Field Theory (pilot matlab implementation)
   Alexander A. Auer      : GIAO ZORA, VPT2 properties, NMR spectrum
   Ute Becker             : All parallelization in ORCA, NUMFREQ, NUMCALC
   Giovanni Bistoni       : ED, misc. LED, open-shell LED, HFLD
   Martin Brehm           : Molecular dynamics
   Dmytro Bykov           : pre 5.0 version of the SCF Hessian
   Marcos Casanova-Páez   : Triplet and SCS-CIS(D). UHF-(DLPNO)-IP/EA/STEOM-CCSD. UHF-CVS-IP/STEOM-CCSD
   Vijay G. Chilkuri      : MRCI spin determinant printing, contributions to CSF-ICE
   Pauline Colinet        : FMM embedding
   Dipayan Datta          : RHF DLPNO-CCSD density
   Achintya Kumar Dutta   : EOM-CC, STEOM-CC
   Nicolas Foglia         : Exact transition moments, OPA infrastructure, MCD improvements
   Dmitry Ganyushin       : Spin-Orbit,Spin-Spin,Magnetic field MRCI
   Miquel Garcia          : C-PCM and meta-GGA Hessian, CCSD/C-PCM, Gaussian charge scheme
   Tiago L. C. Gouveia    : GS-ROHF, GS-ROCIS
   Yang Guo               : DLPNO-NEVPT2, F12-NEVPT2, CIM, IAO-localization
   Andreas Hansen         : Spin unrestricted coupled pair/coupled cluster methods
   Ingolf Harden          : AUTO-CI MPn and infrastructure 
   Benjamin Helmich-Paris : MC-RPA, TRAH-(SCF,CASSCF), AVAS, COSX integrals, SCF dyn. polar.
   Lee Huntington         : MR-EOM, pCC
   Robert Izsak           : Overlap fitted RIJCOSX, COSX-SCS-MP3, EOM
   Riya Kayal             : Wick's Theorem for AUTO-CI, AUTO-CI UHF-CCSDT
   Emily Kempfer          : AUTO-CI, RHF CISDT and CCSDT
   Christian Kollmar      : KDIIS, OOCD, Brueckner-CCSD(T), CCSD density, CASPT2, CASPT2-K, improved NEVPT2
   Axel Koslowski         : Symmetry handling
   Simone Kossmann        : Meta GGA functionals, TD-DFT gradient, OOMP2, (MP2 Hessian; deprecated post 5.0)
   Lucas Lang             : DCDCAS
   Marvin Lechner         : AUTO-CI (C++ implementation), FIC-MRCC
   Spencer Leger          : CASSCF response
   Dagmar Lenk            : GEPOL surface, SMD, ORCA-2-JSON
   Dimitrios Liakos       : Extrapolation schemes; Compound Job, initial MDCI parallelization
   Dimitrios Manganas     : Further ROCIS development; embedding schemes. LFT, Crystal Embedding
   Dimitrios Pantazis     : SARC Basis sets
   Anastasios Papadopoulos: AUTO-CI, single reference methods and gradients
   Taras Petrenko         : pre 6.0 DFT Hessian and TD-DFT gradient, (ASA, deprecated), ECA, 1-Electron XAS/XES, NRVS
   Peter Pinski           : DLPNO-MP2, DLPNO-MP2 Gradient
   Christoph Reimann      : Effective Core Potentials
   Marius Retegan         : Local ZFS, SOC
   Christoph Riplinger    : Optimizer, TS searches, QM/MM, DLPNO-CCSD(T), (RO)-DLPNO pert. Triples
   Michael Roemelt        : Original ROCIS implementation
   Masaaki Saitow         : Open-shell DLPNO-CCSD energy and density
   Barbara Sandhoefer     : DKH picture change effects
   Kantharuban Sivalingam : CASSCF convergence/infrastructure, NEVPT2 and variants, FIC-MRCI
   Bernardo de Souza      : ESD, SOC TD-DFT
   Georgi Stoychev        : AutoAux, RI-MP2 NMR, DLPNO-MP2 response, X2C
   Van Anh Tran           : RI-MP2 g-tensors
   Willem Van den Heuvel  : Paramagnetic NMR
   Zikuan Wang            : NOTCH, Electric field optimization 
   Frank Wennmohs         : Technical directorship and infrastructure
   Hang Xu                : AUTO-CI-Response properties 


 We gratefully acknowledge several colleagues who have allowed us to
 interface, adapt or use parts of their codes:
   Stefan Grimme, W. Hujo, H. Kruse, P. Pracht,  : VdW corrections, initial TS optimization,
                  C. Bannwarth, S. Ehlert,         DFT functionals, gCP, sTDA/sTD-DF
                  L. Wittmann, M. Mueller
   Ed Valeev, F. Pavosevic, A. Kumar             : LibInt (2-el integral package), F12 methods
   Garnet Chan, S. Sharma, J. Yang, R. Olivares  : DMRG
   Ulf Ekstrom                                   : XCFun DFT Library
   Mihaly Kallay                                 : mrcc  (arbitrary order and MRCC methods)
   Frank Weinhold                                : gennbo (NPA and NBO analysis)
   Simon Mueller                                 : openCOSMO-RS
   Christopher J. Cramer and Donald G. Truhlar   : smd solvation model
   Lars Goerigk                                  : TD-DFT with DH, B97 family of functionals
   V. Asgeirsson, H. Jonsson                     : NEB implementation
   FAccTs GmbH                                   : IRC, NEB, NEB-TS, DLPNO-Multilevel, CI-OPT
                                                   MM, QMMM, 2- and 3-layer-ONIOM, Crystal-QMMM,
                                                   LR-CPCM, SF, NACMEs, symmetry and pop. for TD-DFT,
                                                   nearIR, NL-DFT gradient (VV10), updates on ESD,
                                                   ML-optimized integration grids, MBIS, APM,
                                                   GOAT, DOCKER, SOLVATOR, interface openCOSMO-RS
   S Lehtola, MJT Oliveira, MAL Marques          : LibXC Library
   Liviu Ungur et al                             : ANISO software


 Your calculation uses the libint2 library for the computation of 2-el integrals
 For citations please refer to: http://libint.valeyev.net

 Your ORCA version has been built with support for libXC version: 6.2.2
 For citations please refer to: https://libxc.gitlab.io

 This ORCA versions uses:
   CBLAS   interface :  Fast vector & matrix operations
   LAPACKE interface :  Fast linear algebra routines
   SCALAPACK package :  Parallel linear algebra routines
   Shared memory     :  Shared parallel matrices
   BLAS/LAPACK       :  OpenBLAS 0.3.27  USE64BITINT DYNAMIC_ARCH NO_AFFINITY Zen SINGLE_THREADED
        Core in use  :  Zen
   Copyright (c) 2011-2014, The OpenBLAS Project


Your calculation utilizes the atom-pairwise dispersion correction
with the Becke-Johnson damping scheme (D3BJ)


Warning: RI is on but no J-basis has been assigned. Assigning Def2/J (nothing to worry about!)
================================================================================

----- Orbital basis set information -----
Your calculation utilizes the basis: def2-TZVPPD
   F. Weigend and R. Ahlrichs, Phys. Chem. Chem. Phys. 7, 3297 (2005).
   D. Rappoport and F. Furche, J. Chem. Phys. 133, 134105 (2010)
   D. Rappoport, J. Chem. Phys. 155, 124102 (2021).

----- AuxJ basis set information -----
Your calculation utilizes the auxiliary basis: def2/J
   F. Weigend, Phys. Chem. Chem. Phys. 8, 1057 (2006).

================================================================================
                                        WARNINGS
                       Please study these warnings very carefully!
================================================================================

Using LibXC functional ID 531 : wB97M-V exchange-correlation functional
[ 1]  N. Mardirossian and M. Head-Gordon.,  J. Chem. Phys. 144, 214110 (2016)
Using LibXC functional ID 531 : wB97M-V exchange-correlation functional
[ 1]  N. Mardirossian and M. Head-Gordon.,  J. Chem. Phys. 144, 214110 (2016)

WARNING: B97M-V or wB97M-V functional requested.
  ===> : libXC variant has now been activated.
         Any manually given DFX/HFX/RangeSep scaling parameters are IGNORED!

Your calculation utilizes LibXC
 by S Lehtola, C Steigemann, MJT Oliveira & MAL Marques
Please cite in your paper:
 S Lehtola, C Steigemann, MJT Oliveira & MAL Marques, SoftwareX, 7, (2018), 1.
   


WARNING: your system is open-shell and RHF/RKS was chosen
  ===> : WILL SWITCH to UHF/UKS

INFO   : Checking CIS options ...

WARNING: CIS/ROCIS methods need fully converged wavefunctions
  ===> : Setting SCFConvForced true
         You can overwrite this default with %scf ConvForced false 


================================================================================
                                       INPUT FILE
================================================================================
NAME = orca.inp
|  1> ! Engrad def2-TZVPPD wB97M-D3BJ 
|  2> %pal nprocs 8 end%pal nprocs 32 end 
|  3>  %tddft nroots 2 Iroot 2 
|  4> sf true 
|  5> end 
|  6> *xyz 0 3 
|  7> O   2.45915603901572 1.27059076903402 -0.31410837823296
|  8> O   -0.82220356017181 0.81572920433937 -2.40267593707086
|  9> O   0.52924814584588 -2.6313798619981 -1.61252242119925
| 10> O   -2.39174457009078 -1.52675149821245 1.16210516132533
| 11> N   0.63645466838829 -2.1556249772295 0.61062072429361
| 12> N   -1.84196941741387 0.66407849545354 1.44388061384181
| 13> N   1.59303282206562 -0.73175677997681 -0.92717664389632
| 14> N   -1.66972386738019 -0.30819252479151 -0.62959767281848
| 15> C   1.50065362540287 -0.07523872673471 1.3886026910673
| 16> C   -0.91661224197246 1.96712394159758 -0.3276666290413
| 17> C   0.8899883886746 -1.24597041489286 1.60901275221351
| 18> C   -1.28342726367727 1.82280691993677 0.95044239434664
| 19> C   1.78834072500328 0.93142725599888 2.45392830706013
| 20> C   -0.28073556206499 3.19844020841585 -0.8845982510757
| 21> C   1.90598450308958 0.24303601235126 0.01848050912174
| 22> C   -1.11666467837484 0.8300799775185 -1.22864476275064
| 23> C   0.89414222686927 -1.9013918245411 -0.71858540045392
| 24> C   -2.00490907048883 -0.47564279783669 0.69311613109394
| 25> H   0.54902623889614 -1.54152983026232 2.58965550478615
| 26> H   -1.16552312886462 2.61612159536815 1.67276466810249
| 27> H   1.34627984187767 1.8930274764304 2.19739486822967
| 28> H   1.39594815393958 0.60315188949441 3.41403564019079
| 29> H   2.85924991479394 1.0988901908228 2.55229466830144
| 30> H   -0.83581860493779 3.5574569187415 -1.74860212217266
| 31> H   -0.24239680232104 3.98497580034409 -0.13449966667196
| 32> H   0.73370697250032 2.97864244738436 -1.21157770998525
| 33> H   0.02165667802162 -2.9317593443157 0.78488352969277
| 34> H   -2.07349319663593 0.57648093064655 2.41627192046559
| 35> H   1.7528415286983 -0.48841812265416 -1.89317639416579
| 36> H   -1.75788850868832 -1.1234033304321 -1.21945809459785
| 37> *
| 38> 
| 39>                          ****END OF INPUT****
================================================================================

                     *******************************
                     * Energy+Gradient Calculation *
                     *******************************

---------------------------------
CARTESIAN COORDINATES (ANGSTROEM)
---------------------------------
  O      2.459156    1.270591   -0.314108
  O     -0.822204    0.815729   -2.402676
  O      0.529248   -2.631380   -1.612522
  O     -2.391745   -1.526751    1.162105
  N      0.636455   -2.155625    0.610621
  N     -1.841969    0.664078    1.443881
  N      1.593033   -0.731757   -0.927177
  N     -1.669724   -0.308193   -0.629598
  C      1.500654   -0.075239    1.388603
  C     -0.916612    1.967124   -0.327667
  C      0.889988   -1.245970    1.609013
  C     -1.283427    1.822807    0.950442
  C      1.788341    0.931427    2.453928
  C     -0.280736    3.198440   -0.884598
  C      1.905985    0.243036    0.018481
  C     -1.116665    0.830080   -1.228645
  C      0.894142   -1.901392   -0.718585
  C     -2.004909   -0.475643    0.693116
  H      0.549026   -1.541530    2.589656
  H     -1.165523    2.616122    1.672765
  H      1.346280    1.893027    2.197395
  H      1.395948    0.603152    3.414036
  H      2.859250    1.098890    2.552295
  H     -0.835819    3.557457   -1.748602
  H     -0.242397    3.984976   -0.134500
  H      0.733707    2.978642   -1.211578
  H      0.021657   -2.931759    0.784884
  H     -2.073493    0.576481    2.416272
  H      1.752842   -0.488418   -1.893176
  H     -1.757889   -1.123403   -1.219458

----------------------------
CARTESIAN COORDINATES (A.U.)
----------------------------
  NO LB      ZA    FRAG     MASS         X           Y           Z
   0 O     8.0000    0    15.999    4.647131    2.401069   -0.593579
   1 O     8.0000    0    15.999   -1.553740    1.541505   -4.540400
   2 O     8.0000    0    15.999    1.000134   -4.972587   -3.047226
   3 O     8.0000    0    15.999   -4.519742   -2.885142    2.196060
   4 N     7.0000    0    14.007    1.202725   -4.073541    1.153906
   5 N     7.0000    0    14.007   -3.480818    1.254926    2.728539
   6 N     7.0000    0    14.007    3.010396   -1.382820   -1.752110
   7 N     7.0000    0    14.007   -3.155321   -0.582399   -1.189767
   8 C     6.0000    0    12.011    2.835824   -0.142181    2.624079
   9 C     6.0000    0    12.011   -1.732146    3.717326   -0.619200
  10 C     6.0000    0    12.011    1.681834   -2.354543    3.040593
  11 C     6.0000    0    12.011   -2.425326    3.444606    1.796076
  12 C     6.0000    0    12.011    3.379474    1.760142    4.637252
  13 C     6.0000    0    12.011   -0.530513    6.044176   -1.671648
  14 C     6.0000    0    12.011    3.601789    0.459272    0.034923
  15 C     6.0000    0    12.011   -2.110190    1.568624   -2.321802
  16 C     6.0000    0    12.011    1.689684   -3.593110   -1.357930
  17 C     6.0000    0    12.011   -3.788729   -0.898835    1.309800
  18 H     1.0000    0     1.008    1.037509   -2.913069    4.893740
  19 H     1.0000    0     1.008   -2.202520    4.943753    3.161067
  20 H     1.0000    0     1.008    2.544100    3.577303    4.152475
  21 H     1.0000    0     1.008    2.637960    1.139792    6.451592
  22 H     1.0000    0     1.008    5.403199    2.076602    4.823138
  23 H     1.0000    0     1.008   -1.579468    6.722619   -3.304379
  24 H     1.0000    0     1.008   -0.458064    7.530513   -0.254168
  25 H     1.0000    0     1.008    1.386505    5.628818   -2.289550
  26 H     1.0000    0     1.008    0.040925   -5.540222    1.483215
  27 H     1.0000    0     1.008   -3.918334    1.089391    4.566092
  28 H     1.0000    0     1.008    3.312390   -0.922976   -3.577585
  29 H     1.0000    0     1.008   -3.321928   -2.122925   -2.304442

--------------------------------
INTERNAL COORDINATES (ANGSTROEM)
--------------------------------
 O      0   0   0     0.000000000000     0.00000000     0.00000000
 O      1   0   0     3.916163212897     0.00000000     0.00000000
 O      2   1   0     3.785937824049    72.26255515     0.00000000
 O      3   2   1     4.177434678166    69.40611906    96.03802762
 N      3   2   1     2.276005578686    91.73925705    52.81208110
 N      4   3   2     2.276265842402    99.66227531   319.83813223
 N      1   2   3     2.266146030673    55.44781226     0.66143754
 N      2   1   3     2.263911936341    87.34329848    60.55449750
 C      1   2   3     2.372595391992    88.75963595   303.72123052
 C      2   1   3     2.374928729161    60.72698927   120.54412133
 C      9   1   2     1.338695376873   142.98836765    51.00538727
 C     10   2   1     1.337513864809   142.51380415   256.85841468
 C      9   1   2     1.493672968277    92.96632163   231.52747601
 C     10   2   1     1.493536652581    93.26567332    74.97493222
 C      1   2   3     1.213459061581    70.47914093   328.72803442
 C      2   1   3     1.210480273734    71.65064531    89.43691445
 C      3   2   1     1.210435302796    73.30004658    28.19334677
 C      4   3   2     1.214257762683    75.49905606   338.48534670
 H     11   9   1     1.079477078853   122.21515129   181.28554153
 H     12  10   2     1.079351206246   122.02117140   179.49385626
 H     13   9   1     1.088991374420   110.42093930    55.95155218
 H     13   9   1     1.087907503978   110.89190816   177.06000357
 H     13   9   1     1.088377815072   110.95721118   298.04199778
 H     14  10   2     1.087893777925   110.54780602    55.19372149
 H     14  10   2     1.087545853835   110.73596554   176.21890291
 H     14  10   2     1.088264801525   110.02318425   296.39413810
 H      5   3   2     1.005350013715    88.80428685   121.45185111
 H      6   4   3     1.003404926689    88.86602470   217.18417391
 H      7   1   2     1.008914288918    89.16199486    64.21757124
 H      8   2   1     1.010087609464    88.62396110   241.45445351

---------------------------
INTERNAL COORDINATES (A.U.)
---------------------------
 O      0   0   0     0.000000000000     0.00000000     0.00000000
 O      1   0   0     7.400475968112     0.00000000     0.00000000
 O      2   1   0     7.154385647507    72.26255515     0.00000000
 O      3   2   1     7.894207484079    69.40611906    96.03802762
 N      3   2   1     4.301027222993    91.73925705    52.81208110
 N      4   3   2     4.301519050140    99.66227531   319.83813223
 N      1   2   3     4.282395377444    55.44781226     0.66143754
 N      2   1   3     4.278173551000    87.34329848    60.55449750
 C      1   2   3     4.483555517468    88.75963595   303.72123052
 C      2   1   3     4.487964885696    60.72698927   120.54412133
 C      9   1   2     2.529767639036   142.98836765    51.00538727
 C     10   2   1     2.527534904811   142.51380415   256.85841468
 C      9   1   2     2.822632843684    92.96632163   231.52747601
 C     10   2   1     2.822375244352    93.26567332    74.97493222
 C      1   2   3     2.293105301112    70.47914093   328.72803442
 C      2   1   3     2.287476207872    71.65064531    89.43691445
 C      3   2   1     2.287391225115    73.30004658    28.19334677
 C      4   3   2     2.294614627458    75.49905606   338.48534670
 H     11   9   1     2.039916046877   122.21515129   181.28554153
 H     12  10   2     2.039678182122   122.02117140   179.49385626
 H     13   9   1     2.057895459857   110.42093930    55.95155218
 H     13   9   1     2.055847241556   110.89190816   177.06000357
 H     13   9   1     2.056736000722   110.95721118   298.04199778
 H     14  10   2     2.055821303076   110.54780602    55.19372149
 H     14  10   2     2.055163821829   110.73596554   176.21890291
 H     14  10   2     2.056522436069   110.02318425   296.39413810
 H      5   3   2     1.899836194655    88.80428685   121.45185111
 H      6   4   3     1.896160512869    88.86602470   217.18417391
 H      7   1   2     1.906571698656    89.16199486    64.21757124
 H      8   2   1     1.908788953153    88.62396110   241.45445351

---------------------
BASIS SET INFORMATION
---------------------
There are 4 groups of distinct atoms

 Group   1 Type O   : 12s7p3d1f contracted to 6s4p3d1f pattern {621111/4111/111/1}
 Group   2 Type N   : 12s6p3d1f contracted to 6s3p3d1f pattern {621111/411/111/1}
 Group   3 Type C   : 12s6p3d1f contracted to 6s3p3d1f pattern {621111/411/111/1}
 Group   4 Type H   : 5s3p1d contracted to 3s3p1d pattern {311/111/1}

Atom   0O    basis set group =>   1
Atom   1O    basis set group =>   1
Atom   2O    basis set group =>   1
Atom   3O    basis set group =>   1
Atom   4N    basis set group =>   2
Atom   5N    basis set group =>   2
Atom   6N    basis set group =>   2
Atom   7N    basis set group =>   2
Atom   8C    basis set group =>   3
Atom   9C    basis set group =>   3
Atom  10C    basis set group =>   3
Atom  11C    basis set group =>   3
Atom  12C    basis set group =>   3
Atom  13C    basis set group =>   3
Atom  14C    basis set group =>   3
Atom  15C    basis set group =>   3
Atom  16C    basis set group =>   3
Atom  17C    basis set group =>   3
Atom  18H    basis set group =>   4
Atom  19H    basis set group =>   4
Atom  20H    basis set group =>   4
Atom  21H    basis set group =>   4
Atom  22H    basis set group =>   4
Atom  23H    basis set group =>   4
Atom  24H    basis set group =>   4
Atom  25H    basis set group =>   4
Atom  26H    basis set group =>   4
Atom  27H    basis set group =>   4
Atom  28H    basis set group =>   4
Atom  29H    basis set group =>   4
---------------------------------
AUXILIARY/J BASIS SET INFORMATION
---------------------------------
There are 4 groups of distinct atoms

 Group   1 Type O   : 12s5p4d2f1g contracted to 6s4p3d1f1g pattern {711111/2111/211/2/1}
 Group   2 Type N   : 12s5p4d2f1g contracted to 6s4p3d1f1g pattern {711111/2111/211/2/1}
 Group   3 Type C   : 12s5p4d2f1g contracted to 6s4p3d1f1g pattern {711111/2111/211/2/1}
 Group   4 Type H   : 5s2p1d contracted to 3s1p1d pattern {311/2/1}

Atom   0O    basis set group =>   1
Atom   1O    basis set group =>   1
Atom   2O    basis set group =>   1
Atom   3O    basis set group =>   1
Atom   4N    basis set group =>   2
Atom   5N    basis set group =>   2
Atom   6N    basis set group =>   2
Atom   7N    basis set group =>   2
Atom   8C    basis set group =>   3
Atom   9C    basis set group =>   3
Atom  10C    basis set group =>   3
Atom  11C    basis set group =>   3
Atom  12C    basis set group =>   3
Atom  13C    basis set group =>   3
Atom  14C    basis set group =>   3
Atom  15C    basis set group =>   3
Atom  16C    basis set group =>   3
Atom  17C    basis set group =>   3
Atom  18H    basis set group =>   4
Atom  19H    basis set group =>   4
Atom  20H    basis set group =>   4
Atom  21H    basis set group =>   4
Atom  22H    basis set group =>   4
Atom  23H    basis set group =>   4
Atom  24H    basis set group =>   4
Atom  25H    basis set group =>   4
Atom  26H    basis set group =>   4
Atom  27H    basis set group =>   4
Atom  28H    basis set group =>   4
Atom  29H    basis set group =>   4
[1737429869.393749] [ohm:3285486:0]        ib_iface.c:1059 UCX  ERROR ibv_create_cq(cqe=256) failed: Connection timed out
[1737429869.406474] [ohm:3285479:0]        ib_iface.c:1059 UCX  ERROR ibv_create_cq(cqe=256) failed: Connection timed out
[1737429869.410254] [ohm:3285483:0]        ib_iface.c:1059 UCX  ERROR ibv_create_cq(cqe=256) failed: Connection timed out
[1737429869.410341] [ohm:3285482:0]        ib_iface.c:1059 UCX  ERROR ibv_create_cq(cqe=256) failed: Connection timed out
[1737429869.418069] [ohm:3285488:0]        ib_iface.c:1059 UCX  ERROR ibv_create_cq(cqe=256) failed: Connection timed out
[1737429869.433407] [ohm:3285480:0]        ib_iface.c:1059 UCX  ERROR ibv_create_cq(cqe=256) failed: Connection timed out
[1737429869.436018] [ohm:3285503:0]        ib_iface.c:1059 UCX  ERROR ibv_create_cq(cqe=256) failed: Connection timed out
[1737429869.444777] [ohm:3285487:0]        ib_iface.c:1059 UCX  ERROR ibv_create_cq(cqe=256) failed: Connection timed out
[1737429869.448824] [ohm:3285509:0]        ib_iface.c:1059 UCX  ERROR ibv_create_cq(cqe=256) failed: Connection timed out
[1737429869.456081] [ohm:3285497:0]        ib_iface.c:1059 UCX  ERROR ibv_create_cq(cqe=256) failed: Connection timed out
[1737429869.470521] [ohm:3285498:0]        ib_iface.c:1059 UCX  ERROR ibv_create_cq(cqe=256) failed: Connection timed out
[1737429869.474913] [ohm:3285523:0]        ib_iface.c:1059 UCX  ERROR ibv_create_cq(cqe=256) failed: Connection timed out
[1737429869.477215] [ohm:3285515:0]        ib_iface.c:1059 UCX  ERROR ibv_create_cq(cqe=256) failed: Connection timed out
[1737429869.481002] [ohm:3285481:0]        ib_iface.c:1059 UCX  ERROR ibv_create_cq(cqe=256) failed: Connection timed out
[1737429869.489080] [ohm:3285508:0]        ib_iface.c:1059 UCX  ERROR ibv_create_cq(cqe=256) failed: Connection timed out
[1737429869.490748] [ohm:3285490:0]        ib_iface.c:1059 UCX  ERROR ibv_create_cq(cqe=256) failed: Connection timed out
[1737429869.491782] [ohm:3285495:0]        ib_iface.c:1059 UCX  ERROR ibv_create_cq(cqe=256) failed: Connection timed out
[1737429869.496173] [ohm:3285512:0]        ib_iface.c:1059 UCX  ERROR ibv_create_cq(cqe=256) failed: Connection timed out
[1737429869.496157] [ohm:3285502:0]        ib_iface.c:1059 UCX  ERROR ibv_create_cq(cqe=256) failed: Connection timed out
[1737429869.496882] [ohm:3285516:0]        ib_iface.c:1059 UCX  ERROR ibv_create_cq(cqe=256) failed: Connection timed out
[1737429869.498245] [ohm:3285507:0]        ib_iface.c:1059 UCX  ERROR ibv_create_cq(cqe=256) failed: Connection timed out
[1737429869.498925] [ohm:3285492:0]        ib_iface.c:1059 UCX  ERROR ibv_create_cq(cqe=256) failed: Connection timed out
[1737429869.499155] [ohm:3285489:0]        ib_iface.c:1059 UCX  ERROR ibv_create_cq(cqe=256) failed: Connection timed out
[1737429869.501005] [ohm:3285484:0]        ib_iface.c:1059 UCX  ERROR ibv_create_cq(cqe=256) failed: Connection timed out
[1737429869.512499] [ohm:3285504:0]        ib_iface.c:1059 UCX  ERROR ibv_create_cq(cqe=256) failed: Connection timed out
[1737429869.517146] [ohm:3285485:0]        ib_iface.c:1059 UCX  ERROR ibv_create_cq(cqe=256) failed: Connection timed out
[1737429869.518374] [ohm:3285500:0]        ib_iface.c:1059 UCX  ERROR ibv_create_cq(cqe=256) failed: Connection timed out
[1737429869.523262] [ohm:3285539:0]        ib_iface.c:1059 UCX  ERROR ibv_create_cq(cqe=256) failed: Connection timed out
[1737429869.524934] [ohm:3285510:0]        ib_iface.c:1059 UCX  ERROR ibv_create_cq(cqe=256) failed: Connection timed out
[1737429869.526283] [ohm:3285524:0]        ib_iface.c:1059 UCX  ERROR ibv_create_cq(cqe=256) failed: Connection timed out
[1737429869.527769] [ohm:3285506:0]        ib_iface.c:1059 UCX  ERROR ibv_create_cq(cqe=256) failed: Connection timed out
[1737429869.537372] [ohm:3285514:0]        ib_iface.c:1059 UCX  ERROR ibv_create_cq(cqe=256) failed: Connection timed out


           ************************************************************
           *        Program running with 32 parallel MPI-processes    *
           *              working on a common directory               *
           ************************************************************
------------------------------------------------------------------------------
                             ORCA STARTUP CALCULATIONS
                           -- RI-GTO INTEGRALS CHOSEN --
------------------------------------------------------------------------------
------------------------------------------------------------------------------
                   ___                                                        
                  /   \      - P O W E R E D   B Y -                         
                 /     \                                                     
                 |  |  |   _    _      __       _____    __    __             
                 |  |  |  | |  | |    /  \     |  _  \  |  |  /  |          
                  \  \/   | |  | |   /    \    | | | |  |  | /  /          
                 / \  \   | |__| |  /  /\  \   | |_| |  |  |/  /          
                |  |  |   |  __  | /  /__\  \  |    /   |      \           
                |  |  |   | |  | | |   __   |  |    \   |  |\   \          
                \     /   | |  | | |  |  |  |  | |\  \  |  | \   \       
                 \___/    |_|  |_| |__|  |__|  |_| \__\ |__|  \__/        
                                                                              
                      - O R C A' S   B I G   F R I E N D -                    
                                      &                                       
                       - I N T E G R A L  F E E D E R -                       
                                                                              
 v1 FN, 2020, v2 2021, v3 2022-2024                                           
------------------------------------------------------------------------------


----------------------
SHARK INTEGRAL PACKAGE
----------------------

Number of atoms                             ...     30
Number of basis functions                   ...    882
Number of shells                            ...    322
Maximum angular momentum                    ...      3
Integral batch strategy                     ... SHARK/LIBINT Hybrid
RI-J (if used) integral strategy            ... SPLIT-RIJ (Revised 2003 algorithm where possible)
Printlevel                                  ...      1
Contraction scheme used                     ... SEGMENTED contraction
Prescreening option                         ... SCHWARTZ
   Thresh                                   ... 2.500e-11
   Tcut                                     ... 2.500e-12
   Tpresel                                  ... 2.500e-12 
Coulomb Range Separation                    ... NOT USED
Exchange Range Separation                   ... Long Range
   Mu parameter                             ... 3.000e-01
   Scaling (regular/separated)              ... 1.500e-01 8.500e-01
Multipole approximations                    ... NOT USED
Finite Nucleus Model                        ... NOT USED
CABS basis                                  ... NOT available
Auxiliary Coulomb fitting basis             ... AVAILABLE
   # of basis functions in Aux-J            ...   1014
   # of shells in Aux-J                     ...    330
   Maximum angular momentum in Aux-J        ...      4
Auxiliary J/K fitting basis                 ... NOT available
Auxiliary Correlation fitting basis         ... NOT available
Auxiliary 'external' fitting basis          ... NOT available

Checking pre-screening integrals            ... done (  0.1 sec) Dimension = 322
Check shell pair data                       ... done (  0.1 sec)
Shell pair information
Shell pair cut-off parameter TPreSel        ...   2.5e-12
Total number of shell pairs                 ...     52003
Shell pairs after pre-screening             ...     45211
Total number of primitive shell pairs       ...    129718
Primitive shell pairs kept                  ...     84038
          la=0 lb=0:   8739 shell pairs
          la=1 lb=0:  11935 shell pairs
          la=1 lb=1:   4133 shell pairs
          la=2 lb=0:   8132 shell pairs
          la=2 lb=1:   5617 shell pairs
          la=2 lb=2:   1933 shell pairs
          la=3 lb=0:   2057 shell pairs
          la=3 lb=1:   1496 shell pairs
          la=3 lb=2:   1025 shell pairs
          la=3 lb=3:    144 shell pairs

Calculating one electron integrals          ... done (  0.8 sec)
Calculating RI/J V-Matrix + Cholesky decomp.... done (  6.8 sec)
Calculating Nuclear repulsion               ... done (  0.0 sec) ENN=   1449.825688162879 Eh

Diagonalization of the overlap matrix:
Smallest eigenvalue                        ... 5.264e-07
Time for diagonalization                   ...    0.225 sec
Threshold for overlap eigenvalues          ... 1.000e-07
Number of eigenvalues below threshold      ... 0

IMPORTANT:
Smallest eigenvalue of S below the DiffSThresh (1.000e-06) while
Thresh>1e-12 and/or TCut>1e-13! In order to avoid SCF convergence issues,
Thresh will be set to at least 1e-12 and TCut to at least 1e-13.
This can be turned off by adding %SCF DiffSThresh -1 END to the input.

Time for construction of square roots      ...    1.578 sec
Total time needed                          ...    2.396 sec

-------------------
DFT GRID GENERATION
-------------------

General Integration Accuracy     IntAcc      ... 4.388
Radial Grid Type                 RadialGrid  ... OptM3 with GC (2021)
Angular Grid (max. ang.)         AngularGrid ... 4 (Lebedev-302)
Angular grid pruning method      GridPruning ... 4 (adaptive)
Weight generation scheme         WeightScheme... mBecke (2022)
Basis function cutoff            BFCut       ... 1.0000e-11
Integration weight cutoff        WCut        ... 1.0000e-14
Partially contracted basis set               ... off
Rotationally invariant grid construction     ... off
Angular grids for H and He will be reduced by one unit
Diffuse basis detected: some atoms will have their outermost
                        angular grid increased by 1.

Total number of grid points                  ...   152203
Total number of batches                      ...     2394
Average number of points per batch           ...       63
Average number of grid points per atom       ...     5073

--------------------
COSX GRID GENERATION
--------------------

GRIDX 1
-------
General Integration Accuracy     IntAcc      ... 3.816
Radial Grid Type                 RadialGrid  ... OptM3 with GC (2021)
Angular Grid (max. ang.)         AngularGrid ... 1 (Lebedev-50)
Angular grid pruning method      GridPruning ... 4 (adaptive)
Weight generation scheme         WeightScheme... mBecke (2022)
Basis function cutoff            BFCut       ... 1.0000e-11
Integration weight cutoff        WCut        ... 1.0000e-14
Partially contracted basis set               ... on
Rotationally invariant grid construction     ... off
Angular grids for H and He will be reduced by one unit
Diffuse basis detected: some atoms will have their outermost
                        angular grid increased by 1.

Total number of grid points                  ...    19061
Total number of batches                      ...      166
Average number of points per batch           ...      114
Average number of grid points per atom       ...      635
UseSFitting                                  ... on

GRIDX 2
-------
General Integration Accuracy     IntAcc      ... 4.020
Radial Grid Type                 RadialGrid  ... OptM3 with GC (2021)
Angular Grid (max. ang.)         AngularGrid ... 2 (Lebedev-110)
Angular grid pruning method      GridPruning ... 4 (adaptive)
Weight generation scheme         WeightScheme... mBecke (2022)
Basis function cutoff            BFCut       ... 1.0000e-11
Integration weight cutoff        WCut        ... 1.0000e-14
Partially contracted basis set               ... on
Rotationally invariant grid construction     ... off
Angular grids for H and He will be reduced by one unit
Diffuse basis detected: some atoms will have their outermost
                        angular grid increased by 1.

Total number of grid points                  ...    45914
Total number of batches                      ...      374
Average number of points per batch           ...      122
Average number of grid points per atom       ...     1530
UseSFitting                                  ... on

GRIDX 3
-------
General Integration Accuracy     IntAcc      ... 4.338
Radial Grid Type                 RadialGrid  ... OptM3 with GC (2021)
Angular Grid (max. ang.)         AngularGrid ... 3 (Lebedev-194)
Angular grid pruning method      GridPruning ... 4 (adaptive)
Weight generation scheme         WeightScheme... mBecke (2022)
Basis function cutoff            BFCut       ... 1.0000e-11
Integration weight cutoff        WCut        ... 1.0000e-14
Partially contracted basis set               ... on
Rotationally invariant grid construction     ... off
Angular grids for H and He will be reduced by one unit
Diffuse basis detected: some atoms will have their outermost
                        angular grid increased by 1.

Total number of grid points                  ...   101129
Total number of batches                      ...      807
Average number of points per batch           ...      125
Average number of grid points per atom       ...     3371
UseSFitting                                  ... on
Initializing property integral containers    ... done (  0.4 sec)

SHARK setup successfully completed in  48.1 seconds

Maximum memory used throughout the entire STARTUP-calculation: 81.5 MB
[1737429920.673904] [ohm:3289629:0]        ib_iface.c:1059 UCX  ERROR ibv_create_cq(cqe=256) failed: Connection timed out
[1737429920.690330] [ohm:3289626:0]        ib_iface.c:1059 UCX  ERROR ibv_create_cq(cqe=256) failed: Connection timed out
[1737429920.714653] [ohm:3289666:0]        ib_iface.c:1059 UCX  ERROR ibv_create_cq(cqe=256) failed: Connection timed out
[1737429920.725331] [ohm:3289632:0]        ib_iface.c:1059 UCX  ERROR ibv_create_cq(cqe=256) failed: Connection timed out
[1737429920.739135] [ohm:3289624:0]        ib_iface.c:1059 UCX  ERROR ibv_create_cq(cqe=256) failed: Connection timed out
[1737429920.742372] [ohm:3289630:0]        ib_iface.c:1059 UCX  ERROR ibv_create_cq(cqe=256) failed: Connection timed out
[1737429920.753415] [ohm:3289639:0]        ib_iface.c:1059 UCX  ERROR ibv_create_cq(cqe=256) failed: Connection timed out
[1737429920.757637] [ohm:3289631:0]        ib_iface.c:1059 UCX  ERROR ibv_create_cq(cqe=256) failed: Connection timed out
[1737429920.768173] [ohm:3289669:0]        ib_iface.c:1059 UCX  ERROR ibv_create_cq(cqe=256) failed: Connection timed out
[1737429920.770962] [ohm:3289638:0]        ib_iface.c:1059 UCX  ERROR ibv_create_cq(cqe=256) failed: Connection timed out
[1737429920.775753] [ohm:3289647:0]        ib_iface.c:1059 UCX  ERROR ibv_create_cq(cqe=256) failed: Connection timed out
[1737429920.777571] [ohm:3289658:0]        ib_iface.c:1059 UCX  ERROR ibv_create_cq(cqe=256) failed: Connection timed out
[1737429920.779482] [ohm:3289633:0]        ib_iface.c:1059 UCX  ERROR ibv_create_cq(cqe=256) failed: Connection timed out
[1737429920.786828] [ohm:3289661:0]        ib_iface.c:1059 UCX  ERROR ibv_create_cq(cqe=256) failed: Connection timed out
[1737429920.788822] [ohm:3289640:0]        ib_iface.c:1059 UCX  ERROR ibv_create_cq(cqe=256) failed: Connection timed out
[1737429920.797002] [ohm:3289623:0]        ib_iface.c:1059 UCX  ERROR ibv_create_cq(cqe=256) failed: Connection timed out
[1737429920.800943] [ohm:3289628:0]        ib_iface.c:1059 UCX  ERROR ibv_create_cq(cqe=256) failed: Connection timed out
[1737429920.801654] [ohm:3289665:0]        ib_iface.c:1059 UCX  ERROR ibv_create_cq(cqe=256) failed: Connection timed out
[1737429920.817771] [ohm:3289649:0]        ib_iface.c:1059 UCX  ERROR ibv_create_cq(cqe=256) failed: Connection timed out
[1737429920.819944] [ohm:3289677:0]        ib_iface.c:1059 UCX  ERROR ibv_create_cq(cqe=256) failed: Connection timed out
[1737429920.822959] [ohm:3289654:0]        ib_iface.c:1059 UCX  ERROR ibv_create_cq(cqe=256) failed: Connection timed out
[1737429920.823283] [ohm:3289635:0]        ib_iface.c:1059 UCX  ERROR ibv_create_cq(cqe=256) failed: Connection timed out
[1737429920.824694] [ohm:3289655:0]        ib_iface.c:1059 UCX  ERROR ibv_create_cq(cqe=256) failed: Connection timed out
[1737429920.825934] [ohm:3289687:0]        ib_iface.c:1059 UCX  ERROR ibv_create_cq(cqe=256) failed: Connection timed out
[1737429920.827267] [ohm:3289645:0]        ib_iface.c:1059 UCX  ERROR ibv_create_cq(cqe=256) failed: Connection timed out
[1737429920.828258] [ohm:3289625:0]        ib_iface.c:1059 UCX  ERROR ibv_create_cq(cqe=256) failed: Connection timed out
[1737429920.844052] [ohm:3289637:0]        ib_iface.c:1059 UCX  ERROR ibv_create_cq(cqe=256) failed: Connection timed out
[1737429920.852937] [ohm:3289663:0]        ib_iface.c:1059 UCX  ERROR ibv_create_cq(cqe=256) failed: Connection timed out
[1737429920.853710] [ohm:3289642:0]        ib_iface.c:1059 UCX  ERROR ibv_create_cq(cqe=256) failed: Connection timed out
[1737429920.854426] [ohm:3289627:0]        ib_iface.c:1059 UCX  ERROR ibv_create_cq(cqe=256) failed: Connection timed out
[1737429920.855886] [ohm:3289634:0]        ib_iface.c:1059 UCX  ERROR ibv_create_cq(cqe=256) failed: Connection timed out
[1737429920.855930] [ohm:3289636:0]        ib_iface.c:1059 UCX  ERROR ibv_create_cq(cqe=256) failed: Connection timed out


           ************************************************************
           *        Program running with 32 parallel MPI-processes    *
           *              working on a common directory               *
           ************************************************************
-------------------------------------------------------------------------------
                                 ORCA GUESS
                   Start orbitals & Density for SCF / CASSCF
-------------------------------------------------------------------------------

------------
SCF SETTINGS
------------
Hamiltonian:
 Density Functional     Method          .... DFT(GTOs)
  Functional kind                       .... Exchange-Correlation
  Functional name                       .... wB97M-V exchange-correlation functional
  Functional family                     .... Hybrid MGGA
  Functional refs                              
    [ 0] N. Mardirossian and M. Head-Gordon.,  J. Chem. Phys. 144, 214110 (2016), doi: 10.1063/1.4952647
  Fraction of HF Exchange (short range) .... 0.1500
  Fraction of HF Exchange (long range)  .... 1.0000
  Range separation parameter mu         .... 0.3000
  Functional external parameters        .... 17
    Parameter  0 _cx00      =  8.500000e-01 : u^00 coefficient for exchange
    Parameter  1 _cx01      =  1.007000e+00 : u^01 coefficient for exchange
    Parameter  2 _cx10      =  2.590000e-01 : u^10 coefficient for exchange
    Parameter  3 _css00     =  4.430000e-01 : u^00 coefficient for same-spin correlation
    Parameter  4 _css04     = -1.437000e+00 : u^04 coefficient for same-spin correlation
    Parameter  5 _css10     = -4.535000e+00 : u^10 coefficient for same-spin correlation
    Parameter  6 _css20     = -3.390000e+00 : u^20 coefficient for same-spin correlation
    Parameter  7 _css43     =  4.278000e+00 : u^43 coefficient for same-spin correlation
    Parameter  8 _cos00     =  1.000000e+00 : u^00 coefficient for opposite-spin correlation
    Parameter  9 _cos10     =  1.358000e+00 : u^10 coefficient for opposite-spin correlation
    Parameter 10 _cos20     =  2.924000e+00 : u^20 coefficient for opposite-spin correlation
    Parameter 11 _cos21     = -8.812000e+00 : u^21 coefficient for opposite-spin correlation
    Parameter 12 _cos60     = -1.390000e+00 : u^60 coefficient for opposite-spin correlation
    Parameter 13 _cos61     =  9.142000e+00 : u^61 coefficient for opposite-spin correlation
    Parameter 14 _alpha     =  1.000000e+00 : fraction of HF exchange
    Parameter 15 _beta      = -8.500000e-01 : fraction of short-range exchange
    Parameter 16 _omega     =  3.000000e-01 : range-separation constant
 Long-range corrected/Screened/Range-Separated Hybrid DFT is turned on
   Amount of maximum screened exact exchange              ....  0.850000
   Range separation parameter mu (erf(mu*r12)/r12)        ....  0.300000
 RI-approximation to the Coulomb term is turned on
   Number of AuxJ basis functions       .... 1014
   RIJ-COSX (HFX calculated with COS-X)).... on


General Settings:
 Integral files         IntName         .... orca
 Hartree-Fock type      HFTyp           .... UHF
 Total Charge           Charge          ....    0
 Multiplicity           Mult            ....    3
 Number of Electrons    NEL             ....  132
 Basis Dimension        Dim             ....  882
 Nuclear Repulsion      ENuc            ....   1449.8256881629 Eh

Convergence Acceleration:
 AO-DIIS                CNVDIIS         .... on
   Start iteration      DIISMaxIt       ....    12
   Startup error        DIISStart       ....  0.200000
   # of expansion vecs  DIISMaxEq       ....     5
   Bias factor          DIISBfac        ....   1.050
   Max. coefficient     DIISMaxC        ....  10.000
 MO-DIIS                CNVKDIIS        .... off
 Trust-Rad. Augm. Hess. CNVTRAH         .... auto
   Auto Start mean grad. ratio tolernc. ....  1.125000
   Auto Start start iteration           ....    50
   Auto Start num. interpolation iter.  ....    10
   Max. Number of Micro iterations      ....    24
   Max. Number of Macro iterations      .... Maxiter - #DIIS iter
   Number of Davidson start vectors     ....     2
   Converg. threshold    (grad. norm)   ....   1.000e-05
   Grad. Scal. Fac. for Micro threshold ....   0.100
   Minimum threshold for Micro iter.    ....   1.000e-02
   NR start threshold (gradient norm)   ....   1.000e-04
   Initial trust radius                 ....   0.400
   Minimum AH scaling param. (alpha)    ....   1.000
   Maximum AH scaling param. (alpha)    .... 1000.000
   Quad. conv. algorithm                .... NR
   White noise on init. David. guess    .... on
   Maximum white noise                  ....   0.010
   Pseudo random numbers                .... off
   Inactive MOs                         .... canonical
   Orbital update algorithm             .... Taylor
   Preconditioner                       .... Diag
   Full preconditioner red. dimension   ....   250
 SOSCF                  CNVSOSCF        .... on
   Start iteration      SOSCFMaxIt      ....   150
   Startup grad/error   SOSCFStart      ....  0.003300
   Hessian update       SOSCFHessUp     .... L-BFGS
 Level Shifting         CNVShift        .... on
   Level shift para.    LevelShift      ....    0.2500
   Turn off err/grad.   ShiftErr        ....    0.0010
 Zerner damping         CNVZerner       .... off
 Static damping         CNVDamp         .... on
   Fraction old density DampFac         ....    0.7000
   Max. Damping (<1)    DampMax         ....    0.9800
   Min. Damping (>=0)   DampMin         ....    0.0000
   Turn off err/grad.   DampErr         ....    0.1000

SCF Procedure:
 Maximum # iterations   MaxIter         ....   125
 SCF integral mode      SCFMode         .... Direct
   Integral package                     .... SHARK and LIBINT hybrid scheme
 Reset frequency        DirectResetFreq ....    20
 Integral Threshold     Thresh          ....  1.000e-12 Eh
 Primitive CutOff       TCut            ....  1.000e-13 Eh

Convergence Tolerance:
 Convergence Check Mode ConvCheckMode   .... Total+1el-Energy
 Convergence forced     ConvForced      .... 1
 Energy Change          TolE            ....  1.000e-08 Eh
 1-El. energy change                    ....  1.000e-05 Eh
 Orbital Gradient       TolG            ....  1.000e-05
 Orbital Rotation angle TolX            ....  1.000e-05
 DIIS Error             TolErr          ....  5.000e-07

------------------------------
INITIAL GUESS: MODEL POTENTIAL
------------------------------
Loading Hartree-Fock densities                     ... done
Calculating cut-offs                               ... done
Initializing the effective Hamiltonian             ... done
Setting up the integral package (SHARK)            ... done
Starting the Coulomb interaction                   ... done (   2.2 sec)
Making the grid                                    ... done (   6.9 sec)
Mapping shells                                     ... done
Starting the XC term evaluation                    ... done (   1.1 sec)
  promolecular density results
     # of electrons  =    131.999579362
     EX              =   -113.588957581
     EC              =     -4.476376660
     EX+EC           =   -118.065334242
Transforming the Hamiltonian                       ... done (   1.7 sec)
Diagonalizing the Hamiltonian                      ... done (   1.2 sec)
Back transforming the eigenvectors                 ... done (   0.3 sec)
Now organizing SCF variables                       ... done
                      ------------------
                      INITIAL GUESS DONE (  16.4 sec)
                      ------------------
             **** ENERGY FILE WAS UPDATED (orca.en.tmp) ****
Finished Guess after  42.0 sec
Maximum memory used throughout the entire GUESS-calculation: 73.8 MB
[1737429963.733962] [ohm:3293286:0]        ib_iface.c:1059 UCX  ERROR ibv_create_cq(cqe=256) failed: Connection timed out
[1737429963.740406] [ohm:3293281:0]        ib_iface.c:1059 UCX  ERROR ibv_create_cq(cqe=256) failed: Connection timed out
[1737429963.742913] [ohm:3293307:0]        ib_iface.c:1059 UCX  ERROR ibv_create_cq(cqe=256) failed: Connection timed out
[1737429963.745052] [ohm:3293287:0]        ib_iface.c:1059 UCX  ERROR ibv_create_cq(cqe=256) failed: Connection timed out
[1737429963.748581] [ohm:3293283:0]        ib_iface.c:1059 UCX  ERROR ibv_create_cq(cqe=256) failed: Connection timed out
[1737429963.755123] [ohm:3293300:0]        ib_iface.c:1059 UCX  ERROR ibv_create_cq(cqe=256) failed: Connection timed out
[1737429963.764281] [ohm:3293311:0]        ib_iface.c:1059 UCX  ERROR ibv_create_cq(cqe=256) failed: Connection timed out
[1737429963.779829] [ohm:3293310:0]        ib_iface.c:1059 UCX  ERROR ibv_create_cq(cqe=256) failed: Connection timed out
[1737429963.780818] [ohm:3293291:0]        ib_iface.c:1059 UCX  ERROR ibv_create_cq(cqe=256) failed: Connection timed out
[1737429963.784019] [ohm:3293284:0]        ib_iface.c:1059 UCX  ERROR ibv_create_cq(cqe=256) failed: Connection timed out
[1737429963.784995] [ohm:3293290:0]        ib_iface.c:1059 UCX  ERROR ibv_create_cq(cqe=256) failed: Connection timed out
[1737429963.792792] [ohm:3293323:0]        ib_iface.c:1059 UCX  ERROR ibv_create_cq(cqe=256) failed: Connection timed out
[1737429963.793562] [ohm:3293293:0]        ib_iface.c:1059 UCX  ERROR ibv_create_cq(cqe=256) failed: Connection timed out
[1737429963.798932] [ohm:3293324:0]        ib_iface.c:1059 UCX  ERROR ibv_create_cq(cqe=256) failed: Connection timed out
[1737429963.802796] [ohm:3293316:0]        ib_iface.c:1059 UCX  ERROR ibv_create_cq(cqe=256) failed: Connection timed out
[1737429963.803541] [ohm:3293306:0]        ib_iface.c:1059 UCX  ERROR ibv_create_cq(cqe=256) failed: Connection timed out
[1737429963.805872] [ohm:3293289:0]        ib_iface.c:1059 UCX  ERROR ibv_create_cq(cqe=256) failed: Connection timed out
[1737429963.816815] [ohm:3293301:0]        ib_iface.c:1059 UCX  ERROR ibv_create_cq(cqe=256) failed: Connection timed out
[1737429963.819338] [ohm:3293282:0]        ib_iface.c:1059 UCX  ERROR ibv_create_cq(cqe=256) failed: Connection timed out
[1737429963.820788] [ohm:3293288:0]        ib_iface.c:1059 UCX  ERROR ibv_create_cq(cqe=256) failed: Connection timed out
[1737429963.826022] [ohm:3293319:0]        ib_iface.c:1059 UCX  ERROR ibv_create_cq(cqe=256) failed: Connection timed out
[1737429963.849179] [ohm:3293280:0]        ib_iface.c:1059 UCX  ERROR ibv_create_cq(cqe=256) failed: Connection timed out
[1737429963.850885] [ohm:3293294:0]        ib_iface.c:1059 UCX  ERROR ibv_create_cq(cqe=256) failed: Connection timed out
[1737429963.853987] [ohm:3293313:0]        ib_iface.c:1059 UCX  ERROR ibv_create_cq(cqe=256) failed: Connection timed out
[1737429963.855550] [ohm:3293337:0]        ib_iface.c:1059 UCX  ERROR ibv_create_cq(cqe=256) failed: Connection timed out
[1737429963.865123] [ohm:3293292:0]        ib_iface.c:1059 UCX  ERROR ibv_create_cq(cqe=256) failed: Connection timed out
[1737429963.870234] [ohm:3293326:0]        ib_iface.c:1059 UCX  ERROR ibv_create_cq(cqe=256) failed: Connection timed out
[1737429963.875177] [ohm:3293305:0]        ib_iface.c:1059 UCX  ERROR ibv_create_cq(cqe=256) failed: Connection timed out
[1737429963.877056] [ohm:3293317:0]        ib_iface.c:1059 UCX  ERROR ibv_create_cq(cqe=256) failed: Connection timed out
[1737429963.888188] [ohm:3293302:0]        ib_iface.c:1059 UCX  ERROR ibv_create_cq(cqe=256) failed: Connection timed out
[1737429963.891500] [ohm:3293297:0]        ib_iface.c:1059 UCX  ERROR ibv_create_cq(cqe=256) failed: Connection timed out
[1737429963.900558] [ohm:3293330:0]        ib_iface.c:1059 UCX  ERROR ibv_create_cq(cqe=256) failed: Connection timed out


           ************************************************************
           *        Program running with 32 parallel MPI-processes    *
           *              working on a common directory               *
           ************************************************************

-------------------------------------------------------------------------------------------
                                      ORCA LEAN-SCF
                              memory conserving SCF solver
-------------------------------------------------------------------------------------------

----------------------------------------D-I-I-S--------------------------------------------
Iteration    Energy (Eh)           Delta-E    RMSDP     MaxDP     DIISErr   Damp  Time(sec)
-------------------------------------------------------------------------------------------
               ***  Starting incremental Fock matrix formation  ***
    1    -908.0282129129143414     0.00e+00  1.36e-03  2.01e-01  1.59e-01  0.700  51.1
Warning: op=1 Small HOMO/LUMO gap (   0.065) - skipping pre-diagonalization
         Will do a full diagonalization
    2    -908.3151466183201137    -2.87e-01  1.25e-03  1.49e-01  7.62e-02  0.700  57.6
                               ***Turning on AO-DIIS***
    3    -908.4466244178581746    -1.31e-01  9.52e-04  9.70e-02  3.00e-02  0.700  34.7
    4    -908.5268786842368627    -8.03e-02  2.50e-03  2.75e-01  1.90e-02  0.000  43.0
    5    -908.7137883003626939    -1.87e-01  5.37e-04  7.06e-02  6.90e-03  0.000  43.1
    6    -908.7197233618742302    -5.94e-03  4.35e-04  4.16e-02  6.25e-03  0.000  48.1
    7    -908.7249115775468908    -5.19e-03  6.10e-04  5.77e-02  5.73e-03  0.000  45.8
    8    -908.7309009772081936    -5.99e-03  4.12e-04  4.55e-02  4.81e-03  0.000  45.6
    9    -908.7337212671047837    -2.82e-03  5.27e-04  5.48e-02  3.46e-03  0.000  45.6
                              *** Initializing SOSCF ***
---------------------------------------S-O-S-C-F--------------------------------------
Iteration    Energy (Eh)           Delta-E    RMSDP     MaxDP     MaxGrad    Time(sec)
--------------------------------------------------------------------------------------
   10    -908.7362180290417655    -2.50e-03  3.26e-04  4.44e-02  2.47e-03    57.0
               *** Restarting incremental Fock matrix formation ***
   11    -908.7371883545495166    -9.70e-04  9.22e-04  1.13e-01  8.26e-03    42.3
   12    -908.7377189751703099    -5.31e-04  8.45e-04  1.01e-01  4.75e-03    39.1
   13    -908.7380037365790031    -2.85e-04  5.70e-04  1.09e-01  9.84e-04    40.9
   14    -908.7380528794444672    -4.91e-05  1.08e-04  1.36e-02  4.85e-04    42.5
   15    -908.7380647200209296    -1.18e-05  7.86e-05  9.43e-03  2.70e-04    42.0
   16    -908.7380715846486510    -6.86e-06  2.93e-05  4.22e-03  2.34e-04    21.9
   17    -908.7380747205859279    -3.14e-06  3.11e-05  3.43e-03  9.97e-05    35.1
   18    -908.7380759071481862    -1.19e-06  6.60e-06  7.92e-04  3.98e-05    36.4
   19    -908.7380760795783772    -1.72e-07  6.57e-06  8.61e-04  3.97e-05    39.5
   20    -908.7380761348565557    -5.53e-08  3.32e-06  5.53e-04  1.63e-05    38.6
   21    -908.7380762139098351    -7.91e-08  2.13e-06  3.62e-04  1.25e-05    40.1
   22    -908.7380762449481608    -3.10e-08  1.28e-06  1.90e-04  3.93e-06    37.6
   23    -908.7380762174750544     2.75e-08  1.98e-06  5.18e-04  3.65e-06    36.8
   24    -908.7380762589370988    -4.15e-08  1.60e-06  4.17e-04  2.02e-06    38.2
                  *** Gradient check signals convergence ***

               *****************************************************
               *                     SUCCESS                       *
               *           SCF CONVERGED AFTER  24 CYCLES          *
               *****************************************************

Recomputing exchange energy using gridx3       ... done (   29.218 sec)
Old exchange energy                            :    -35.040889527 Eh
New exchange energy                            :    -35.040889836 Eh
Exchange energy change after final integration :     -0.000000309 Eh
Total energy after final integration           :   -908.738076568 Eh
             **** ENERGY FILE WAS UPDATED (orca.en.tmp) ****

----------------
TOTAL SCF ENERGY
----------------

Total Energy       :       -908.73807656783936 Eh          -24728.02021 eV

Components:
Nuclear Repulsion  :       1449.82568816287926 Eh           39451.76266 eV
Electronic Energy  :      -2358.56376442181681 Eh          -64179.78287 eV
One Electron Energy:      -4117.12885586047469 Eh         -112032.77180 eV
Two Electron Energy:       1758.56509143865810 Eh           47852.98894 eV

Virial components:
Potential Energy   :      -1814.99770404278934 Eh          -49388.59839 eV
Kinetic Energy     :        906.25962747494987 Eh           24660.57818 eV
Virial Ratio       :          2.00273481132531

DFT components:
N(Alpha)           :       67.000077111541 electrons
N(Beta)            :       65.000072591878 electrons
N(Total)           :      132.000149703419 electrons
E(XC)              :      -86.318400883943 Eh       

---------------
SCF CONVERGENCE
---------------

  Last Energy change         ...    4.1462e-08  Tolerance :   1.0000e-08
  Last MAX-Density change    ...    4.1749e-04  Tolerance :   1.0000e-07
  Last RMS-Density change    ...    1.5994e-06  Tolerance :   5.0000e-09
  Last DIIS Error            ...    2.4721e-03  Tolerance :   5.0000e-07
  Last Orbital Gradient      ...    2.0195e-06  Tolerance :   1.0000e-05
  Last Orbital Rotation      ...    9.9751e-06  Tolerance :   1.0000e-05


----------------------
UHF SPIN CONTAMINATION
----------------------

Warning: in a DFT calculation there is little theoretical justification to 
         calculate <S**2> as in Hartree-Fock theory. We will do it anyways
         but you should keep in mind that the values have only limited relevance

Expectation value of <S**2>     :     2.009773
Ideal value S*(S+1) for S=1.0   :     2.000000
Deviation                       :     0.009773

----------------
ORBITAL ENERGIES
----------------
                 SPIN UP ORBITALS
  NO   OCC          E(Eh)            E(eV) 
   0   1.0000     -19.332439      -526.0624 
   1   1.0000     -19.326986      -525.9140 
   2   1.0000     -19.322195      -525.7837 
   3   1.0000     -19.319269      -525.7040 
   4   1.0000     -14.592793      -397.0901 
   5   1.0000     -14.584429      -396.8625 
   6   1.0000     -14.570166      -396.4744 
   7   1.0000     -14.549805      -395.9203 
   8   1.0000     -10.514057      -286.1020 
   9   1.0000     -10.509467      -285.9771 
  10   1.0000     -10.477763      -285.1144 
  11   1.0000     -10.457535      -284.5640 
  12   1.0000     -10.430858      -283.8381 
  13   1.0000     -10.408739      -283.2362 
  14   1.0000     -10.395585      -282.8782 
  15   1.0000     -10.379059      -282.4286 
  16   1.0000     -10.373259      -282.2707 
  17   1.0000     -10.347682      -281.5748 
  18   1.0000      -1.228204       -33.4211 
  19   1.0000      -1.224035       -33.3077 
  20   1.0000      -1.192854       -32.4592 
  21   1.0000      -1.189670       -32.3726 
  22   1.0000      -1.125016       -30.6132 
  23   1.0000      -1.122921       -30.5562 
  24   1.0000      -1.069641       -29.1064 
  25   1.0000      -1.060482       -28.8572 
  26   1.0000      -0.975996       -26.5582 
  27   1.0000      -0.955263       -25.9940 
  28   1.0000      -0.859226       -23.3807 
  29   1.0000      -0.845126       -22.9970 
  30   1.0000      -0.810408       -22.0523 
  31   1.0000      -0.808732       -22.0067 
  32   1.0000      -0.793979       -21.6053 
  33   1.0000      -0.788860       -21.4660 
  34   1.0000      -0.701261       -19.0823 
  35   1.0000      -0.694671       -18.9029 
  36   1.0000      -0.691906       -18.8277 
  37   1.0000      -0.690499       -18.7894 
  38   1.0000      -0.644350       -17.5337 
  39   1.0000      -0.639863       -17.4115 
  40   1.0000      -0.628888       -17.1129 
  41   1.0000      -0.599864       -16.3231 
  42   1.0000      -0.596631       -16.2351 
  43   1.0000      -0.593641       -16.1538 
  44   1.0000      -0.573330       -15.6011 
  45   1.0000      -0.569579       -15.4990 
  46   1.0000      -0.567027       -15.4296 
  47   1.0000      -0.556058       -15.1311 
  48   1.0000      -0.550523       -14.9805 
  49   1.0000      -0.548599       -14.9282 
  50   1.0000      -0.532496       -14.4900 
  51   1.0000      -0.521697       -14.1961 
  52   1.0000      -0.516674       -14.0594 
  53   1.0000      -0.513375       -13.9697 
  54   1.0000      -0.511487       -13.9183 
  55   1.0000      -0.496254       -13.5037 
  56   1.0000      -0.492962       -13.4142 
  57   1.0000      -0.476649       -12.9703 
  58   1.0000      -0.420776       -11.4499 
  59   1.0000      -0.418737       -11.3944 
  60   1.0000      -0.404794       -11.0150 
  61   1.0000      -0.403657       -10.9841 
  62   1.0000      -0.389075       -10.5873 
  63   1.0000      -0.386826       -10.5261 
  64   1.0000      -0.385124       -10.4797 
  65   1.0000      -0.346950        -9.4410 
  66   1.0000      -0.208312        -5.6685 
  67   0.0000       0.012247         0.3333 
  68   0.0000       0.021128         0.5749 
  69   0.0000       0.033040         0.8991 
  70   0.0000       0.039759         1.0819 
  71   0.0000       0.041773         1.1367 
  72   0.0000       0.058518         1.5924 
  73   0.0000       0.058738         1.5984 
  74   0.0000       0.063341         1.7236 
  75   0.0000       0.067343         1.8325 
  76   0.0000       0.069909         1.9023 
  77   0.0000       0.073175         1.9912 

                 SPIN DOWN ORBITALS
  NO   OCC          E(Eh)            E(eV) 
   0   1.0000     -19.330434      -526.0079 
   1   1.0000     -19.326946      -525.9129 
   2   1.0000     -19.322133      -525.7820 
   3   1.0000     -19.313122      -525.5368 
   4   1.0000     -14.587499      -396.9460 
   5   1.0000     -14.584251      -396.8576 
   6   1.0000     -14.570180      -396.4747 
   7   1.0000     -14.548889      -395.8954 
   8   1.0000     -10.514062      -286.1022 
   9   1.0000     -10.509867      -285.9880 
  10   1.0000     -10.477769      -285.1146 
  11   1.0000     -10.457094      -284.5520 
  12   1.0000     -10.430843      -283.8377 
  13   1.0000     -10.399232      -282.9775 
  14   1.0000     -10.385332      -282.5993 
  15   1.0000     -10.378998      -282.4269 
  16   1.0000     -10.373744      -282.2839 
  17   1.0000     -10.347658      -281.5741 
  18   1.0000      -1.226818       -33.3834 
  19   1.0000      -1.220859       -33.2213 
  20   1.0000      -1.192676       -32.4544 
  21   1.0000      -1.180531       -32.1239 
  22   1.0000      -1.122734       -30.5511 
  23   1.0000      -1.113890       -30.3105 
  24   1.0000      -1.069551       -29.1040 
  25   1.0000      -1.054890       -28.7050 
  26   1.0000      -0.955420       -25.9983 
  27   1.0000      -0.951820       -25.9003 
  28   1.0000      -0.848398       -23.0861 
  29   1.0000      -0.844657       -22.9843 
  30   1.0000      -0.809088       -22.0164 
  31   1.0000      -0.798492       -21.7281 
  32   1.0000      -0.793900       -21.6031 
  33   1.0000      -0.782032       -21.2802 
  34   1.0000      -0.694567       -18.9001 
  35   1.0000      -0.691027       -18.8038 
  36   1.0000      -0.689347       -18.7581 
  37   1.0000      -0.683087       -18.5878 
  38   1.0000      -0.641855       -17.4658 
  39   1.0000      -0.631555       -17.1855 
  40   1.0000      -0.622896       -16.9499 
  41   1.0000      -0.596576       -16.2336 
  42   1.0000      -0.589148       -16.0315 
  43   1.0000      -0.585224       -15.9248 
  44   1.0000      -0.567068       -15.4307 
  45   1.0000      -0.563718       -15.3395 
  46   1.0000      -0.554811       -15.0972 
  47   1.0000      -0.549187       -14.9441 
  48   1.0000      -0.546838       -14.8802 
  49   1.0000      -0.544344       -14.8123 
  50   1.0000      -0.523995       -14.2586 
  51   1.0000      -0.515227       -14.0200 
  52   1.0000      -0.513080       -13.9616 
  53   1.0000      -0.506801       -13.7907 
  54   1.0000      -0.501705       -13.6521 
  55   1.0000      -0.494919       -13.4674 
  56   1.0000      -0.476821       -12.9749 
  57   1.0000      -0.444749       -12.1022 
  58   1.0000      -0.419252       -11.4084 
  59   1.0000      -0.415062       -11.2944 
  60   1.0000      -0.403563       -10.9815 
  61   1.0000      -0.385981       -10.5031 
  62   1.0000      -0.380606       -10.3568 
  63   1.0000      -0.378394       -10.2966 
  64   1.0000      -0.345843        -9.4109 
  65   0.0000      -0.106901        -2.9089 
  66   0.0000       0.011227         0.3055 
  67   0.0000       0.021706         0.5906 
  68   0.0000       0.031451         0.8558 
  69   0.0000       0.038294         1.0420 
  70   0.0000       0.041440         1.1276 
  71   0.0000       0.058389         1.5889 
  72   0.0000       0.058789         1.5997 
  73   0.0000       0.059265         1.6127 
  74   0.0000       0.065760         1.7894 
  75   0.0000       0.069749         1.8980 
*Only the first 10 virtual orbitals were printed.

                    ********************************
                    * MULLIKEN POPULATION ANALYSIS *
                    ********************************

--------------------------------------------
MULLIKEN ATOMIC CHARGES AND SPIN POPULATIONS
--------------------------------------------
   0 O :   -0.683248    0.226133
   1 O :   -0.659769    0.002216
   2 O :   -0.618107    0.074420
   3 O :   -0.668763    0.002339
   4 N :    0.025195    0.219008
   5 N :    0.028964    0.015032
   6 N :    0.018471    0.045044
   7 N :    0.058052    0.002029
   8 C :    0.830800    0.182621
   9 C :    0.853057   -0.022119
  10 C :   -0.203618    1.016136
  11 C :   -0.255246    0.026458
  12 C :   -1.343401    0.000200
  13 C :   -1.360441   -0.002659
  14 C :    0.465981    0.203041
  15 C :    0.457615    0.005563
  16 C :    0.339400   -0.038240
  17 C :    0.437633   -0.009075
  18 H :    0.109140    0.019338
  19 H :    0.168605    0.003959
  20 H :    0.244034    0.020570
  21 H :    0.339023    0.007398
  22 H :    0.344099    0.017778
  23 H :    0.330118    0.000239
  24 H :    0.336752    0.000275
  25 H :    0.232468   -0.001583
  26 H :    0.063656   -0.017002
  27 H :    0.028903    0.000139
  28 H :    0.041033   -0.002984
  29 H :    0.039596    0.003726
Sum of atomic charges         :   -0.0000000
Sum of atomic spin populations:    2.0000000

-----------------------------------------------------
MULLIKEN REDUCED ORBITAL CHARGES AND SPIN POPULATIONS
-----------------------------------------------------
CHARGE
  0 O s       :     4.083337  s :     4.083337
      pz      :     1.787687  p :     4.571163
      px      :     1.400482
      py      :     1.382993
      dz2     :     0.002856  d :     0.026840
      dxz     :    -0.000311
      dyz     :     0.004831
      dx2y2   :     0.012752
      dxy     :     0.006712
      f0      :     0.000202  f :     0.001908
      f+1     :     0.000107
      f-1     :     0.000300
      f+2     :     0.000207
      f-2     :     0.000266
      f+3     :     0.000329
      f-3     :     0.000496

  1 O s       :     4.085205  s :     4.085205
      pz      :     1.291102  p :     4.544420
      px      :     1.464708
      py      :     1.788610
      dz2     :     0.009636  d :     0.028209
      dxz     :     0.014111
      dyz     :     0.003731
      dx2y2   :     0.000441
      dxy     :     0.000289
      f0      :     0.000676  f :     0.001935
      f+1     :     0.000562
      f-1     :     0.000493
      f+2     :     0.000096
      f-2     :     0.000086
      f+3     :     0.000011
      f-3     :     0.000011

  2 O s       :     4.060250  s :     4.060250
      pz      :     1.513015  p :     4.526996
      px      :     1.491073
      py      :     1.522908
      dz2     :     0.003510  d :     0.028922
      dxz     :     0.008808
      dyz     :     0.007571
      dx2y2   :     0.004310
      dxy     :     0.004723
      f0      :     0.000289  f :     0.001939
      f+1     :     0.000209
      f-1     :     0.000452
      f+2     :     0.000426
      f-2     :     0.000383
      f+3     :     0.000075
      f-3     :     0.000104

  3 O s       :     4.064748  s :     4.064748
      pz      :     1.714517  p :     4.575256
      px      :     1.484066
      py      :     1.376672
      dz2     :     0.003300  d :     0.026836
      dxz     :     0.000344
      dyz     :     0.006511
      dx2y2   :     0.007952
      dxy     :     0.008729
      f0      :     0.000181  f :     0.001924
      f+1     :     0.000060
      f-1     :     0.000370
      f+2     :     0.000316
      f-2     :     0.000281
      f+3     :     0.000335
      f-3     :     0.000380

  4 N s       :     3.488087  s :     3.488087
      pz      :     0.932606  p :     3.403543
      px      :     1.331764
      py      :     1.139173
      dz2     :     0.009515  d :     0.079361
      dxz     :     0.030432
      dyz     :     0.023049
      dx2y2   :     0.005409
      dxy     :     0.010957
      f0      :     0.000848  f :     0.003815
      f+1     :     0.000615
      f-1     :     0.000825
      f+2     :     0.000402
      f-2     :     0.000540
      f+3     :     0.000294
      f-3     :     0.000292

  5 N s       :     3.451142  s :     3.451142
      pz      :     0.996250  p :     3.450849
      px      :     1.501499
      py      :     0.953100
      dz2     :     0.001659  d :     0.065219
      dxz     :     0.004443
      dyz     :     0.022295
      dx2y2   :     0.015304
      dxy     :     0.021519
      f0      :     0.000232  f :     0.003826
      f+1     :     0.000180
      f-1     :     0.000691
      f+2     :     0.000610
      f-2     :     0.000541
      f+3     :     0.000772
      f-3     :     0.000800

  6 N s       :     3.488292  s :     3.488292
      pz      :     0.984320  p :     3.440177
      px      :     1.451582
      py      :     1.004274
      dz2     :     0.001941  d :     0.049358
      dxz     :     0.005462
      dyz     :     0.021170
      dx2y2   :     0.007901
      dxy     :     0.012884
      f0      :     0.000363  f :     0.003701
      f+1     :     0.000184
      f-1     :     0.000511
      f+2     :     0.000402
      f-2     :     0.000621
      f+3     :     0.000796
      f-3     :     0.000824

  7 N s       :     3.435345  s :     3.435345
      pz      :     0.925626  p :     3.429142
      px      :     1.477331
      py      :     1.026185
      dz2     :     0.030463  d :     0.073766
      dxz     :     0.013880
      dyz     :     0.001712
      dx2y2   :     0.013704
      dxy     :     0.014007
      f0      :     0.000691  f :     0.003695
      f+1     :     0.000622
      f-1     :     0.000712
      f+2     :     0.000401
      f-2     :     0.000434
      f+3     :     0.000414
      f-3     :     0.000421

  8 C s       :     3.428134  s :     3.428134
      pz      :     0.556434  p :     1.837138
      px      :     0.675234
      py      :     0.605469
      dz2     :    -0.067490  d :    -0.105568
      dxz     :     0.044201
      dyz     :    -0.118722
      dx2y2   :     0.040534
      dxy     :    -0.004091
      f0      :     0.001818  f :     0.009497
      f+1     :     0.001021
      f-1     :     0.001645
      f+2     :     0.001057
      f-2     :     0.001379
      f+3     :     0.000796
      f-3     :     0.001781

  9 C s       :     3.278120  s :     3.278120
      pz      :     0.480368  p :     1.967269
      px      :     0.946513
      py      :     0.540388
      dz2     :    -0.028058  d :    -0.107596
      dxz     :     0.063618
      dyz     :    -0.130931
      dx2y2   :    -0.024188
      dxy     :     0.011964
      f0      :     0.001528  f :     0.009150
      f+1     :     0.001275
      f-1     :     0.002194
      f+2     :     0.001104
      f-2     :     0.001234
      f+3     :     0.000868
      f-3     :     0.000947

 10 C s       :     3.548681  s :     3.548681
      pz      :     0.982816  p :     2.666799
      px      :     1.046976
      py      :     0.637007
      dz2     :    -0.022795  d :    -0.022626
      dxz     :    -0.001673
      dyz     :    -0.012127
      dx2y2   :     0.019203
      dxy     :    -0.005234
      f0      :     0.001594  f :     0.010764
      f+1     :     0.000881
      f-1     :     0.001755
      f+2     :     0.001512
      f-2     :     0.002139
      f+3     :     0.000969
      f-3     :     0.001913

 11 C s       :     3.597203  s :     3.597203
      pz      :     0.878220  p :     2.585423
      px      :     0.820929
      py      :     0.886274
      dz2     :    -0.027688  d :     0.061776
      dxz     :     0.017939
      dyz     :     0.062626
      dx2y2   :     0.001054
      dxy     :     0.007845
      f0      :     0.001553  f :     0.010844
      f+1     :     0.001439
      f-1     :     0.002285
      f+2     :     0.001229
      f-2     :     0.001237
      f+3     :     0.001209
      f-3     :     0.001893

 12 C s       :     3.722854  s :     3.722854
      pz      :     1.113062  p :     3.526013
      px      :     1.343339
      py      :     1.069612
      dz2     :     0.025742  d :     0.091851
      dxz     :     0.018449
      dyz     :     0.009245
      dx2y2   :     0.024555
      dxy     :     0.013860
      f0      :     0.000395  f :     0.002682
      f+1     :     0.000229
      f-1     :     0.000702
      f+2     :     0.000472
      f-2     :     0.000407
      f+3     :     0.000310
      f-3     :     0.000167

 13 C s       :     3.723859  s :     3.723859
      pz      :     1.309699  p :     3.530190
      px      :     1.193551
      py      :     1.026940
      dz2     :     0.016082  d :     0.103778
      dxz     :     0.027957
      dyz     :     0.032635
      dx2y2   :     0.024037
      dxy     :     0.003067
      f0      :     0.000112  f :     0.002614
      f+1     :     0.000136
      f-1     :     0.000500
      f+2     :     0.000550
      f-2     :     0.000433
      f+3     :     0.000396
      f-3     :     0.000487

 14 C s       :     3.302636  s :     3.302636
      pz      :     0.715932  p :     2.002028
      px      :     0.701377
      py      :     0.584718
      dz2     :     0.027503  d :     0.207600
      dxz     :     0.065407
      dyz     :     0.043538
      dx2y2   :     0.051431
      dxy     :     0.019721
      f0      :     0.002759  f :     0.021756
      f+1     :     0.001732
      f-1     :     0.004794
      f+2     :     0.002788
      f-2     :     0.003761
      f+3     :     0.002213
      f-3     :     0.003710

 15 C s       :     3.340610  s :     3.340610
      pz      :     0.588292  p :     1.980594
      px      :     0.649415
      py      :     0.742887
      dz2     :     0.021174  d :     0.199466
      dxz     :     0.049272
      dyz     :     0.088052
      dx2y2   :     0.014106
      dxy     :     0.026862
      f0      :     0.003894  f :     0.021715
      f+1     :     0.003617
      f-1     :     0.007005
      f+2     :     0.001885
      f-2     :     0.002220
      f+3     :     0.001311
      f-3     :     0.001783

 16 C s       :     3.344839  s :     3.344839
      pz      :     0.654761  p :     2.061068
      px      :     0.713587
      py      :     0.692721
      dz2     :     0.074633  d :     0.229260
      dxz     :     0.057785
      dyz     :     0.002093
      dx2y2   :     0.057964
      dxy     :     0.036785
      f0      :     0.005457  f :     0.025433
      f+1     :     0.003493
      f-1     :     0.005146
      f+2     :     0.002977
      f-2     :     0.003401
      f+3     :     0.001804
      f-3     :     0.003155

 17 C s       :     3.302152  s :     3.302152
      pz      :     0.670141  p :     1.984289
      px      :     0.697540
      py      :     0.616608
      dz2     :     0.035791  d :     0.250255
      dxz     :     0.062260
      dyz     :     0.050803
      dx2y2   :     0.042132
      dxy     :     0.059269
      f0      :     0.002888  f :     0.025671
      f+1     :     0.002538
      f-1     :     0.007368
      f+2     :     0.003038
      f-2     :     0.003533
      f+3     :     0.002965
      f-3     :     0.003341

 18 H s       :     0.834498  s :     0.834498
      pz      :     0.013513  p :     0.053606
      px      :     0.037818
      py      :     0.002276
      dz2     :     0.000834  d :     0.002756
      dxz     :     0.000784
      dyz     :     0.000795
      dx2y2   :     0.000190
      dxy     :     0.000153

 19 H s       :     0.816286  s :     0.816286
      pz      :     0.010415  p :     0.012603
      px      :    -0.007101
      py      :     0.009290
      dz2     :     0.000720  d :     0.002506
      dxz     :     0.000374
      dyz     :     0.000578
      dx2y2   :     0.000414
      dxy     :     0.000419

 20 H s       :     0.713232  s :     0.713232
      pz      :     0.009605  p :     0.040397
      px      :     0.011802
      py      :     0.018989
      dz2     :     0.000245  d :     0.002337
      dxz     :     0.000149
      dyz     :     0.000702
      dx2y2   :     0.000676
      dxy     :     0.000566

 21 H s       :     0.597515  s :     0.597515
      pz      :     0.021286  p :     0.061104
      px      :     0.034489
      py      :     0.005329
      dz2     :     0.000766  d :     0.002359
      dxz     :     0.000568
      dyz     :     0.000692
      dx2y2   :     0.000185
[...]
                          DFT DISPERSION CORRECTION                            
                                                                               
                              DFTD3 V3.1  Rev 1                                
                          USING Becke-Johnson damping                          
-------------------------------------------------------------------------------
The WB97M functional is recognized
Active option DFTDOPT                   ...         4   

molecular C6(AA) [au] = 9910.780451 


            DFT-D V3
 parameters
 s6 scaling factor         :     1.0000 
 a1 scaling factor         :     0.5660 
 s8 scaling factor         :     0.3908 
 a2 scaling factor         :     3.1280 
 ad hoc parameters k1-k3   :    16.0000     1.3333    -4.0000 

 Edisp/kcal,au: -36.826828569290  -0.058687280692 
 E6   /kcal   : -29.603346849 
 E8   /kcal   :  -7.223481720 
 % E8         :  19.614726548 

-------------------------   ----------------
Dispersion correction           -0.058687281
-------------------------   ----------------


-------------------------   --------------------
FINAL SINGLE POINT ENERGY      -908.771529984961
-------------------------   --------------------

[1737431572.723996] [ohm:3414658:0]        ib_iface.c:1059 UCX  ERROR ibv_create_cq(cqe=256) failed: Connection timed out
[1737431572.747467] [ohm:3414664:0]        ib_iface.c:1059 UCX  ERROR ibv_create_cq(cqe=256) failed: Connection timed out
[1737431572.753063] [ohm:3414657:0]        ib_iface.c:1059 UCX  ERROR ibv_create_cq(cqe=256) failed: Connection timed out
[1737431572.763173] [ohm:3414665:0]        ib_iface.c:1059 UCX  ERROR ibv_create_cq(cqe=256) failed: Connection timed out
[1737431572.764588] [ohm:3414659:0]        ib_iface.c:1059 UCX  ERROR ibv_create_cq(cqe=256) failed: Connection timed out
[1737431572.767462] [ohm:3414666:0]        ib_iface.c:1059 UCX  ERROR ibv_create_cq(cqe=256) failed: Connection timed out
[1737431572.768595] [ohm:3414670:0]        ib_iface.c:1059 UCX  ERROR ibv_create_cq(cqe=256) failed: Connection timed out
[1737431572.770614] [ohm:3414663:0]        ib_iface.c:1059 UCX  ERROR ibv_create_cq(cqe=256) failed: Connection timed out
[1737431572.785801] [ohm:3414662:0]        ib_iface.c:1059 UCX  ERROR ibv_create_cq(cqe=256) failed: Connection timed out
[1737431572.798033] [ohm:3414679:0]        ib_iface.c:1059 UCX  ERROR ibv_create_cq(cqe=256) failed: Connection timed out
[1737431572.804958] [ohm:3414660:0]        ib_iface.c:1059 UCX  ERROR ibv_create_cq(cqe=256) failed: Connection timed out
[1737431572.805761] [ohm:3414683:0]        ib_iface.c:1059 UCX  ERROR ibv_create_cq(cqe=256) failed: Connection timed out
[1737431572.808633] [ohm:3414673:0]        ib_iface.c:1059 UCX  ERROR ibv_create_cq(cqe=256) failed: Connection timed out
[1737431572.809477] [ohm:3414674:0]        ib_iface.c:1059 UCX  ERROR ibv_create_cq(cqe=256) failed: Connection timed out
[1737431572.815559] [ohm:3414680:0]        ib_iface.c:1059 UCX  ERROR ibv_create_cq(cqe=256) failed: Connection timed out
[1737431572.817669] [ohm:3414677:0]        ib_iface.c:1059 UCX  ERROR ibv_create_cq(cqe=256) failed: Connection timed out
[1737431572.822440] [ohm:3414686:0]        ib_iface.c:1059 UCX  ERROR ibv_create_cq(cqe=256) failed: Connection timed out
[1737431572.832698] [ohm:3414661:0]        ib_iface.c:1059 UCX  ERROR ibv_create_cq(cqe=256) failed: Connection timed out
[1737431572.832770] [ohm:3414667:0]        ib_iface.c:1059 UCX  ERROR ibv_create_cq(cqe=256) failed: Connection timed out
[1737431572.851178] [ohm:3414688:0]        ib_iface.c:1059 UCX  ERROR ibv_create_cq(cqe=256) failed: Connection timed out
[1737431572.854537] [ohm:3414668:0]        ib_iface.c:1059 UCX  ERROR ibv_create_cq(cqe=256) failed: Connection timed out
[1737431572.854973] [ohm:3414678:0]        ib_iface.c:1059 UCX  ERROR ibv_create_cq(cqe=256) failed: Connection timed out
[1737431572.857021] [ohm:3414676:0]        ib_iface.c:1059 UCX  ERROR ibv_create_cq(cqe=256) failed: Connection timed out
[1737431572.864010] [ohm:3414720:0]        ib_iface.c:1059 UCX  ERROR ibv_create_cq(cqe=256) failed: Connection timed out
[1737431572.868026] [ohm:3414693:0]        ib_iface.c:1059 UCX  ERROR ibv_create_cq(cqe=256) failed: Connection timed out
[1737431572.869547] [ohm:3414699:0]        ib_iface.c:1059 UCX  ERROR ibv_create_cq(cqe=256) failed: Connection timed out
[1737431572.876933] [ohm:3414717:0]        ib_iface.c:1059 UCX  ERROR ibv_create_cq(cqe=256) failed: Connection timed out
[1737431572.880902] [ohm:3414671:0]        ib_iface.c:1059 UCX  ERROR ibv_create_cq(cqe=256) failed: Connection timed out
[1737431572.882503] [ohm:3414672:0]        ib_iface.c:1059 UCX  ERROR ibv_create_cq(cqe=256) failed: Connection timed out
[1737431572.882750] [ohm:3414669:0]        ib_iface.c:1059 UCX  ERROR ibv_create_cq(cqe=256) failed: Connection timed out
[1737431572.882741] [ohm:3414675:0]        ib_iface.c:1059 UCX  ERROR ibv_create_cq(cqe=256) failed: Connection timed out
[1737431572.883900] [ohm:3414695:0]        ib_iface.c:1059 UCX  ERROR ibv_create_cq(cqe=256) failed: Connection timed out


           ************************************************************
           *        Program running with 32 parallel MPI-processes    *
           *              working on a common directory               *
           ************************************************************

------------------------------------------------------------------------------
                              ORCA PROPERTY CALCULATIONS
------------------------------------------------------------------------------

GBWName                                 ... orca.gbw
Number of atoms                         ...     30
Number of basis functions               ...    882
Max core memory                         ...   1024 MB

Electric properties:
Dipole moment                           ... YES
Quadrupole moment                       ...  NO
Static polarizability (Dipole/Dipole)   ...  NO
Static polarizability (Dipole/Quad.)    ...  NO
Static polarizability (Quad./Quad.)     ...  NO
Static polarizability (Velocity)        ...  NO

Atomic electric properties:
Dipole moment                           ...  NO
Quadrupole moment                       ...  NO
Static polarizability                   ...  NO

Choice of electric origin               ... Center of mass
Position of electric origin             ...    -0.018189     0.047216     0.099551

General magnetic properties:
Magnetizability                         ...  NO

EPR properties:
g-Tensor (aka g-matrix)                 ...  NO
Zero-Field splitting spin-orbit         ...  NO
Zero-field splitting spin-spin          ...  NO
Hyperfine couplings                     ...  NO (   0 nuclei)
Quadrupole couplings                    ...  NO (   0 nuclei)
Contact density                         ...  NO (   0 nuclei)

NMR properties:
Chemical shifts                         ...  NO (   0 nuclei)
Spin-rotation constants                 ...  NO (   0 nuclei)
Spin-spin couplings                     ...  NO (   0 nuclei,    0 pairs)

Choice of magnetic origin               ... GIAO
Position of magnetic origin             ...     0.000000     0.000000     0.000000

Properties with geometric perturbations:
SCF Hessian                             ...  NO
IR spectrum                             ...  NO
VCD spectrum                            ...  NO
X-ray spectroscopy properties:
SCF XES/XAS/RIXS spectra                ...  NO


-------------
DIPOLE MOMENT
-------------

Method             : SCF
Type of density    : Electron Density
Multiplicity       :   3
Irrep              :   0
Energy             :  -908.7380765678393573 Eh
Relativity type    : 
Basis              : AO
                                X                 Y                 Z
Electronic contribution:     -2.854047520      -9.381342208      -5.722986584
Nuclear contribution   :      2.522610886      10.201850167       8.196154212
                        -----------------------------------------
Total Dipole Moment    :     -0.331436634       0.820507958       2.473167627
                        -----------------------------------------
Magnitude (a.u.)       :      2.626716899
Magnitude (Debye)      :      6.676583760



--------------------
Rotational spectrum 
--------------------
 
Rotational constants in cm-1:             0.017020             0.015615             0.014035 
Rotational constants in MHz :           510.251400           468.133294           420.764470 

Dipole components along the rotational axes: 
x,y,z [a.u.] :     0.703691     0.250762     2.518249 
x,y,z [Debye]:     1.788639     0.637387     6.400881 

 

-------------
DIPOLE MOMENT
-------------

Method             : TDA/CIS
Type of density    : Electron Density
Level              : Relaxed density
State              :   2
Multiplicity       :   3
Irrep              :   0
Energy             :     0.0000000000000000 Eh
Relativity type    : 
Basis              : AO
                                X                 Y                 Z
Electronic contribution:     -2.907378138      -9.476424759      -5.729454831
Nuclear contribution   :      2.522610886      10.201850167       8.196154212
                        -----------------------------------------
Total Dipole Moment    :     -0.384767252       0.725425407       2.466699381
                        -----------------------------------------
Magnitude (a.u.)       :      2.599787240
Magnitude (Debye)      :      6.608134008



--------------------
Rotational spectrum 
--------------------
 
Rotational constants in cm-1:             0.017020             0.015615             0.014035 
Rotational constants in MHz :           510.251400           468.133294           420.764470 

Dipole components along the rotational axes: 
x,y,z [a.u.] :     0.650580     0.155526     2.512260 
x,y,z [Debye]:     1.653643     0.395314     6.385658 

 

Dipole moment calculation done in   1.8 sec 

Maximum memory used throughout the entire PROP-calculation: 82.9 MB
[1737431581.318116] [ohm:3415070:0]        ib_iface.c:1059 UCX  ERROR ibv_create_cq(cqe=256) failed: Connection timed out
[1737431581.319721] [ohm:3415087:0]        ib_iface.c:1059 UCX  ERROR ibv_create_cq(cqe=256) failed: Connection timed out
[1737431581.325414] [ohm:3415084:0]        ib_iface.c:1059 UCX  ERROR ibv_create_cq(cqe=256) failed: Connection timed out
[1737431581.345061] [ohm:3415075:0]        ib_iface.c:1059 UCX  ERROR ibv_create_cq(cqe=256) failed: Connection timed out
[1737431581.365111] [ohm:3415085:0]        ib_iface.c:1059 UCX  ERROR ibv_create_cq(cqe=256) failed: Connection timed out
[1737431581.370250] [ohm:3415073:0]        ib_iface.c:1059 UCX  ERROR ibv_create_cq(cqe=256) failed: Connection timed out
[1737431581.388919] [ohm:3415112:0]        ib_iface.c:1059 UCX  ERROR ibv_create_cq(cqe=256) failed: Connection timed out
[1737431581.390538] [ohm:3415098:0]        ib_iface.c:1059 UCX  ERROR ibv_create_cq(cqe=256) failed: Connection timed out
[1737431581.390729] [ohm:3415116:0]        ib_iface.c:1059 UCX  ERROR ibv_create_cq(cqe=256) failed: Connection timed out
[1737431581.393193] [ohm:3415071:0]        ib_iface.c:1059 UCX  ERROR ibv_create_cq(cqe=256) failed: Connection timed out
[1737431581.394349] [ohm:3415099:0]        ib_iface.c:1059 UCX  ERROR ibv_create_cq(cqe=256) failed: Connection timed out
[1737431581.396354] [ohm:3415077:0]        ib_iface.c:1059 UCX  ERROR ibv_create_cq(cqe=256) failed: Connection timed out
[1737431581.395057] [ohm:3415097:0]        ib_iface.c:1059 UCX  ERROR ibv_create_cq(cqe=256) failed: Connection timed out
[1737431581.394348] [ohm:3415096:0]        ib_iface.c:1059 UCX  ERROR ibv_create_cq(cqe=256) failed: Connection timed out
[1737431581.397116] [ohm:3415086:0]        ib_iface.c:1059 UCX  ERROR ibv_create_cq(cqe=256) failed: Connection timed out
[1737431581.398367] [ohm:3415093:0]        ib_iface.c:1059 UCX  ERROR ibv_create_cq(cqe=256) failed: Connection timed out
[1737431581.399129] [ohm:3415082:0]        ib_iface.c:1059 UCX  ERROR ibv_create_cq(cqe=256) failed: Connection timed out
[1737431581.401854] [ohm:3415074:0]        ib_iface.c:1059 UCX  ERROR ibv_create_cq(cqe=256) failed: Connection timed out
[1737431581.403956] [ohm:3415115:0]        ib_iface.c:1059 UCX  ERROR ibv_create_cq(cqe=256) failed: Connection timed out
[1737431581.408197] [ohm:3415092:0]        ib_iface.c:1059 UCX  ERROR ibv_create_cq(cqe=256) failed: Connection timed out
[1737431581.408369] [ohm:3415081:0]        ib_iface.c:1059 UCX  ERROR ibv_create_cq(cqe=256) failed: Connection timed out
[1737431581.413510] [ohm:3415104:0]        ib_iface.c:1059 UCX  ERROR ibv_create_cq(cqe=256) failed: Connection timed out
[1737431581.417080] [ohm:3415101:0]        ib_iface.c:1059 UCX  ERROR ibv_create_cq(cqe=256) failed: Connection timed out
[1737431581.421143] [ohm:3415072:0]        ib_iface.c:1059 UCX  ERROR ibv_create_cq(cqe=256) failed: Connection timed out
[1737431581.422435] [ohm:3415095:0]        ib_iface.c:1059 UCX  ERROR ibv_create_cq(cqe=256) failed: Connection timed out
[1737431581.424234] [ohm:3415094:0]        ib_iface.c:1059 UCX  ERROR ibv_create_cq(cqe=256) failed: Connection timed out
[1737431581.425114] [ohm:3415123:0]        ib_iface.c:1059 UCX  ERROR ibv_create_cq(cqe=256) failed: Connection timed out
[1737431581.425989] [ohm:3415089:0]        ib_iface.c:1059 UCX  ERROR ibv_create_cq(cqe=256) failed: Connection timed out
[1737431581.426856] [ohm:3415137:0]        ib_iface.c:1059 UCX  ERROR ibv_create_cq(cqe=256) failed: Connection timed out
[1737431581.436307] [ohm:3415132:0]        ib_iface.c:1059 UCX  ERROR ibv_create_cq(cqe=256) failed: Connection timed out
[1737431581.441598] [ohm:3415124:0]        ib_iface.c:1059 UCX  ERROR ibv_create_cq(cqe=256) failed: Connection timed out
[1737431581.442201] [ohm:3415100:0]        ib_iface.c:1059 UCX  ERROR ibv_create_cq(cqe=256) failed: Connection timed out

--------------------------------
SUGGESTED CITATIONS FOR THIS RUN
--------------------------------

Below you find a list of papers that are relevant to this ORCA run
We neither can nor want to force you to cite these papers, but we appreciate if you do
You receive ORCA, which is the product of decades of hard work by many enthusiastic individuals, for free
The only thing we kindly ask in return is that you cite our papers,
We deeply appreciate it, if you show your appreciation for ORCA by not just citing the generic ORCA reference.

Please note that relegating all ORCA citations to the supporting information does *not* help us.
SI sections are not indexed - citations you put there will not count into any citation statistics
But we need these citations in order to attract the funding resources that allow us to do what we are doing

Therefore, if you are a happy ORCA user, please consider citing a few of the papers listed below in the main body of your paper

In addition to the list printed below, the program has created the file orca.bibtex that contains the list in bibtex format
You can import this file easily into all common literature databanks and citation aid programs


List of essential papers. We consider these as the minimum necessary citations

  1. Neese,F.
     Software update: the ORCA program system, version 5.0
     WIRES Comput. Molec. Sci., 2022 12(1)e1606
     doi.org/10.1002/wcms.1606

List of papers to cite with high priority. The work reported in these papers was absolutely
necessary for this run to complete.
Our perspective: the developers of density functionals and basis sets usually get cited in chemistry papers
Good! But without the algorithms to do something with them, the functionals or basis sets would not do anything.
Hence, in our opinion, the algorithm design and method developments papers are equally worthy of getting cited

  1. Neese,F.; Olbrich,G.
     Efficient use of the resolution of the identity approximation in time-dependent density functional calculations with hybrid density functionals
     Chem. Phys. Lett., 2002 362 170-178
     doi.org/10.1016/s0009-2614(02)01053-9
  2. Neese,F.
     An improvement of the resolution of the identity approximation for the formation of the Coulomb matrix
     J. Comp. Chem., 2003 24(14)1740-1747
     doi.org/10.1002/jcc.10318
  3. Neese,F.; Wennmohs,F.; Hansen,A.; Becker,U.
     Efficient, approximate and parallel Hartree-Fock and hybrid DFT calculations. A 'chain-of-spheres' algorithm for the Hartree-Fock exchange
     Chem. Phys., 2009 356(1-3)98-109
     doi.org/10.1016/j.chemphys.2008.10.036
  4. Petrenko,T.; Kossmann,S.; Neese,F.
     Efficient time-dependent density functional theory approximations for hybrid density functionals: Analytical gradients and parallelization
     J. Chem. Phys., 2011 134 054116
     doi.org/10.1063/1.3533441
  5. Helmich-Paris,B.; de Souza,B.; Neese,F.; Izsák,R.
     An improved chain of spheres for exchange algorithm
     J. Chem. Phys., 2021 155 104109
     doi.org/doi: 10.1063/5.0058766.
  6. Neese,F.
     The SHARK Integral Generation and Digestion System
     J. Comp. Chem., 2022  1-16
     doi.org/10.1002/jcc.26942
  7. Lehtola,S.; Steigemann,C.; Oliveira,M.; Marques,M.
     Recent developments in Libxc - A comprehensive library of functionals for density functional theory
     Software X, 2018 7 
     doi.org/10.1016/j.softx.2017.11.002
  8. Grimme,S.; Antony,J.; Ehrlich,S.; Krieg,H.
     A consistent and accurate ab initio parametrization of density functional dispersion correction (DFT-D) for the 94 elements H-Pu
     J. Chem. Phys., 2010 132 154104-XXXX
     doi.org/10.1063/1.3382344
  9. Grimme,S.; Ehrlich,S.; Goerigk,L.
     Effect of the damping function in dispersion corrected density functional theory
     J. Comput. Chem., 2011 32(7)1456-1465
     doi.org/10.1002/jcc.21759

List of suggested additional citations. These are papers that are important in the 'surrounding' of 
of this run, or papers that preceded the highly important papers. If you like your results we are grateful for a citation.

  1. Izsak,R.; Neese,F.
     An overlap fitted chain of spheres exchange method
     J. Chem. Phys., 2011 135 144105
     doi.org/10.1063/1.3646921
  2. Izsak,R.; Hansen,A.; Neese,F.
     The resolution of identity and chain of spheres approximations for the LPNO-CCSD singles Fock term
     Molec. Phys., 2012 110 2413-2417
     doi.org/10.1080/00268976.2012.687466
  3. Neese,F.
     The ORCA program system
     WIRES Comput. Molec. Sci., 2012 2(1)73-78
     doi.org/10.1002/wcms.81
  4. Izsak,R.; Neese,F.; Klopper,W.
     Robust fitting techniques in the chain of spheres approximation to the Fock exchange: The role of the complementary space
     J. Chem. Phys., 2013 139 
     doi.org/10.1063/1.4819264
  5. Neese,F.
     Software update: the ORCA program system, version 4.0
     WIRES Comput. Molec. Sci., 2018 8(1)1-6
     doi.org/10.1002/wcms.1327
  6. Neese,F.; Wennmohs,F.; Becker,U.; Riplinger,C.
     The ORCA quantum chemistry program package
     J. Chem. Phys., 2020 152 Art. No. L224108
     doi.org/10.1063/5.0004608

List of optional additional citations

  1. Neese,F.
     Approximate second-order SCF convergence for spin unrestricted wavefunctions
     Chem. Phys. Lett., 2000 325(1-3)93-98
     doi.org/10.1016/s0009-2614(00)00662-x

Timings for individual modules:

Sum of individual times          ...     1711.498 sec (=  28.525 min)
Startup calculation              ...       51.315 sec (=   0.855 min)   3.0 %
SCF iterations                   ...     1137.267 sec (=  18.954 min)  66.4 %
Property integrals               ...        8.707 sec (=   0.145 min)   0.5 %
Property calculations            ...        7.911 sec (=   0.132 min)   0.5 %
CIS module                       ...      506.299 sec (=   8.438 min)  29.6 %
                             ****ORCA TERMINATED NORMALLY****
TOTAL RUN TIME: 0 days 0 hours 28 minutes 34 seconds 225 msec
