7
Properties=species:S:1:pos:R:3:momenta:R:3:forces:R:3 Coordinates=T from=T ORCA-job=T orca=T E=T -153.889589183604=T energy=-4183.509058030136 free_energy=-4183.509058030136 stress="3.6990865016178194e-06 2.8155467562893763e-06 6.240136616992218e-07 2.8155467562893763e-06 -1.3847282792654602e-05 4.076668017310429e-06 6.240136616992218e-07 4.076668017310429e-06 -4.888993212974876e-06" pbc="F F F"
O       -0.33500610       0.99547582      -0.47749570      -0.18988708      -2.09583461      -1.45313027       0.57735033       0.43779770      -0.39776078
C        0.28786033       0.10835727       0.38727323      -0.75847437       0.39164497       0.76725538      -0.99893245       1.88324927       0.68765035
C        0.08119417      -1.25028252       0.08424712       0.99165835       1.07176678      -0.13146718      -0.52253772      -0.79246326      -2.61030616
H       -0.24467532       0.24628642       1.34678486      -0.05362146      -0.07399671       0.31353638       0.40940568       0.43158488       0.43163745
H        1.33239087       0.43501341       0.65198294       0.05069328       0.01069035       0.26165294      -0.58214092      -0.19461357      -0.48790014
H       -0.46224445      -1.64963216      -0.78864126       0.03026882       0.38619533       0.13997630       0.38892112       0.55389907       0.44288034
H        0.31738295      -1.85706221       0.84356174      -0.07063754       0.30953388       0.10217645       0.72793396      -2.31945408       1.93379894
