30
Properties=species:S:1:pos:R:3:momenta:R:3:forces:R:3 Coordinates=T from=T ORCA-job=T orca=T E=T -908.936107809761=T energy=-24729.220993848547 free_energy=-24729.220993848547 stress="9.153357073740505e-09 1.4725078462063895e-06 -6.518178419207149e-07 1.4725078462063895e-06 3.4953872461264973e-06 -4.640924232261743e-07 -6.518178419207149e-07 -4.640924232261743e-07 4.721488381689315e-07" pbc="F F F"
O        2.42131044       1.33793064      -0.31891137      -0.48436901       0.35182228       0.16018287      -0.34272614      -0.77031137       0.26311036
O       -0.77719022       0.76745304      -2.40090812       0.15615249       0.05745018       0.00486343      -0.17869760       0.20159001       0.26762661
O        0.55854249      -2.63886751      -1.61892494       0.62789555      -0.40027317      -0.71227355      -0.09516362      -0.13663635      -0.29774810
O       -2.41819966      -1.53224777       1.14831894      -0.12222883       0.18623699      -0.24493950      -0.03712084       0.49128105       0.24653003
N        0.62605896      -2.20385265       0.61244260       0.25877068      -0.34678378       0.41930301       0.25963180       0.07537244       0.08869381
N       -1.91887714       0.71374491       1.44323778      -0.70738184       0.22411113      -0.27078934       0.05058850       0.09083824      -0.49879915
N        1.59358577      -0.73414263      -0.89596288      -0.66314095      -0.05605611       0.40272582       0.54326939       0.77155197      -0.69324989
N       -1.61348473      -0.32242650      -0.58943578      -0.04612105       0.04009427       0.75608168       0.00068554       0.43546804       0.08989527
C        1.53350518      -0.10688185       1.39676944      -0.05622545      -0.71876047       0.16477775      -0.05204984       0.00596766      -0.08092296
C       -0.94315754       2.00114214      -0.34423950       0.09740727      -0.14008711      -0.26043358       0.10374857      -0.44392388      -0.17831810
C        0.91245111      -1.34828428       1.64540373       0.72184759       0.09538463      -0.20798420       0.26163845       1.39067119      -0.27966047
C       -1.31119632       1.85546895       0.94765294       0.00617181       0.38019010       0.13559989      -0.11856991       0.40266243      -0.31520805
C        1.78861208       0.98054527       2.41022471       0.30331324      -0.00620577      -0.07963877       0.25838829      -0.43194620      -0.10528630
C       -0.26696747       3.19796613      -0.95119171       0.19994964      -0.08099055      -0.15903459       0.58749530       0.11611298       0.61108688
C        1.89975339       0.26714160       0.02951922      -0.29058945       0.01569426      -0.17800124       0.01543093      -0.37024954       0.41936394
C       -1.11055079       0.83131912      -1.23268204      -0.09942409      -0.05412874      -0.06900652      -0.03411296      -0.24890088      -0.00686868
C        0.89358979      -1.92180645      -0.71064568      -0.17663286       0.10710501       0.32318358       0.36264648       0.09137374       0.27882484
C       -2.02876087      -0.45629445       0.72425095      -0.12217981      -0.09064417       0.26369373       0.12784132      -0.36323450      -0.33245513
H        0.51953991      -1.60899807       2.62254715       0.03335825       0.08921476       0.08877116       0.14848212       0.04572796      -0.09990082
H       -1.16440903       2.65687821       1.67292284       0.00195950       0.04261575      -0.03403146      -0.12979267      -0.26944041      -0.14661683
H        1.32481939       1.92514946       2.13065115       0.01209907      -0.05213315      -0.05866351       0.07874416      -0.09477281      -0.18618430
H        1.42806944       0.70334563       3.37635639       0.10143947       0.16445096      -0.01072060      -0.27619714      -0.25816130       0.56075207
H        2.86234244       1.16346496       2.53062069      -0.14023369       0.06202038      -0.06623847      -0.09485514       0.04335070      -0.24956597
H       -0.75835136       3.60188239      -1.81966208       0.04414971       0.10959038      -0.07409766      -0.40836412      -0.10871408      -0.21887747
H       -0.15936935       4.02232729      -0.22864423      -0.04546433      -0.08690845      -0.19898544      -0.04567206      -0.32085600      -0.13968030
H        0.73988791       2.90112923      -1.27800472       0.06844042      -0.04122971      -0.09447900      -0.24362106       0.10342834       0.15737063
H        0.09081997      -3.04035400       0.76822729       0.11088332       0.03532373      -0.05157000      -0.09655712       0.01604473      -0.00962914
H       -2.22547030       0.68364922       2.38125607       0.03937769       0.11846763       0.03955339      -0.14725064      -0.06812136       0.54881695
H        1.93759756      -0.48466804      -1.83812888       0.06775203      -0.05085370      -0.13979200      -0.52745405      -0.49403917       0.48866172
H       -1.61844108      -1.19278465      -1.09851303       0.10302361       0.04528245       0.15194312       0.02961408       0.09786640      -0.18176144
