
                                 *****************
                                 * O   R   C   A *
                                 *****************

                                            #,                                       
                                            ###                                      
                                            ####                                     
                                            #####                                    
                                            ######                                   
                                           ########,                                 
                                     ,,################,,,,,                         
                               ,,#################################,,                 
                          ,,##########################################,,             
                       ,#########################################, ''#####,          
                    ,#############################################,,   '####,        
                  ,##################################################,,,,####,       
                ,###########''''           ''''###############################       
              ,#####''   ,,,,##########,,,,          '''####'''          '####       
            ,##' ,,,,###########################,,,                        '##       
           ' ,,###''''                  '''############,,,                           
         ,,##''                                '''############,,,,        ,,,,,,###''
      ,#''                                            '''#######################'''  
     '                                                          ''''####''''         
             ,#######,   #######,   ,#######,      ##                                
            ,#'     '#,  ##    ##  ,#'     '#,    #''#        ,####,   ,####,        
            ##       ##  ##   ,#'  ##            #'  '#       #'       #'  '#        
            ##       ##  #######   ##           ,######,      #####,   #    #        
            '#,     ,#'  ##    ##  '#,     ,#' ,#      #,     #,   #   #,  ,#        
             '#######'   ##     ##  '#######'  #'      '#     '####' # '####'        



                #########################################################
                #                        -***-                          #
                #          Department of theory and spectroscopy        #
                #                                                       #
                #                      Frank Neese                      #
                #                                                       #
                #     Directorship, Architecture, Infrastructure        #
                #                    SHARK, DRIVERS                     #
                #        Core code/Algorithms in most modules           #
                #                                                       #
                #        Max Planck Institute fuer Kohlenforschung      #
                #                Kaiser Wilhelm Platz 1                 #
                #                 D-45470 Muelheim/Ruhr                 #
                #                      Germany                          #
                #                                                       #
                #                  All rights reserved                  #
                #                        -***-                          #
                #########################################################


                         Program Version 6.0.0  -   RELEASE  -


 With contributions from (in alphabetic order):
   Daniel Aravena         : Magnetic Suceptibility
   Michael Atanasov       : Ab Initio Ligand Field Theory (pilot matlab implementation)
   Alexander A. Auer      : GIAO ZORA, VPT2 properties, NMR spectrum
   Ute Becker             : All parallelization in ORCA, NUMFREQ, NUMCALC
   Giovanni Bistoni       : ED, misc. LED, open-shell LED, HFLD
   Martin Brehm           : Molecular dynamics
   Dmytro Bykov           : pre 5.0 version of the SCF Hessian
   Marcos Casanova-Páez   : Triplet and SCS-CIS(D). UHF-(DLPNO)-IP/EA/STEOM-CCSD. UHF-CVS-IP/STEOM-CCSD
   Vijay G. Chilkuri      : MRCI spin determinant printing, contributions to CSF-ICE
   Pauline Colinet        : FMM embedding
   Dipayan Datta          : RHF DLPNO-CCSD density
   Achintya Kumar Dutta   : EOM-CC, STEOM-CC
   Nicolas Foglia         : Exact transition moments, OPA infrastructure, MCD improvements
   Dmitry Ganyushin       : Spin-Orbit,Spin-Spin,Magnetic field MRCI
   Miquel Garcia          : C-PCM and meta-GGA Hessian, CCSD/C-PCM, Gaussian charge scheme
   Tiago L. C. Gouveia    : GS-ROHF, GS-ROCIS
   Yang Guo               : DLPNO-NEVPT2, F12-NEVPT2, CIM, IAO-localization
   Andreas Hansen         : Spin unrestricted coupled pair/coupled cluster methods
   Ingolf Harden          : AUTO-CI MPn and infrastructure 
   Benjamin Helmich-Paris : MC-RPA, TRAH-(SCF,CASSCF), AVAS, COSX integrals, SCF dyn. polar.
   Lee Huntington         : MR-EOM, pCC
   Robert Izsak           : Overlap fitted RIJCOSX, COSX-SCS-MP3, EOM
   Riya Kayal             : Wick's Theorem for AUTO-CI, AUTO-CI UHF-CCSDT
   Emily Kempfer          : AUTO-CI, RHF CISDT and CCSDT
   Christian Kollmar      : KDIIS, OOCD, Brueckner-CCSD(T), CCSD density, CASPT2, CASPT2-K, improved NEVPT2
   Axel Koslowski         : Symmetry handling
   Simone Kossmann        : Meta GGA functionals, TD-DFT gradient, OOMP2, (MP2 Hessian; deprecated post 5.0)
   Lucas Lang             : DCDCAS
   Marvin Lechner         : AUTO-CI (C++ implementation), FIC-MRCC
   Spencer Leger          : CASSCF response
   Dagmar Lenk            : GEPOL surface, SMD, ORCA-2-JSON
   Dimitrios Liakos       : Extrapolation schemes; Compound Job, initial MDCI parallelization
   Dimitrios Manganas     : Further ROCIS development; embedding schemes. LFT, Crystal Embedding
   Dimitrios Pantazis     : SARC Basis sets
   Anastasios Papadopoulos: AUTO-CI, single reference methods and gradients
   Taras Petrenko         : pre 6.0 DFT Hessian and TD-DFT gradient, (ASA, deprecated), ECA, 1-Electron XAS/XES, NRVS
   Peter Pinski           : DLPNO-MP2, DLPNO-MP2 Gradient
   Christoph Reimann      : Effective Core Potentials
   Marius Retegan         : Local ZFS, SOC
   Christoph Riplinger    : Optimizer, TS searches, QM/MM, DLPNO-CCSD(T), (RO)-DLPNO pert. Triples
   Michael Roemelt        : Original ROCIS implementation
   Masaaki Saitow         : Open-shell DLPNO-CCSD energy and density
   Barbara Sandhoefer     : DKH picture change effects
   Kantharuban Sivalingam : CASSCF convergence/infrastructure, NEVPT2 and variants, FIC-MRCI
   Bernardo de Souza      : ESD, SOC TD-DFT
   Georgi Stoychev        : AutoAux, RI-MP2 NMR, DLPNO-MP2 response, X2C
   Van Anh Tran           : RI-MP2 g-tensors
   Willem Van den Heuvel  : Paramagnetic NMR
   Zikuan Wang            : NOTCH, Electric field optimization 
   Frank Wennmohs         : Technical directorship and infrastructure
   Hang Xu                : AUTO-CI-Response properties 


 We gratefully acknowledge several colleagues who have allowed us to
 interface, adapt or use parts of their codes:
   Stefan Grimme, W. Hujo, H. Kruse, P. Pracht,  : VdW corrections, initial TS optimization,
                  C. Bannwarth, S. Ehlert,         DFT functionals, gCP, sTDA/sTD-DF
                  L. Wittmann, M. Mueller
   Ed Valeev, F. Pavosevic, A. Kumar             : LibInt (2-el integral package), F12 methods
   Garnet Chan, S. Sharma, J. Yang, R. Olivares  : DMRG
   Ulf Ekstrom                                   : XCFun DFT Library
   Mihaly Kallay                                 : mrcc  (arbitrary order and MRCC methods)
   Frank Weinhold                                : gennbo (NPA and NBO analysis)
   Simon Mueller                                 : openCOSMO-RS
   Christopher J. Cramer and Donald G. Truhlar   : smd solvation model
   Lars Goerigk                                  : TD-DFT with DH, B97 family of functionals
   V. Asgeirsson, H. Jonsson                     : NEB implementation
   FAccTs GmbH                                   : IRC, NEB, NEB-TS, DLPNO-Multilevel, CI-OPT
                                                   MM, QMMM, 2- and 3-layer-ONIOM, Crystal-QMMM,
                                                   LR-CPCM, SF, NACMEs, symmetry and pop. for TD-DFT,
                                                   nearIR, NL-DFT gradient (VV10), updates on ESD,
                                                   ML-optimized integration grids, MBIS, APM,
                                                   GOAT, DOCKER, SOLVATOR, interface openCOSMO-RS
   S Lehtola, MJT Oliveira, MAL Marques          : LibXC Library
   Liviu Ungur et al                             : ANISO software


 Your calculation uses the libint2 library for the computation of 2-el integrals
 For citations please refer to: http://libint.valeyev.net

 Your ORCA version has been built with support for libXC version: 6.2.2
 For citations please refer to: https://libxc.gitlab.io

 This ORCA versions uses:
   CBLAS   interface :  Fast vector & matrix operations
   LAPACKE interface :  Fast linear algebra routines
   SCALAPACK package :  Parallel linear algebra routines
   Shared memory     :  Shared parallel matrices
   BLAS/LAPACK       :  OpenBLAS 0.3.27  USE64BITINT DYNAMIC_ARCH NO_AFFINITY Zen SINGLE_THREADED
        Core in use  :  Zen
   Copyright (c) 2011-2014, The OpenBLAS Project


Your calculation utilizes the atom-pairwise dispersion correction
with the Becke-Johnson damping scheme (D3BJ)


Warning: RI is on but no J-basis has been assigned. Assigning Def2/J (nothing to worry about!)
================================================================================

----- Orbital basis set information -----
Your calculation utilizes the basis: def2-TZVPPD
   F. Weigend and R. Ahlrichs, Phys. Chem. Chem. Phys. 7, 3297 (2005).
   D. Rappoport and F. Furche, J. Chem. Phys. 133, 134105 (2010)
   D. Rappoport, J. Chem. Phys. 155, 124102 (2021).

----- AuxJ basis set information -----
Your calculation utilizes the auxiliary basis: def2/J
   F. Weigend, Phys. Chem. Chem. Phys. 8, 1057 (2006).

================================================================================
                                        WARNINGS
                       Please study these warnings very carefully!
================================================================================

Using LibXC functional ID 531 : wB97M-V exchange-correlation functional
[ 1]  N. Mardirossian and M. Head-Gordon.,  J. Chem. Phys. 144, 214110 (2016)
Using LibXC functional ID 531 : wB97M-V exchange-correlation functional
[ 1]  N. Mardirossian and M. Head-Gordon.,  J. Chem. Phys. 144, 214110 (2016)

WARNING: B97M-V or wB97M-V functional requested.
  ===> : libXC variant has now been activated.
         Any manually given DFX/HFX/RangeSep scaling parameters are IGNORED!

Your calculation utilizes LibXC
 by S Lehtola, C Steigemann, MJT Oliveira & MAL Marques
Please cite in your paper:
 S Lehtola, C Steigemann, MJT Oliveira & MAL Marques, SoftwareX, 7, (2018), 1.
   


WARNING: your system is open-shell and RHF/RKS was chosen
  ===> : WILL SWITCH to UHF/UKS

INFO   : Checking CIS options ...

WARNING: CIS/ROCIS methods need fully converged wavefunctions
  ===> : Setting SCFConvForced true
         You can overwrite this default with %scf ConvForced false 


================================================================================
                                       INPUT FILE
================================================================================
NAME = orca.inp
|  1> ! Engrad def2-TZVPPD wB97M-D3BJ 
|  2> %pal nprocs 8 end%pal nprocs 64 end 
|  3> %tddft 
|  4> Iroot 0 Nroots 3 
|  5> sf true 
|  6> end 
|  7> *xyz 0 3 
|  8> O   2.5618690004408844 1.1722079359505935 -0.44525917856168873
|  9> O   -0.6882600513756848 0.8766280266194375 -2.3539671727268923
| 10> O   0.5259580756051984 -2.73368636957222 -1.4737382819816374
| 11> O   -2.52252310483902 -1.5493110965694559 0.9731881558207027
| 12> N   0.5997636203984685 -2.0819136403650185 0.6764161632723275
| 13> N   -1.9429055699206057 0.5598946443489045 1.4065261620711331
| 14> N   1.6208215884874069 -0.8214194204436118 -0.9208614967195462
| 15> N   -1.6284230412754321 -0.3087447419471077 -0.6871702823278055
| 16> C   1.5100863416378716 0.025420491086436545 1.2887378614851086
| 17> C   -0.8683160202378953 1.8952473927853806 -0.23335792781322126
| 18> C   0.8354833763460574 -1.0959074986776658 1.5928124791350073
| 19> C   -1.2814230156880846 1.6788623090429817 1.024650563657309
| 20> C   1.8576162484654908 1.0347357981063297 2.283712318490783
| 21> C   -0.3358316433543872 3.172394883460214 -0.6764344036725951
| 22> C   1.9570712638622958 0.20248311429481153 -0.06706600663407908
| 23> C   -1.0344431379020498 0.829714404012546 -1.2008196610448179
| 24> C   0.8899069050090456 -1.9405860917417035 -0.6452079720917966
| 25> C   -2.0648096747713702 -0.5071065116917294 0.5869177655613507
| 26> H   0.577821904954138 -1.3515822586451096 2.6056140126154035
| 27> H   -1.2454392094809108 2.4550444818203445 1.7671724042924501
| 28> H   1.5206031753845204 2.0155860902965017 1.959668486237652
| 29> H   1.421222828092726 0.8460944433144506 3.261030548358696
| 30> H   2.924943022514106 1.1453423123137565 2.4514377220591723
| 31> H   -0.9651086511932695 3.552340600868502 -1.4778017365245166
| 32> H   -0.25261127237730274 3.932636272570802 0.09011323157943152
| 33> H   0.6579376486599473 3.053045000406119 -1.1008259622190284
| 34> H   -0.02940225985486129 -2.833054199202584 0.8913333563407687
| 35> H   -2.2512894072284064 0.4443170354565926 2.3510789844591935
| 36> H   1.812525940571918 -0.6681398219931729 -1.89845542912499
| 37> H   -1.7102448809308257 -1.0855435859053877 -1.3248447039938813
| 38> *
| 39> 
| 40>                          ****END OF INPUT****
================================================================================

                     *******************************
                     * Energy+Gradient Calculation *
                     *******************************

---------------------------------
CARTESIAN COORDINATES (ANGSTROEM)
---------------------------------
  O      2.561869    1.172208   -0.445259
  O     -0.688260    0.876628   -2.353967
  O      0.525958   -2.733686   -1.473738
  O     -2.522523   -1.549311    0.973188
  N      0.599764   -2.081914    0.676416
  N     -1.942906    0.559895    1.406526
  N      1.620822   -0.821419   -0.920861
  N     -1.628423   -0.308745   -0.687170
  C      1.510086    0.025420    1.288738
  C     -0.868316    1.895247   -0.233358
  C      0.835483   -1.095907    1.592812
  C     -1.281423    1.678862    1.024651
  C      1.857616    1.034736    2.283712
  C     -0.335832    3.172395   -0.676434
  C      1.957071    0.202483   -0.067066
  C     -1.034443    0.829714   -1.200820
  C      0.889907   -1.940586   -0.645208
  C     -2.064810   -0.507107    0.586918
  H      0.577822   -1.351582    2.605614
  H     -1.245439    2.455044    1.767172
  H      1.520603    2.015586    1.959668
  H      1.421223    0.846094    3.261031
  H      2.924943    1.145342    2.451438
  H     -0.965109    3.552341   -1.477802
  H     -0.252611    3.932636    0.090113
  H      0.657938    3.053045   -1.100826
  H     -0.029402   -2.833054    0.891333
  H     -2.251289    0.444317    2.351079
  H      1.812526   -0.668140   -1.898455
  H     -1.710245   -1.085544   -1.324845

----------------------------
CARTESIAN COORDINATES (A.U.)
----------------------------
  NO LB      ZA    FRAG     MASS         X           Y           Z
   0 O     8.0000    0    15.999    4.841231    2.215152   -0.841418
   1 O     8.0000    0    15.999   -1.300623    1.656587   -4.448353
   2 O     8.0000    0    15.999    0.993917   -5.165919   -2.784962
   3 O     8.0000    0    15.999   -4.766878   -2.927774    1.839059
   4 N     7.0000    0    14.007    1.133389   -3.934247    1.278241
   5 N     7.0000    0    14.007   -3.671559    1.058048    2.657949
   6 N     7.0000    0    14.007    3.062909   -1.552258   -1.740176
   7 N     7.0000    0    14.007   -3.077274   -0.583443   -1.298564
   8 C     6.0000    0    12.011    2.853650    0.048038    2.435362
   9 C     6.0000    0    12.011   -1.640879    3.581499   -0.440983
  10 C     6.0000    0    12.011    1.578835   -2.070965    3.009979
  11 C     6.0000    0    12.011   -2.421539    3.172590    1.936309
  12 C     6.0000    0    12.011    3.510386    1.955367    4.315591
  13 C     6.0000    0    12.011   -0.634630    5.994958   -1.278276
  14 C     6.0000    0    12.011    3.698329    0.382638   -0.126736
  15 C     6.0000    0    12.011   -1.954814    1.567933   -2.269220
  16 C     6.0000    0    12.011    1.681680   -3.667176   -1.219266
  17 C     6.0000    0    12.011   -3.901925   -0.958292    1.109114
  18 H     1.0000    0     1.008    1.091925   -2.554120    4.923897
  19 H     1.0000    0     1.008   -2.353539    4.639362    3.339472
  20 H     1.0000    0     1.008    2.873524    3.808906    3.703237
  21 H     1.0000    0     1.008    2.685722    1.598887    6.162455
  22 H     1.0000    0     1.008    5.527341    2.164383    4.632546
  23 H     1.0000    0     1.008   -1.823791    6.712951   -2.792641
  24 H     1.0000    0     1.008   -0.477366    7.431606    0.170289
  25 H     1.0000    0     1.008    1.243322    5.769419   -2.080260
  26 H     1.0000    0     1.008   -0.055562   -5.353697    1.684376
  27 H     1.0000    0     1.008   -4.254320    0.839638    4.442895
  28 H     1.0000    0     1.008    3.425178   -1.262601   -3.587561
  29 H     1.0000    0     1.008   -3.231894   -2.051380   -2.503594

--------------------------------
INTERNAL COORDINATES (ANGSTROEM)
--------------------------------
 O      0   0   0     0.000000000000     0.00000000     0.00000000
 O      1   0   0     3.780723812083     0.00000000     0.00000000
 O      2   1   0     3.909411541312    72.03287891     0.00000000
 O      3   2   1     4.084535626829    68.61066442   103.31539755
 N      3   2   1     2.247981113672    87.58143369    54.87682502
 N      4   3   2     2.229907435740   101.34349681   317.89165334
 N      1   2   3     2.255286640927    57.70500479     0.22413207
 N      2   1   3     2.251050182000    91.51221229    56.02176366
 C      1   2   3     2.329831311479    87.08660028   301.58673319
 C      2   1   3     2.359446785724    65.04555292   113.95554923
 C      9   1   2     1.343475714149   143.70345298    54.69326662
 C     10   2   1     1.341665106786   142.80681676   255.19872911
 C      9   1   2     1.459269884298    93.41103726   232.56118443
 C     10   2   1     1.452915031246    94.44122946    77.40199504
 C      1   2   3     1.203817514077    70.35054475   328.31755346
 C      2   1   3     1.204903648049    76.51841105    84.39846162
 C      3   2   1     1.203299329147    68.91778559    29.81052119
 C      4   3   2     1.202038599711    76.97979631   337.30602367
 H     11   9   1     1.075883805503   122.11804338   172.61135461
 H     12  10   2     1.074752196307   121.40026150   183.27041819
 H     13   9   1     1.086576970278   110.31330992    54.25200089
 H     13   9   1     1.086819074416   113.41916016   174.87066922
 H     13   9   1     1.086071845961   114.19095574   296.28415904
 H     14  10   2     1.087445586194   108.64931526    58.60557802
 H     14  10   2     1.082814793477   115.43216454   180.98045191
 H     14  10   2     1.087166038515   110.95002279   302.16611636
 H      5   3   2     1.003120752393    88.12189122   122.97989952
 H      6   4   3     1.000319353542    89.66065979   218.86311922
 H      7   1   2     1.007936054810    89.46969428    67.81246544
 H      8   2   1     1.008335224748    88.35518219   243.23345712

---------------------------
INTERNAL COORDINATES (A.U.)
---------------------------
 O      0   0   0     0.000000000000     0.00000000     0.00000000
 O      1   0   0     7.144532592832     0.00000000     0.00000000
 O      2   1   0     7.387717157870    72.03287891     0.00000000
 O      3   2   1     7.718653718952    68.61066442   103.31539755
 N      3   2   1     4.248068659067    87.58143369    54.87682502
 N      4   3   2     4.213914357543   101.34349681   317.89165334
 N      1   2   3     4.261874104844    57.70500479     0.22413207
 N      2   1   3     4.253868357693    91.51221229    56.02176366
 C      1   2   3     4.402743116930    87.08660028   301.58673319
 C      2   1   3     4.458708252580    65.04555292   113.95554923
 C      9   1   2     2.538801167316   143.70345298    54.69326662
 C     10   2   1     2.535379615264   142.80681676   255.19872911
 C      9   1   2     2.757620436801    93.41103726   232.56118443
 C     10   2   1     2.745611504914    94.44122946    77.40199504
 C      1   2   3     2.274885416823    70.35054475   328.31755346
 C      2   1   3     2.276937912575    76.51841105    84.39846162
 C      3   2   1     2.273906189219    68.91778559    29.81052119
 C      4   3   2     2.271523755856    76.97979631   337.30602367
 H     11   9   1     2.033125744322   122.11804338   172.61135461
 H     12  10   2     2.030987312851   121.40026150   183.27041819
 H     13   9   1     2.053332897251   110.31330992    54.25200089
 H     13   9   1     2.053790407768   113.41916016   174.87066922
 H     13   9   1     2.052378350628   114.19095574   296.28415904
 H     14  10   2     2.054974343449   108.64931526    58.60557802
 H     14  10   2     2.046223413430   115.43216454   180.98045191
 H     14  10   2     2.054446074894   110.95002279   302.16611636
 H      5   3   2     1.895623501276    88.12189122   122.97989952
 H      6   4   3     1.890329624656    89.66065979   218.86311922
 H      7   1   2     1.904723104095    89.46969428    67.81246544
 H      8   2   1     1.905477425959    88.35518219   243.23345712

---------------------
BASIS SET INFORMATION
---------------------
There are 4 groups of distinct atoms

 Group   1 Type O   : 12s7p3d1f contracted to 6s4p3d1f pattern {621111/4111/111/1}
 Group   2 Type N   : 12s6p3d1f contracted to 6s3p3d1f pattern {621111/411/111/1}
 Group   3 Type C   : 12s6p3d1f contracted to 6s3p3d1f pattern {621111/411/111/1}
 Group   4 Type H   : 5s3p1d contracted to 3s3p1d pattern {311/111/1}

Atom   0O    basis set group =>   1
Atom   1O    basis set group =>   1
Atom   2O    basis set group =>   1
Atom   3O    basis set group =>   1
Atom   4N    basis set group =>   2
Atom   5N    basis set group =>   2
Atom   6N    basis set group =>   2
Atom   7N    basis set group =>   2
Atom   8C    basis set group =>   3
Atom   9C    basis set group =>   3
Atom  10C    basis set group =>   3
Atom  11C    basis set group =>   3
Atom  12C    basis set group =>   3
Atom  13C    basis set group =>   3
Atom  14C    basis set group =>   3
Atom  15C    basis set group =>   3
Atom  16C    basis set group =>   3
Atom  17C    basis set group =>   3
Atom  18H    basis set group =>   4
Atom  19H    basis set group =>   4
Atom  20H    basis set group =>   4
Atom  21H    basis set group =>   4
Atom  22H    basis set group =>   4
Atom  23H    basis set group =>   4
Atom  24H    basis set group =>   4
Atom  25H    basis set group =>   4
Atom  26H    basis set group =>   4
Atom  27H    basis set group =>   4
Atom  28H    basis set group =>   4
Atom  29H    basis set group =>   4
---------------------------------
AUXILIARY/J BASIS SET INFORMATION
---------------------------------
There are 4 groups of distinct atoms

 Group   1 Type O   : 12s5p4d2f1g contracted to 6s4p3d1f1g pattern {711111/2111/211/2/1}
 Group   2 Type N   : 12s5p4d2f1g contracted to 6s4p3d1f1g pattern {711111/2111/211/2/1}
 Group   3 Type C   : 12s5p4d2f1g contracted to 6s4p3d1f1g pattern {711111/2111/211/2/1}
 Group   4 Type H   : 5s2p1d contracted to 3s1p1d pattern {311/2/1}

Atom   0O    basis set group =>   1
Atom   1O    basis set group =>   1
Atom   2O    basis set group =>   1
Atom   3O    basis set group =>   1
Atom   4N    basis set group =>   2
Atom   5N    basis set group =>   2
Atom   6N    basis set group =>   2
Atom   7N    basis set group =>   2
Atom   8C    basis set group =>   3
Atom   9C    basis set group =>   3
Atom  10C    basis set group =>   3
Atom  11C    basis set group =>   3
Atom  12C    basis set group =>   3
Atom  13C    basis set group =>   3
Atom  14C    basis set group =>   3
Atom  15C    basis set group =>   3
Atom  16C    basis set group =>   3
Atom  17C    basis set group =>   3
Atom  18H    basis set group =>   4
Atom  19H    basis set group =>   4
Atom  20H    basis set group =>   4
Atom  21H    basis set group =>   4
Atom  22H    basis set group =>   4
Atom  23H    basis set group =>   4
Atom  24H    basis set group =>   4
Atom  25H    basis set group =>   4
Atom  26H    basis set group =>   4
Atom  27H    basis set group =>   4
Atom  28H    basis set group =>   4
Atom  29H    basis set group =>   4
[1741454235.520194] [ohm:2020988:0]        ib_iface.c:1059 UCX  ERROR ibv_create_cq(cqe=256) failed: Connection timed out
[1741454235.529386] [ohm:2020992:0]        ib_iface.c:1059 UCX  ERROR ibv_create_cq(cqe=256) failed: Connection timed out
[1741454235.536164] [ohm:2020987:0]        ib_iface.c:1059 UCX  ERROR ibv_create_cq(cqe=256) failed: Connection timed out
[1741454235.557756] [ohm:2020993:0]        ib_iface.c:1059 UCX  ERROR ibv_create_cq(cqe=256) failed: Connection timed out
[1741454235.560392] [ohm:2020990:0]        ib_iface.c:1059 UCX  ERROR ibv_create_cq(cqe=256) failed: Connection timed out
[1741454235.599394] [ohm:2021002:0]        ib_iface.c:1059 UCX  ERROR ibv_create_cq(cqe=256) failed: Connection timed out
[1741454235.610477] [ohm:2020998:0]        ib_iface.c:1059 UCX  ERROR ibv_create_cq(cqe=256) failed: Connection timed out
[1741454235.613167] [ohm:2020996:0]        ib_iface.c:1059 UCX  ERROR ibv_create_cq(cqe=256) failed: Connection timed out
[1741454235.670824] [ohm:2021005:0]        ib_iface.c:1059 UCX  ERROR ibv_create_cq(cqe=256) failed: Connection timed out
[1741454235.672383] [ohm:2021106:0]        ib_iface.c:1059 UCX  ERROR ibv_create_cq(cqe=256) failed: Connection timed out
[1741454235.678611] [ohm:2020999:0]        ib_iface.c:1059 UCX  ERROR ibv_create_cq(cqe=256) failed: Connection timed out
[1741454235.682829] [ohm:2021008:0]        ib_iface.c:1059 UCX  ERROR ibv_create_cq(cqe=256) failed: Connection timed out
[1741454235.707633] [ohm:2021121:0]        ib_iface.c:1059 UCX  ERROR ibv_create_cq(cqe=256) failed: Connection timed out
[1741454235.714069] [ohm:2021089:0]        ib_iface.c:1059 UCX  ERROR ibv_create_cq(cqe=256) failed: Connection timed out
[1741454235.725352] [ohm:2021075:0]        ib_iface.c:1059 UCX  ERROR ibv_create_cq(cqe=256) failed: Connection timed out
[1741454235.738078] [ohm:2021012:0]        ib_iface.c:1059 UCX  ERROR ibv_create_cq(cqe=256) failed: Connection timed out
[1741454235.738245] [ohm:2021125:0]        ib_iface.c:1059 UCX  ERROR ibv_create_cq(cqe=256) failed: Connection timed out
[1741454235.741042] [ohm:2021078:0]        ib_iface.c:1059 UCX  ERROR ibv_create_cq(cqe=256) failed: Connection timed out
[1741454235.748899] [ohm:2021102:0]        ib_iface.c:1059 UCX  ERROR ibv_create_cq(cqe=256) failed: Connection timed out
[1741454235.750679] [ohm:2021001:0]        ib_iface.c:1059 UCX  ERROR ibv_create_cq(cqe=256) failed: Connection timed out
[1741454235.750720] [ohm:2021091:0]        ib_iface.c:1059 UCX  ERROR ibv_create_cq(cqe=256) failed: Connection timed out
[1741454235.758167] [ohm:2021047:0]        ib_iface.c:1059 UCX  ERROR ibv_create_cq(cqe=256) failed: Connection timed out
[1741454235.763684] [ohm:2021003:0]        ib_iface.c:1059 UCX  ERROR ibv_create_cq(cqe=256) failed: Connection timed out
[1741454235.766598] [ohm:2021044:0]        ib_iface.c:1059 UCX  ERROR ibv_create_cq(cqe=256) failed: Connection timed out
[1741454235.769670] [ohm:2021034:0]        ib_iface.c:1059 UCX  ERROR ibv_create_cq(cqe=256) failed: Connection timed out
[1741454235.776596] [ohm:2021021:0]        ib_iface.c:1059 UCX  ERROR ibv_create_cq(cqe=256) failed: Connection timed out
[1741454235.781504] [ohm:2021128:0]        ib_iface.c:1059 UCX  ERROR ibv_create_cq(cqe=256) failed: Connection timed out
[1741454235.782917] [ohm:2021016:0]        ib_iface.c:1059 UCX  ERROR ibv_create_cq(cqe=256) failed: Connection timed out
[1741454235.786887] [ohm:2021108:0]        ib_iface.c:1059 UCX  ERROR ibv_create_cq(cqe=256) failed: Connection timed out
[1741454235.787357] [ohm:2021117:0]        ib_iface.c:1059 UCX  ERROR ibv_create_cq(cqe=256) failed: Connection timed out
[1741454235.790075] [ohm:2021062:0]        ib_iface.c:1059 UCX  ERROR ibv_create_cq(cqe=256) failed: Connection timed out
[1741454235.793139] [ohm:2021014:0]        ib_iface.c:1059 UCX  ERROR ibv_create_cq(cqe=256) failed: Connection timed out
[1741454235.812141] [ohm:2021114:0]        ib_iface.c:1059 UCX  ERROR ibv_create_cq(cqe=256) failed: Connection timed out
[1741454235.812785] [ohm:2021097:0]        ib_iface.c:1059 UCX  ERROR ibv_create_cq(cqe=256) failed: Connection timed out
[1741454235.819791] [ohm:2021080:0]        ib_iface.c:1059 UCX  ERROR ibv_create_cq(cqe=256) failed: Connection timed out
[1741454235.826157] [ohm:2021037:0]        ib_iface.c:1059 UCX  ERROR ibv_create_cq(cqe=256) failed: Connection timed out
[1741454235.839294] [ohm:2021009:0]        ib_iface.c:1059 UCX  ERROR ibv_create_cq(cqe=256) failed: Connection timed out
[1741454235.840596] [ohm:2021056:0]        ib_iface.c:1059 UCX  ERROR ibv_create_cq(cqe=256) failed: Connection timed out
[1741454235.840899] [ohm:2021013:0]        ib_iface.c:1059 UCX  ERROR ibv_create_cq(cqe=256) failed: Connection timed out
[1741454235.845579] [ohm:2021074:0]        ib_iface.c:1059 UCX  ERROR ibv_create_cq(cqe=256) failed: Connection timed out
[1741454235.852126] [ohm:2021111:0]        ib_iface.c:1059 UCX  ERROR ibv_create_cq(cqe=256) failed: Connection timed out
[1741454235.853569] [ohm:2021011:0]        ib_iface.c:1059 UCX  ERROR ibv_create_cq(cqe=256) failed: Connection timed out
[1741454235.857736] [ohm:2021040:0]        ib_iface.c:1059 UCX  ERROR ibv_create_cq(cqe=256) failed: Connection timed out
[1741454235.858419] [ohm:2021054:0]        ib_iface.c:1059 UCX  ERROR ibv_create_cq(cqe=256) failed: Connection timed out
[1741454235.861495] [ohm:2021099:0]        ib_iface.c:1059 UCX  ERROR ibv_create_cq(cqe=256) failed: Connection timed out
[1741454235.864375] [ohm:2021023:0]        ib_iface.c:1059 UCX  ERROR ibv_create_cq(cqe=256) failed: Connection timed out
[1741454235.866340] [ohm:2020989:0]        ib_iface.c:1059 UCX  ERROR ibv_create_cq(cqe=256) failed: Connection timed out
[1741454235.866830] [ohm:2021084:0]        ib_iface.c:1059 UCX  ERROR ibv_create_cq(cqe=256) failed: Connection timed out
[1741454235.883231] [ohm:2021017:0]        ib_iface.c:1059 UCX  ERROR ibv_create_cq(cqe=256) failed: Connection timed out
[1741454235.886857] [ohm:2021069:0]        ib_iface.c:1059 UCX  ERROR ibv_create_cq(cqe=256) failed: Connection timed out
[1741454235.894351] [ohm:2021130:0]        ib_iface.c:1059 UCX  ERROR ibv_create_cq(cqe=256) failed: Connection timed out
[1741454235.894902] [ohm:2021006:0]        ib_iface.c:1059 UCX  ERROR ibv_create_cq(cqe=256) failed: Connection timed out
[1741454235.895881] [ohm:2021029:0]        ib_iface.c:1059 UCX  ERROR ibv_create_cq(cqe=256) failed: Connection timed out
[1741454235.896947] [ohm:2020995:0]        ib_iface.c:1059 UCX  ERROR ibv_create_cq(cqe=256) failed: Connection timed out
[1741454235.897945] [ohm:2021000:0]        ib_iface.c:1059 UCX  ERROR ibv_create_cq(cqe=256) failed: Connection timed out
[1741454235.899645] [ohm:2021004:0]        ib_iface.c:1059 UCX  ERROR ibv_create_cq(cqe=256) failed: Connection timed out
[1741454235.901856] [ohm:2020997:0]        ib_iface.c:1059 UCX  ERROR ibv_create_cq(cqe=256) failed: Connection timed out
[1741454235.901798] [ohm:2021010:0]        ib_iface.c:1059 UCX  ERROR ibv_create_cq(cqe=256) failed: Connection timed out
[1741454235.902117] [ohm:2021027:0]        ib_iface.c:1059 UCX  ERROR ibv_create_cq(cqe=256) failed: Connection timed out
[1741454235.902878] [ohm:2020991:0]        ib_iface.c:1059 UCX  ERROR ibv_create_cq(cqe=256) failed: Connection timed out
[1741454235.903725] [ohm:2021007:0]        ib_iface.c:1059 UCX  ERROR ibv_create_cq(cqe=256) failed: Connection timed out
[1741454235.904928] [ohm:2020994:0]        ib_iface.c:1059 UCX  ERROR ibv_create_cq(cqe=256) failed: Connection timed out
[1741454235.905898] [ohm:2021067:0]        ib_iface.c:1059 UCX  ERROR ibv_create_cq(cqe=256) failed: Connection timed out
[1741454235.906047] [ohm:2021046:0]        ib_iface.c:1059 UCX  ERROR ibv_create_cq(cqe=256) failed: Connection timed out


           ************************************************************
           *        Program running with 64 parallel MPI-processes    *
           *              working on a common directory               *
           ************************************************************
------------------------------------------------------------------------------
                             ORCA STARTUP CALCULATIONS
                           -- RI-GTO INTEGRALS CHOSEN --
------------------------------------------------------------------------------
------------------------------------------------------------------------------
                   ___                                                        
                  /   \      - P O W E R E D   B Y -                         
                 /     \                                                     
                 |  |  |   _    _      __       _____    __    __             
                 |  |  |  | |  | |    /  \     |  _  \  |  |  /  |          
                  \  \/   | |  | |   /    \    | | | |  |  | /  /          
                 / \  \   | |__| |  /  /\  \   | |_| |  |  |/  /          
                |  |  |   |  __  | /  /__\  \  |    /   |      \           
                |  |  |   | |  | | |   __   |  |    \   |  |\   \          
                \     /   | |  | | |  |  |  |  | |\  \  |  | \   \       
                 \___/    |_|  |_| |__|  |__|  |_| \__\ |__|  \__/        
                                                                              
                      - O R C A' S   B I G   F R I E N D -                    
                                      &                                       
                       - I N T E G R A L  F E E D E R -                       
                                                                              
 v1 FN, 2020, v2 2021, v3 2022-2024                                           
------------------------------------------------------------------------------


----------------------
SHARK INTEGRAL PACKAGE
----------------------

Number of atoms                             ...     30
Number of basis functions                   ...    882
Number of shells                            ...    322
Maximum angular momentum                    ...      3
Integral batch strategy                     ... SHARK/LIBINT Hybrid
RI-J (if used) integral strategy            ... SPLIT-RIJ (Revised 2003 algorithm where possible)
Printlevel                                  ...      1
Contraction scheme used                     ... SEGMENTED contraction
Prescreening option                         ... SCHWARTZ
   Thresh                                   ... 2.500e-11
   Tcut                                     ... 2.500e-12
   Tpresel                                  ... 2.500e-12 
Coulomb Range Separation                    ... NOT USED
Exchange Range Separation                   ... Long Range
   Mu parameter                             ... 3.000e-01
   Scaling (regular/separated)              ... 1.500e-01 8.500e-01
Multipole approximations                    ... NOT USED
Finite Nucleus Model                        ... NOT USED
CABS basis                                  ... NOT available
Auxiliary Coulomb fitting basis             ... AVAILABLE
   # of basis functions in Aux-J            ...   1014
   # of shells in Aux-J                     ...    330
   Maximum angular momentum in Aux-J        ...      4
Auxiliary J/K fitting basis                 ... NOT available
Auxiliary Correlation fitting basis         ... NOT available
Auxiliary 'external' fitting basis          ... NOT available

Checking pre-screening integrals            ... done (  0.0 sec) Dimension = 322
Check shell pair data                       ... done (  0.0 sec)
Shell pair information
Shell pair cut-off parameter TPreSel        ...   2.5e-12
Total number of shell pairs                 ...     52003
Shell pairs after pre-screening             ...     45324
Total number of primitive shell pairs       ...    129718
Primitive shell pairs kept                  ...     84405
          la=0 lb=0:   8759 shell pairs
          la=1 lb=0:  11965 shell pairs
          la=1 lb=1:   4135 shell pairs
          la=2 lb=0:   8147 shell pairs
          la=2 lb=1:   5631 shell pairs
          la=2 lb=2:   1942 shell pairs
          la=3 lb=0:   2071 shell pairs
          la=3 lb=1:   1500 shell pairs
          la=3 lb=2:   1028 shell pairs
          la=3 lb=3:    146 shell pairs

Calculating one electron integrals          ... done (  0.2 sec)
Calculating RI/J V-Matrix + Cholesky decomp.... done (  0.0 sec)
Calculating Nuclear repulsion               ... done (  0.0 sec) ENN=   1461.466063477324 Eh

Diagonalization of the overlap matrix:
Smallest eigenvalue                        ... 4.628e-07
Time for diagonalization                   ...    0.129 sec
Threshold for overlap eigenvalues          ... 1.000e-07
Number of eigenvalues below threshold      ... 0

IMPORTANT:
Smallest eigenvalue of S below the DiffSThresh (1.000e-06) while
Thresh>1e-12 and/or TCut>1e-13! In order to avoid SCF convergence issues,
Thresh will be set to at least 1e-12 and TCut to at least 1e-13.
This can be turned off by adding %SCF DiffSThresh -1 END to the input.

Time for construction of square roots      ...    0.133 sec
Total time needed                          ...    0.274 sec

-------------------
DFT GRID GENERATION
-------------------

General Integration Accuracy     IntAcc      ... 4.388
Radial Grid Type                 RadialGrid  ... OptM3 with GC (2021)
Angular Grid (max. ang.)         AngularGrid ... 4 (Lebedev-302)
Angular grid pruning method      GridPruning ... 4 (adaptive)
Weight generation scheme         WeightScheme... mBecke (2022)
Basis function cutoff            BFCut       ... 1.0000e-11
Integration weight cutoff        WCut        ... 1.0000e-14
Partially contracted basis set               ... off
Rotationally invariant grid construction     ... off
Angular grids for H and He will be reduced by one unit
Diffuse basis detected: some atoms will have their outermost
                        angular grid increased by 1.

Total number of grid points                  ...   152099
Total number of batches                      ...     2391
Average number of points per batch           ...       63
Average number of grid points per atom       ...     5070

--------------------
COSX GRID GENERATION
--------------------

GRIDX 1
-------
General Integration Accuracy     IntAcc      ... 3.816
Radial Grid Type                 RadialGrid  ... OptM3 with GC (2021)
Angular Grid (max. ang.)         AngularGrid ... 1 (Lebedev-50)
Angular grid pruning method      GridPruning ... 4 (adaptive)
Weight generation scheme         WeightScheme... mBecke (2022)
Basis function cutoff            BFCut       ... 1.0000e-11
Integration weight cutoff        WCut        ... 1.0000e-14
Partially contracted basis set               ... on
Rotationally invariant grid construction     ... off
Angular grids for H and He will be reduced by one unit
Diffuse basis detected: some atoms will have their outermost
                        angular grid increased by 1.

Total number of grid points                  ...    19043
Total number of batches                      ...      165
Average number of points per batch           ...      115
Average number of grid points per atom       ...      635
UseSFitting                                  ... on

GRIDX 2
-------
General Integration Accuracy     IntAcc      ... 4.020
Radial Grid Type                 RadialGrid  ... OptM3 with GC (2021)
Angular Grid (max. ang.)         AngularGrid ... 2 (Lebedev-110)
Angular grid pruning method      GridPruning ... 4 (adaptive)
Weight generation scheme         WeightScheme... mBecke (2022)
Basis function cutoff            BFCut       ... 1.0000e-11
Integration weight cutoff        WCut        ... 1.0000e-14
Partially contracted basis set               ... on
Rotationally invariant grid construction     ... off
Angular grids for H and He will be reduced by one unit
Diffuse basis detected: some atoms will have their outermost
                        angular grid increased by 1.

Total number of grid points                  ...    45862
Total number of batches                      ...      377
Average number of points per batch           ...      121
Average number of grid points per atom       ...     1529
UseSFitting                                  ... on

GRIDX 3
-------
General Integration Accuracy     IntAcc      ... 4.338
Radial Grid Type                 RadialGrid  ... OptM3 with GC (2021)
Angular Grid (max. ang.)         AngularGrid ... 3 (Lebedev-194)
Angular grid pruning method      GridPruning ... 4 (adaptive)
Weight generation scheme         WeightScheme... mBecke (2022)
Basis function cutoff            BFCut       ... 1.0000e-11
Integration weight cutoff        WCut        ... 1.0000e-14
Partially contracted basis set               ... on
Rotationally invariant grid construction     ... off
Angular grids for H and He will be reduced by one unit
Diffuse basis detected: some atoms will have their outermost
                        angular grid increased by 1.

Total number of grid points                  ...   101022
Total number of batches                      ...      804
Average number of points per batch           ...      125
Average number of grid points per atom       ...     3367
UseSFitting                                  ... on
Initializing property integral containers    ... done (  0.0 sec)

SHARK setup successfully completed in   4.2 seconds

Maximum memory used throughout the entire STARTUP-calculation: 80.4 MB
[1741454241.990777] [ohm:2021358:0]        ib_iface.c:1059 UCX  ERROR ibv_create_cq(cqe=256) failed: Connection timed out
[1741454241.997591] [ohm:2021368:0]        ib_iface.c:1059 UCX  ERROR ibv_create_cq(cqe=256) failed: Connection timed out
[1741454242.048120] [ohm:2021357:0]        ib_iface.c:1059 UCX  ERROR ibv_create_cq(cqe=256) failed: Connection timed out
[1741454242.062499] [ohm:2021375:0]        ib_iface.c:1059 UCX  ERROR ibv_create_cq(cqe=256) failed: Connection timed out
[1741454242.066923] [ohm:2021366:0]        ib_iface.c:1059 UCX  ERROR ibv_create_cq(cqe=256) failed: Connection timed out
[1741454242.071239] [ohm:2021371:0]        ib_iface.c:1059 UCX  ERROR ibv_create_cq(cqe=256) failed: Connection timed out
[1741454242.074191] [ohm:2021360:0]        ib_iface.c:1059 UCX  ERROR ibv_create_cq(cqe=256) failed: Connection timed out
[1741454242.099599] [ohm:2021406:0]        ib_iface.c:1059 UCX  ERROR ibv_create_cq(cqe=256) failed: Connection timed out
[1741454242.105145] [ohm:2021362:0]        ib_iface.c:1059 UCX  ERROR ibv_create_cq(cqe=256) failed: Connection timed out
[1741454242.108953] [ohm:2021367:0]        ib_iface.c:1059 UCX  ERROR ibv_create_cq(cqe=256) failed: Connection timed out
[1741454242.109242] [ohm:2021370:0]        ib_iface.c:1059 UCX  ERROR ibv_create_cq(cqe=256) failed: Connection timed out
[1741454242.111861] [ohm:2021356:0]        ib_iface.c:1059 UCX  ERROR ibv_create_cq(cqe=256) failed: Connection timed out
[1741454242.115257] [ohm:2021361:0]        ib_iface.c:1059 UCX  ERROR ibv_create_cq(cqe=256) failed: Connection timed out
[1741454242.118368] [ohm:2021363:0]        ib_iface.c:1059 UCX  ERROR ibv_create_cq(cqe=256) failed: Connection timed out
[1741454242.147173] [ohm:2021382:0]        ib_iface.c:1059 UCX  ERROR ibv_create_cq(cqe=256) failed: Connection timed out
[1741454242.160661] [ohm:2021369:0]        ib_iface.c:1059 UCX  ERROR ibv_create_cq(cqe=256) failed: Connection timed out
[1741454242.162754] [ohm:2021381:0]        ib_iface.c:1059 UCX  ERROR ibv_create_cq(cqe=256) failed: Connection timed out
[1741454242.170183] [ohm:2021452:0]        ib_iface.c:1059 UCX  ERROR ibv_create_cq(cqe=256) failed: Connection timed out
[1741454242.197129] [ohm:2021365:0]        ib_iface.c:1059 UCX  ERROR ibv_create_cq(cqe=256) failed: Connection timed out
[1741454242.204852] [ohm:2021389:0]        ib_iface.c:1059 UCX  ERROR ibv_create_cq(cqe=256) failed: Connection timed out
[1741454242.209226] [ohm:2021426:0]        ib_iface.c:1059 UCX  ERROR ibv_create_cq(cqe=256) failed: Connection timed out
[1741454242.222018] [ohm:2021359:0]        ib_iface.c:1059 UCX  ERROR ibv_create_cq(cqe=256) failed: Connection timed out
[1741454242.222777] [ohm:2021386:0]        ib_iface.c:1059 UCX  ERROR ibv_create_cq(cqe=256) failed: Connection timed out
[1741454242.223165] [ohm:2021393:0]        ib_iface.c:1059 UCX  ERROR ibv_create_cq(cqe=256) failed: Connection timed out
[1741454242.229044] [ohm:2021461:0]        ib_iface.c:1059 UCX  ERROR ibv_create_cq(cqe=256) failed: Connection timed out
[1741454242.230249] [ohm:2021410:0]        ib_iface.c:1059 UCX  ERROR ibv_create_cq(cqe=256) failed: Connection timed out
[1741454242.266389] [ohm:2021431:0]        ib_iface.c:1059 UCX  ERROR ibv_create_cq(cqe=256) failed: Connection timed out
[1741454242.277284] [ohm:2021364:0]        ib_iface.c:1059 UCX  ERROR ibv_create_cq(cqe=256) failed: Connection timed out
[1741454242.279342] [ohm:2021439:0]        ib_iface.c:1059 UCX  ERROR ibv_create_cq(cqe=256) failed: Connection timed out
[1741454242.281580] [ohm:2021400:0]        ib_iface.c:1059 UCX  ERROR ibv_create_cq(cqe=256) failed: Connection timed out
[1741454242.293715] [ohm:2021374:0]        ib_iface.c:1059 UCX  ERROR ibv_create_cq(cqe=256) failed: Connection timed out
[1741454242.298268] [ohm:2021487:0]        ib_iface.c:1059 UCX  ERROR ibv_create_cq(cqe=256) failed: Connection timed out
[1741454242.301028] [ohm:2021474:0]        ib_iface.c:1059 UCX  ERROR ibv_create_cq(cqe=256) failed: Connection timed out
[1741454242.302105] [ohm:2021404:0]        ib_iface.c:1059 UCX  ERROR ibv_create_cq(cqe=256) failed: Connection timed out
[1741454242.302846] [ohm:2021415:0]        ib_iface.c:1059 UCX  ERROR ibv_create_cq(cqe=256) failed: Connection timed out
[1741454242.307197] [ohm:2021449:0]        ib_iface.c:1059 UCX  ERROR ibv_create_cq(cqe=256) failed: Connection timed out
[1741454242.315740] [ohm:2021385:0]        ib_iface.c:1059 UCX  ERROR ibv_create_cq(cqe=256) failed: Connection timed out
[1741454242.317045] [ohm:2021483:0]        ib_iface.c:1059 UCX  ERROR ibv_create_cq(cqe=256) failed: Connection timed out
[1741454242.319619] [ohm:2021501:0]        ib_iface.c:1059 UCX  ERROR ibv_create_cq(cqe=256) failed: Connection timed out
[1741454242.321839] [ohm:2021442:0]        ib_iface.c:1059 UCX  ERROR ibv_create_cq(cqe=256) failed: Connection timed out
[1741454242.326827] [ohm:2021372:0]        ib_iface.c:1059 UCX  ERROR ibv_create_cq(cqe=256) failed: Connection timed out
[1741454242.336287] [ohm:2021376:0]        ib_iface.c:1059 UCX  ERROR ibv_create_cq(cqe=256) failed: Connection timed out
[1741454242.343087] [ohm:2021507:0]        ib_iface.c:1059 UCX  ERROR ibv_create_cq(cqe=256) failed: Connection timed out
[1741454242.344465] [ohm:2021422:0]        ib_iface.c:1059 UCX  ERROR ibv_create_cq(cqe=256) failed: Connection timed out
[1741454242.346161] [ohm:2021377:0]        ib_iface.c:1059 UCX  ERROR ibv_create_cq(cqe=256) failed: Connection timed out
[1741454242.349503] [ohm:2021418:0]        ib_iface.c:1059 UCX  ERROR ibv_create_cq(cqe=256) failed: Connection timed out
[1741454242.350858] [ohm:2021468:0]        ib_iface.c:1059 UCX  ERROR ibv_create_cq(cqe=256) failed: Connection timed out
[1741454242.353861] [ohm:2021459:0]        ib_iface.c:1059 UCX  ERROR ibv_create_cq(cqe=256) failed: Connection timed out
[1741454242.362865] [ohm:2021445:0]        ib_iface.c:1059 UCX  ERROR ibv_create_cq(cqe=256) failed: Connection timed out
[1741454242.364718] [ohm:2021412:0]        ib_iface.c:1059 UCX  ERROR ibv_create_cq(cqe=256) failed: Connection timed out
[1741454242.369166] [ohm:2021463:0]        ib_iface.c:1059 UCX  ERROR ibv_create_cq(cqe=256) failed: Connection timed out
[1741454242.373797] [ohm:2021471:0]        ib_iface.c:1059 UCX  ERROR ibv_create_cq(cqe=256) failed: Connection timed out
[1741454242.375783] [ohm:2021478:0]        ib_iface.c:1059 UCX  ERROR ibv_create_cq(cqe=256) failed: Connection timed out
[1741454242.377270] [ohm:2021493:0]        ib_iface.c:1059 UCX  ERROR ibv_create_cq(cqe=256) failed: Connection timed out
[1741454242.377851] [ohm:2021380:0]        ib_iface.c:1059 UCX  ERROR ibv_create_cq(cqe=256) failed: Connection timed out
[1741454242.383585] [ohm:2021378:0]        ib_iface.c:1059 UCX  ERROR ibv_create_cq(cqe=256) failed: Connection timed out
[1741454242.384085] [ohm:2021397:0]        ib_iface.c:1059 UCX  ERROR ibv_create_cq(cqe=256) failed: Connection timed out
[1741454242.386265] [ohm:2021454:0]        ib_iface.c:1059 UCX  ERROR ibv_create_cq(cqe=256) failed: Connection timed out
[1741454242.386634] [ohm:2021489:0]        ib_iface.c:1059 UCX  ERROR ibv_create_cq(cqe=256) failed: Connection timed out
[1741454242.386816] [ohm:2021435:0]        ib_iface.c:1059 UCX  ERROR ibv_create_cq(cqe=256) failed: Connection timed out
[1741454242.386942] [ohm:2021379:0]        ib_iface.c:1059 UCX  ERROR ibv_create_cq(cqe=256) failed: Connection timed out
[1741454242.388773] [ohm:2021480:0]        ib_iface.c:1059 UCX  ERROR ibv_create_cq(cqe=256) failed: Connection timed out
[1741454242.389643] [ohm:2021373:0]        ib_iface.c:1059 UCX  ERROR ibv_create_cq(cqe=256) failed: Connection timed out
[1741454242.391062] [ohm:2021497:0]        ib_iface.c:1059 UCX  ERROR ibv_create_cq(cqe=256) failed: Connection timed out


           ************************************************************
           *        Program running with 64 parallel MPI-processes    *
           *              working on a common directory               *
           ************************************************************
-------------------------------------------------------------------------------
                                 ORCA GUESS
                   Start orbitals & Density for SCF / CASSCF
-------------------------------------------------------------------------------

------------
SCF SETTINGS
------------
Hamiltonian:
 Density Functional     Method          .... DFT(GTOs)
  Functional kind                       .... Exchange-Correlation
  Functional name                       .... wB97M-V exchange-correlation functional
  Functional family                     .... Hybrid MGGA
  Functional refs                              
    [ 0] N. Mardirossian and M. Head-Gordon.,  J. Chem. Phys. 144, 214110 (2016), doi: 10.1063/1.4952647
  Fraction of HF Exchange (short range) .... 0.1500
  Fraction of HF Exchange (long range)  .... 1.0000
  Range separation parameter mu         .... 0.3000
  Functional external parameters        .... 17
    Parameter  0 _cx00      =  8.500000e-01 : u^00 coefficient for exchange
    Parameter  1 _cx01      =  1.007000e+00 : u^01 coefficient for exchange
    Parameter  2 _cx10      =  2.590000e-01 : u^10 coefficient for exchange
    Parameter  3 _css00     =  4.430000e-01 : u^00 coefficient for same-spin correlation
    Parameter  4 _css04     = -1.437000e+00 : u^04 coefficient for same-spin correlation
    Parameter  5 _css10     = -4.535000e+00 : u^10 coefficient for same-spin correlation
    Parameter  6 _css20     = -3.390000e+00 : u^20 coefficient for same-spin correlation
    Parameter  7 _css43     =  4.278000e+00 : u^43 coefficient for same-spin correlation
    Parameter  8 _cos00     =  1.000000e+00 : u^00 coefficient for opposite-spin correlation
    Parameter  9 _cos10     =  1.358000e+00 : u^10 coefficient for opposite-spin correlation
    Parameter 10 _cos20     =  2.924000e+00 : u^20 coefficient for opposite-spin correlation
    Parameter 11 _cos21     = -8.812000e+00 : u^21 coefficient for opposite-spin correlation
    Parameter 12 _cos60     = -1.390000e+00 : u^60 coefficient for opposite-spin correlation
    Parameter 13 _cos61     =  9.142000e+00 : u^61 coefficient for opposite-spin correlation
    Parameter 14 _alpha     =  1.000000e+00 : fraction of HF exchange
    Parameter 15 _beta      = -8.500000e-01 : fraction of short-range exchange
    Parameter 16 _omega     =  3.000000e-01 : range-separation constant
 Long-range corrected/Screened/Range-Separated Hybrid DFT is turned on
   Amount of maximum screened exact exchange              ....  0.850000
   Range separation parameter mu (erf(mu*r12)/r12)        ....  0.300000
 RI-approximation to the Coulomb term is turned on
   Number of AuxJ basis functions       .... 1014
   RIJ-COSX (HFX calculated with COS-X)).... on


General Settings:
 Integral files         IntName         .... orca
 Hartree-Fock type      HFTyp           .... UHF
 Total Charge           Charge          ....    0
 Multiplicity           Mult            ....    3
 Number of Electrons    NEL             ....  132
 Basis Dimension        Dim             ....  882
 Nuclear Repulsion      ENuc            ....   1461.4660634773 Eh

Convergence Acceleration:
 AO-DIIS                CNVDIIS         .... on
   Start iteration      DIISMaxIt       ....    12
   Startup error        DIISStart       ....  0.200000
   # of expansion vecs  DIISMaxEq       ....     5
   Bias factor          DIISBfac        ....   1.050
   Max. coefficient     DIISMaxC        ....  10.000
 MO-DIIS                CNVKDIIS        .... off
 Trust-Rad. Augm. Hess. CNVTRAH         .... auto
   Auto Start mean grad. ratio tolernc. ....  1.125000
   Auto Start start iteration           ....    50
   Auto Start num. interpolation iter.  ....    10
   Max. Number of Micro iterations      ....    24
   Max. Number of Macro iterations      .... Maxiter - #DIIS iter
   Number of Davidson start vectors     ....     2
   Converg. threshold    (grad. norm)   ....   1.000e-05
   Grad. Scal. Fac. for Micro threshold ....   0.100
   Minimum threshold for Micro iter.    ....   1.000e-02
   NR start threshold (gradient norm)   ....   1.000e-04
   Initial trust radius                 ....   0.400
   Minimum AH scaling param. (alpha)    ....   1.000
   Maximum AH scaling param. (alpha)    .... 1000.000
   Quad. conv. algorithm                .... NR
   White noise on init. David. guess    .... on
   Maximum white noise                  ....   0.010
   Pseudo random numbers                .... off
   Inactive MOs                         .... canonical
   Orbital update algorithm             .... Taylor
   Preconditioner                       .... Diag
   Full preconditioner red. dimension   ....   250
 SOSCF                  CNVSOSCF        .... on
   Start iteration      SOSCFMaxIt      ....   150
   Startup grad/error   SOSCFStart      ....  0.003300
   Hessian update       SOSCFHessUp     .... L-BFGS
 Level Shifting         CNVShift        .... on
   Level shift para.    LevelShift      ....    0.2500
   Turn off err/grad.   ShiftErr        ....    0.0010
 Zerner damping         CNVZerner       .... off
 Static damping         CNVDamp         .... on
   Fraction old density DampFac         ....    0.7000
   Max. Damping (<1)    DampMax         ....    0.9800
   Min. Damping (>=0)   DampMin         ....    0.0000
   Turn off err/grad.   DampErr         ....    0.1000

SCF Procedure:
 Maximum # iterations   MaxIter         ....   125
 SCF integral mode      SCFMode         .... Direct
   Integral package                     .... SHARK and LIBINT hybrid scheme
 Reset frequency        DirectResetFreq ....    20
 Integral Threshold     Thresh          ....  1.000e-12 Eh
 Primitive CutOff       TCut            ....  1.000e-13 Eh

Convergence Tolerance:
 Convergence Check Mode ConvCheckMode   .... Total+1el-Energy
 Convergence forced     ConvForced      .... 1
 Energy Change          TolE            ....  1.000e-08 Eh
 1-El. energy change                    ....  1.000e-05 Eh
 Orbital Gradient       TolG            ....  1.000e-05
 Orbital Rotation angle TolX            ....  1.000e-05
 DIIS Error             TolErr          ....  5.000e-07

------------------------------
INITIAL GUESS: MODEL POTENTIAL
------------------------------
Loading Hartree-Fock densities                     ... done
Calculating cut-offs                               ... done
Initializing the effective Hamiltonian             ... done
Setting up the integral package (SHARK)            ... done
Starting the Coulomb interaction                   ... done (   0.1 sec)
Making the grid                                    ... done (   0.2 sec)
Mapping shells                                     ... done
Starting the XC term evaluation                    ... done (   0.1 sec)
  promolecular density results
     # of electrons  =    132.006070101
     EX              =   -113.692579428
     EC              =     -4.492572340
     EX+EC           =   -118.185151768
Transforming the Hamiltonian                       ... done (   0.1 sec)
Diagonalizing the Hamiltonian                      ... done (   0.1 sec)
Back transforming the eigenvectors                 ... done (   0.1 sec)
Now organizing SCF variables                       ... done
                      ------------------
                      INITIAL GUESS DONE (   1.1 sec)
                      ------------------
             **** ENERGY FILE WAS UPDATED (orca.en.tmp) ****
Finished Guess after   3.7 sec
Maximum memory used throughout the entire GUESS-calculation: 72.8 MB
[1741454246.211483] [ohm:2021707:0]        ib_iface.c:1059 UCX  ERROR ibv_create_cq(cqe=256) failed: Connection timed out
[1741454246.214445] [ohm:2021708:0]        ib_iface.c:1059 UCX  ERROR ibv_create_cq(cqe=256) failed: Connection timed out
[1741454246.214822] [ohm:2021709:0]        ib_iface.c:1059 UCX  ERROR ibv_create_cq(cqe=256) failed: Connection timed out
[1741454246.246425] [ohm:2021718:0]        ib_iface.c:1059 UCX  ERROR ibv_create_cq(cqe=256) failed: Connection timed out
[1741454246.268575] [ohm:2021713:0]        ib_iface.c:1059 UCX  ERROR ibv_create_cq(cqe=256) failed: Connection timed out
[1741454246.274390] [ohm:2021726:0]        ib_iface.c:1059 UCX  ERROR ibv_create_cq(cqe=256) failed: Connection timed out
[1741454246.299050] [ohm:2021719:0]        ib_iface.c:1059 UCX  ERROR ibv_create_cq(cqe=256) failed: Connection timed out
[1741454246.300692] [ohm:2021714:0]        ib_iface.c:1059 UCX  ERROR ibv_create_cq(cqe=256) failed: Connection timed out
[1741454246.304818] [ohm:2021715:0]        ib_iface.c:1059 UCX  ERROR ibv_create_cq(cqe=256) failed: Connection timed out
[1741454246.308230] [ohm:2021728:0]        ib_iface.c:1059 UCX  ERROR ibv_create_cq(cqe=256) failed: Connection timed out
[1741454246.309748] [ohm:2021723:0]        ib_iface.c:1059 UCX  ERROR ibv_create_cq(cqe=256) failed: Connection timed out
[1741454246.322279] [ohm:2021724:0]        ib_iface.c:1059 UCX  ERROR ibv_create_cq(cqe=256) failed: Connection timed out
[1741454246.339310] [ohm:2021727:0]        ib_iface.c:1059 UCX  ERROR ibv_create_cq(cqe=256) failed: Connection timed out
[1741454246.340699] [ohm:2021722:0]        ib_iface.c:1059 UCX  ERROR ibv_create_cq(cqe=256) failed: Connection timed out
[1741454246.344915] [ohm:2021786:0]        ib_iface.c:1059 UCX  ERROR ibv_create_cq(cqe=256) failed: Connection timed out
[1741454246.350832] [ohm:2021784:0]        ib_iface.c:1059 UCX  ERROR ibv_create_cq(cqe=256) failed: Connection timed out
[1741454246.370150] [ohm:2021798:0]        ib_iface.c:1059 UCX  ERROR ibv_create_cq(cqe=256) failed: Connection timed out
[1741454246.373359] [ohm:2021748:0]        ib_iface.c:1059 UCX  ERROR ibv_create_cq(cqe=256) failed: Connection timed out
[1741454246.413936] [ohm:2021774:0]        ib_iface.c:1059 UCX  ERROR ibv_create_cq(cqe=256) failed: Connection timed out
[1741454246.415592] [ohm:2021753:0]        ib_iface.c:1059 UCX  ERROR ibv_create_cq(cqe=256) failed: Connection timed out
[1741454246.427772] [ohm:2021790:0]        ib_iface.c:1059 UCX  ERROR ibv_create_cq(cqe=256) failed: Connection timed out
[1741454246.461796] [ohm:2021716:0]        ib_iface.c:1059 UCX  ERROR ibv_create_cq(cqe=256) failed: Connection timed out
[1741454246.469181] [ohm:2021777:0]        ib_iface.c:1059 UCX  ERROR ibv_create_cq(cqe=256) failed: Connection timed out
[1741454246.476124] [ohm:2021755:0]        ib_iface.c:1059 UCX  ERROR ibv_create_cq(cqe=256) failed: Connection timed out
[1741454246.479811] [ohm:2021746:0]        ib_iface.c:1059 UCX  ERROR ibv_create_cq(cqe=256) failed: Connection timed out
[1741454246.480382] [ohm:2021802:0]        ib_iface.c:1059 UCX  ERROR ibv_create_cq(cqe=256) failed: Connection timed out
[1741454246.480729] [ohm:2021712:0]        ib_iface.c:1059 UCX  ERROR ibv_create_cq(cqe=256) failed: Connection timed out
[1741454246.484769] [ohm:2021793:0]        ib_iface.c:1059 UCX  ERROR ibv_create_cq(cqe=256) failed: Connection timed out
[1741454246.487639] [ohm:2021803:0]        ib_iface.c:1059 UCX  ERROR ibv_create_cq(cqe=256) failed: Connection timed out
[1741454246.488337] [ohm:2021717:0]        ib_iface.c:1059 UCX  ERROR ibv_create_cq(cqe=256) failed: Connection timed out
[1741454246.505845] [ohm:2021796:0]        ib_iface.c:1059 UCX  ERROR ibv_create_cq(cqe=256) failed: Connection timed out
[1741454246.510029] [ohm:2021720:0]        ib_iface.c:1059 UCX  ERROR ibv_create_cq(cqe=256) failed: Connection timed out
[1741454246.520414] [ohm:2021721:0]        ib_iface.c:1059 UCX  ERROR ibv_create_cq(cqe=256) failed: Connection timed out
[1741454246.524423] [ohm:2021725:0]        ib_iface.c:1059 UCX  ERROR ibv_create_cq(cqe=256) failed: Connection timed out
[1741454246.531311] [ohm:2021820:0]        ib_iface.c:1059 UCX  ERROR ibv_create_cq(cqe=256) failed: Connection timed out
[1741454246.536776] [ohm:2021826:0]        ib_iface.c:1059 UCX  ERROR ibv_create_cq(cqe=256) failed: Connection timed out
[1741454246.536943] [ohm:2021730:0]        ib_iface.c:1059 UCX  ERROR ibv_create_cq(cqe=256) failed: Connection timed out
[1741454246.537319] [ohm:2021752:0]        ib_iface.c:1059 UCX  ERROR ibv_create_cq(cqe=256) failed: Connection timed out
[1741454246.537726] [ohm:2021812:0]        ib_iface.c:1059 UCX  ERROR ibv_create_cq(cqe=256) failed: Connection timed out
[1741454246.552035] [ohm:2021848:0]        ib_iface.c:1059 UCX  ERROR ibv_create_cq(cqe=256) failed: Connection timed out
[1741454246.552437] [ohm:2021810:0]        ib_iface.c:1059 UCX  ERROR ibv_create_cq(cqe=256) failed: Connection timed out
[1741454246.555047] [ohm:2021823:0]        ib_iface.c:1059 UCX  ERROR ibv_create_cq(cqe=256) failed: Connection timed out
[1741454246.555079] [ohm:2021816:0]        ib_iface.c:1059 UCX  ERROR ibv_create_cq(cqe=256) failed: Connection timed out
[1741454246.562005] [ohm:2021757:0]        ib_iface.c:1059 UCX  ERROR ibv_create_cq(cqe=256) failed: Connection timed out
[1741454246.562791] [ohm:2021766:0]        ib_iface.c:1059 UCX  ERROR ibv_create_cq(cqe=256) failed: Connection timed out
[1741454246.565056] [ohm:2021760:0]        ib_iface.c:1059 UCX  ERROR ibv_create_cq(cqe=256) failed: Connection timed out
[1741454246.568979] [ohm:2021710:0]        ib_iface.c:1059 UCX  ERROR ibv_create_cq(cqe=256) failed: Connection timed out
[1741454246.569492] [ohm:2021853:0]        ib_iface.c:1059 UCX  ERROR ibv_create_cq(cqe=256) failed: Connection timed out
[1741454246.570040] [ohm:2021763:0]        ib_iface.c:1059 UCX  ERROR ibv_create_cq(cqe=256) failed: Connection timed out
[1741454246.581755] [ohm:2021736:0]        ib_iface.c:1059 UCX  ERROR ibv_create_cq(cqe=256) failed: Connection timed out
[1741454246.583526] [ohm:2021817:0]        ib_iface.c:1059 UCX  ERROR ibv_create_cq(cqe=256) failed: Connection timed out
[1741454246.583882] [ohm:2021751:0]        ib_iface.c:1059 UCX  ERROR ibv_create_cq(cqe=256) failed: Connection timed out
[1741454246.586834] [ohm:2021750:0]        ib_iface.c:1059 UCX  ERROR ibv_create_cq(cqe=256) failed: Connection timed out
[1741454246.587054] [ohm:2021838:0]        ib_iface.c:1059 UCX  ERROR ibv_create_cq(cqe=256) failed: Connection timed out
[1741454246.590494] [ohm:2021841:0]        ib_iface.c:1059 UCX  ERROR ibv_create_cq(cqe=256) failed: Connection timed out
[1741454246.590707] [ohm:2021845:0]        ib_iface.c:1059 UCX  ERROR ibv_create_cq(cqe=256) failed: Connection timed out
[1741454246.591973] [ohm:2021711:0]        ib_iface.c:1059 UCX  ERROR ibv_create_cq(cqe=256) failed: Connection timed out
[1741454246.593556] [ohm:2021756:0]        ib_iface.c:1059 UCX  ERROR ibv_create_cq(cqe=256) failed: Connection timed out
[1741454246.594233] [ohm:2021745:0]        ib_iface.c:1059 UCX  ERROR ibv_create_cq(cqe=256) failed: Connection timed out
[1741454246.595723] [ohm:2021828:0]        ib_iface.c:1059 UCX  ERROR ibv_create_cq(cqe=256) failed: Connection timed out
[1741454246.596551] [ohm:2021739:0]        ib_iface.c:1059 UCX  ERROR ibv_create_cq(cqe=256) failed: Connection timed out
[1741454246.597462] [ohm:2021733:0]        ib_iface.c:1059 UCX  ERROR ibv_create_cq(cqe=256) failed: Connection timed out
[1741454246.597894] [ohm:2021770:0]        ib_iface.c:1059 UCX  ERROR ibv_create_cq(cqe=256) failed: Connection timed out
[1741454246.598026] [ohm:2021834:0]        ib_iface.c:1059 UCX  ERROR ibv_create_cq(cqe=256) failed: Connection timed out


           ************************************************************
           *        Program running with 64 parallel MPI-processes    *
           *              working on a common directory               *
           ************************************************************

-------------------------------------------------------------------------------------------
                                      ORCA LEAN-SCF
                              memory conserving SCF solver
-------------------------------------------------------------------------------------------

----------------------------------------D-I-I-S--------------------------------------------
Iteration    Energy (Eh)           Delta-E    RMSDP     MaxDP     DIISErr   Damp  Time(sec)
-------------------------------------------------------------------------------------------
               ***  Starting incremental Fock matrix formation  ***
    1    -908.0495919149955171     0.00e+00  1.56e-03  2.44e-01  1.55e-01  0.700   7.8
    2    -908.3277423838137565    -2.78e-01  1.32e-03  1.64e-01  7.58e-02  0.700   6.8
                               ***Turning on AO-DIIS***
    3    -908.4553834254422782    -1.28e-01  9.31e-04  1.08e-01  2.91e-02  0.700   6.0
    4    -908.5337580960656396    -7.84e-02  2.16e-03  2.54e-01  2.07e-02  0.000   6.0
    5    -908.7135229670204808    -1.80e-01  3.77e-04  4.57e-02  9.07e-03  0.000   6.1
    6    -908.7182182910489701    -4.70e-03  2.62e-04  3.15e-02  8.34e-03  0.000   5.9
    7    -908.7220675791666054    -3.85e-03  4.21e-04  8.60e-02  7.45e-03  0.000   5.8
    8    -908.7265342711700669    -4.47e-03  2.04e-04  3.55e-02  5.90e-03  0.000   5.8
    9    -908.7286728391047745    -2.14e-03  2.56e-04  5.41e-02  4.13e-03  0.000   5.8
                              *** Initializing SOSCF ***
---------------------------------------S-O-S-C-F--------------------------------------
Iteration    Energy (Eh)           Delta-E    RMSDP     MaxDP     MaxGrad    Time(sec)
--------------------------------------------------------------------------------------
   10    -908.7300925945685321    -1.42e-03  1.26e-04  1.84e-02  2.68e-03     6.7
               *** Restarting incremental Fock matrix formation ***
   11    -908.7306313892765957    -5.39e-04  2.05e-04  2.17e-02  5.84e-03     7.4
   12    -908.7308981836170005    -2.67e-04  2.06e-04  2.28e-02  3.32e-03     6.5
   13    -908.7310344689255999    -1.36e-04  9.72e-05  9.52e-03  5.18e-04     6.7
   14    -908.7310577893974823    -2.33e-05  2.47e-05  3.02e-03  3.60e-04     6.4
   15    -908.7310660740124604    -8.28e-06  1.65e-05  1.86e-03  2.47e-04     6.2
   16    -908.7310684491787924    -2.38e-06  1.05e-05  1.83e-03  1.63e-04     6.2
   17    -908.7310695062794821    -1.06e-06  1.20e-05  2.18e-03  9.77e-05     5.9
   18    -908.7310699761753767    -4.70e-07  2.00e-06  2.54e-04  3.14e-05     6.0
   19    -908.7310700079085564    -3.17e-08  2.25e-06  3.38e-04  1.86e-05     5.8
   20    -908.7310700345631176    -2.67e-08  1.48e-06  4.01e-04  1.41e-05     5.6
   21    -908.7310700517339228    -1.72e-08  1.67e-06  4.44e-04  6.22e-06     5.5
   22    -908.7310700699033532    -1.82e-08  1.64e-06  3.77e-04  4.40e-06     5.4
   23    -908.7310700162900048     5.36e-08  1.51e-06  2.68e-04  1.05e-06     5.4
                  *** Gradient check signals convergence ***

               *****************************************************
               *                     SUCCESS                       *
               *           SCF CONVERGED AFTER  23 CYCLES          *
               *****************************************************

Recomputing exchange energy using gridx3       ... done (    7.937 sec)
Old exchange energy                            :    -35.077924423 Eh
New exchange energy                            :    -35.077917761 Eh
Exchange energy change after final integration :      0.000006662 Eh
Total energy after final integration           :   -908.731063355 Eh
             **** ENERGY FILE WAS UPDATED (orca.en.tmp) ****

----------------
TOTAL SCF ENERGY
----------------

Total Energy       :       -908.73106335469026 Eh          -24727.82937 eV

Components:
Nuclear Repulsion  :       1461.46606347732427 Eh           39768.51338 eV
Electronic Energy  :      -2370.19713349361427 Eh          -64496.34293 eV
One Electron Energy:      -4140.20354975605733 Eh         -112660.66615 eV
Two Electron Energy:       1770.00641626244305 Eh           48164.32321 eV

Virial components:
Potential Energy   :      -1815.73456253963013 Eh          -49408.64933 eV
Kinetic Energy     :        907.00349918493987 Eh           24680.81996 eV
Virial Ratio       :          2.00190469405168

DFT components:
N(Alpha)           :       67.000022588661 electrons
N(Beta)            :       65.000017760757 electrons
N(Total)           :      132.000040349418 electrons
E(XC)              :      -86.459058334045 Eh       

---------------
SCF CONVERGENCE
---------------

  Last Energy change         ...   -5.3613e-08  Tolerance :   1.0000e-08
  Last MAX-Density change    ...    2.6849e-04  Tolerance :   1.0000e-07
  Last RMS-Density change    ...    1.5116e-06  Tolerance :   5.0000e-09
  Last DIIS Error            ...    2.6768e-03  Tolerance :   5.0000e-07
  Last Orbital Gradient      ...    1.0530e-06  Tolerance :   1.0000e-05
  Last Orbital Rotation      ...    4.8114e-06  Tolerance :   1.0000e-05


----------------------
UHF SPIN CONTAMINATION
----------------------

Warning: in a DFT calculation there is little theoretical justification to 
         calculate <S**2> as in Hartree-Fock theory. We will do it anyways
         but you should keep in mind that the values have only limited relevance

Expectation value of <S**2>     :     2.009301
Ideal value S*(S+1) for S=1.0   :     2.000000
Deviation                       :     0.009301

----------------
ORBITAL ENERGIES
----------------
                 SPIN UP ORBITALS
  NO   OCC          E(Eh)            E(eV) 
   0   1.0000     -19.333748      -526.0980 
   1   1.0000     -19.317913      -525.6671 
   2   1.0000     -19.316544      -525.6299 
   3   1.0000     -19.315640      -525.6053 
   4   1.0000     -14.595983      -397.1769 
   5   1.0000     -14.573811      -396.5736 
   6   1.0000     -14.561859      -396.2483 
   7   1.0000     -14.553941      -396.0329 
   8   1.0000     -10.510218      -285.9976 
   9   1.0000     -10.501130      -285.7503 
  10   1.0000     -10.469535      -284.8905 
  11   1.0000     -10.455054      -284.4965 
  12   1.0000     -10.428149      -283.7644 
  13   1.0000     -10.403133      -283.0836 
  14   1.0000     -10.397752      -282.9372 
  15   1.0000     -10.373130      -282.2672 
  16   1.0000     -10.358355      -281.8652 
  17   1.0000     -10.354280      -281.7543 
  18   1.0000      -1.240665       -33.7602 
  19   1.0000      -1.225449       -33.3462 
  20   1.0000      -1.195808       -32.5396 
  21   1.0000      -1.193287       -32.4710 
  22   1.0000      -1.137364       -30.9493 
  23   1.0000      -1.121478       -30.5170 
  24   1.0000      -1.072436       -29.1825 
  25   1.0000      -1.069583       -29.1048 
  26   1.0000      -0.981378       -26.7046 
  27   1.0000      -0.959872       -26.1194 
  28   1.0000      -0.860364       -23.4117 
  29   1.0000      -0.849941       -23.1281 
  30   1.0000      -0.818860       -22.2823 
  31   1.0000      -0.812024       -22.0963 
  32   1.0000      -0.800489       -21.7824 
  33   1.0000      -0.792884       -21.5755 
  34   1.0000      -0.708410       -19.2768 
  35   1.0000      -0.701501       -19.0888 
  36   1.0000      -0.693523       -18.8717 
  37   1.0000      -0.693170       -18.8621 
  38   1.0000      -0.650080       -17.6896 
  39   1.0000      -0.638377       -17.3711 
  40   1.0000      -0.635851       -17.3024 
  41   1.0000      -0.605802       -16.4847 
  42   1.0000      -0.598805       -16.2943 
  43   1.0000      -0.592146       -16.1131 
  44   1.0000      -0.577186       -15.7060 
  45   1.0000      -0.574906       -15.6440 
  46   1.0000      -0.561209       -15.2713 
  47   1.0000      -0.553613       -15.0646 
  48   1.0000      -0.550270       -14.9736 
  49   1.0000      -0.548147       -14.9158 
  50   1.0000      -0.534395       -14.5416 
  51   1.0000      -0.530169       -14.4266 
  52   1.0000      -0.526158       -14.3175 
  53   1.0000      -0.515457       -14.0263 
  54   1.0000      -0.504704       -13.7337 
  55   1.0000      -0.498724       -13.5710 
  56   1.0000      -0.497076       -13.5261 
  57   1.0000      -0.471783       -12.8379 
  58   1.0000      -0.424378       -11.5479 
  59   1.0000      -0.412233       -11.2174 
  60   1.0000      -0.410128       -11.1602 
  61   1.0000      -0.397482       -10.8160 
  62   1.0000      -0.387922       -10.5559 
  63   1.0000      -0.386490       -10.5169 
  64   1.0000      -0.382653       -10.4125 
  65   1.0000      -0.341675        -9.2974 
  66   1.0000      -0.211252        -5.7484 
  67   0.0000       0.011178         0.3042 
  68   0.0000       0.022609         0.6152 
  69   0.0000       0.033186         0.9030 
  70   0.0000       0.039173         1.0660 
  71   0.0000       0.040500         1.1021 
  72   0.0000       0.056501         1.5375 
  73   0.0000       0.060253         1.6396 
  74   0.0000       0.064056         1.7431 
  75   0.0000       0.067107         1.8261 
  76   0.0000       0.069410         1.8887 
  77   0.0000       0.072147         1.9632 

                 SPIN DOWN ORBITALS
  NO   OCC          E(Eh)            E(eV) 
   0   1.0000     -19.331710      -526.0426 
   1   1.0000     -19.316491      -525.6284 
   2   1.0000     -19.315589      -525.6039 
   3   1.0000     -19.311932      -525.5044 
   4   1.0000     -14.591485      -397.0545 
   5   1.0000     -14.573751      -396.5719 
   6   1.0000     -14.561870      -396.2486 
   7   1.0000     -14.552948      -396.0059 
   8   1.0000     -10.510509      -286.0055 
   9   1.0000     -10.501138      -285.7505 
  10   1.0000     -10.469537      -284.8906 
  11   1.0000     -10.454639      -284.4852 
  12   1.0000     -10.428049      -283.7616 
  13   1.0000     -10.393753      -282.8284 
  14   1.0000     -10.387253      -282.6515 
  15   1.0000     -10.373152      -282.2678 
  16   1.0000     -10.358720      -281.8751 
  17   1.0000     -10.354172      -281.7513 
  18   1.0000      -1.236283       -33.6410 
  19   1.0000      -1.225281       -33.3416 
  20   1.0000      -1.193429       -32.4748 
  21   1.0000      -1.186706       -32.2919 
  22   1.0000      -1.126999       -30.6672 
  23   1.0000      -1.121338       -30.5132 
  24   1.0000      -1.069544       -29.1038 
  25   1.0000      -1.067122       -29.0379 
  26   1.0000      -0.960782       -26.1442 
  27   1.0000      -0.956464       -26.0267 
  28   1.0000      -0.850126       -23.1331 
  29   1.0000      -0.847592       -23.0641 
  30   1.0000      -0.812413       -22.1069 
  31   1.0000      -0.808666       -22.0049 
  32   1.0000      -0.793464       -21.5913 
  33   1.0000      -0.792616       -21.5682 
  34   1.0000      -0.696132       -18.9427 
  35   1.0000      -0.694111       -18.8877 
  36   1.0000      -0.693140       -18.8613 
  37   1.0000      -0.692966       -18.8565 
  38   1.0000      -0.639450       -17.4003 
  39   1.0000      -0.635684       -17.2978 
  40   1.0000      -0.631590       -17.1864 
  41   1.0000      -0.596905       -16.2426 
  42   1.0000      -0.591796       -16.1036 
  43   1.0000      -0.590163       -16.0592 
  44   1.0000      -0.568116       -15.4592 
  45   1.0000      -0.561940       -15.2912 
  46   1.0000      -0.558011       -15.1842 
  47   1.0000      -0.548676       -14.9302 
  48   1.0000      -0.545065       -14.8320 
  49   1.0000      -0.540129       -14.6976 
  50   1.0000      -0.526446       -14.3253 
  51   1.0000      -0.525921       -14.3110 
  52   1.0000      -0.517951       -14.0942 
  53   1.0000      -0.505872       -13.7655 
  54   1.0000      -0.499643       -13.5960 
  55   1.0000      -0.498342       -13.5606 
  56   1.0000      -0.470734       -12.8093 
  57   1.0000      -0.455558       -12.3964 
  58   1.0000      -0.420086       -11.4311 
  59   1.0000      -0.410559       -11.1719 
  60   1.0000      -0.397512       -10.8168 
  61   1.0000      -0.386463       -10.5162 
  62   1.0000      -0.382938       -10.4203 
  63   1.0000      -0.379236       -10.3195 
  64   1.0000      -0.340826        -9.2744 
  65   0.0000      -0.105116        -2.8603 
  66   0.0000       0.010894         0.2964 
  67   0.0000       0.023900         0.6504 
  68   0.0000       0.031984         0.8703 
  69   0.0000       0.038152         1.0382 
  70   0.0000       0.039830         1.0838 
  71   0.0000       0.055280         1.5042 
  72   0.0000       0.058597         1.5945 
  73   0.0000       0.062497         1.7006 
  74   0.0000       0.066014         1.7963 
  75   0.0000       0.067884         1.8472 
*Only the first 10 virtual orbitals were printed.

                    ********************************
                    * MULLIKEN POPULATION ANALYSIS *
                    ********************************

--------------------------------------------
MULLIKEN ATOMIC CHARGES AND SPIN POPULATIONS
--------------------------------------------
   0 O :   -0.679238    0.004578
   1 O :   -0.679091    0.223563
   2 O :   -0.651101    0.001971
   3 O :   -0.654102    0.074823
   4 N :   -0.032595    0.003520
   5 N :    0.037149    0.216045
   6 N :    0.039805    0.001345
   7 N :    0.022150    0.045632
   8 C :    0.937330    0.050346
   9 C :    0.961087    0.249823
  10 C :   -0.027209   -0.002832
  11 C :   -0.457268    0.911243
  12 C :   -1.421592   -0.025495
[...]
[1741454461.800747] [ohm:2023855:0]        ib_iface.c:1059 UCX  ERROR ibv_create_cq(cqe=256) failed: Connection timed out
[1741454461.808426] [ohm:2023882:0]        ib_iface.c:1059 UCX  ERROR ibv_create_cq(cqe=256) failed: Connection timed out
[1741454461.811159] [ohm:2023953:0]        ib_iface.c:1059 UCX  ERROR ibv_create_cq(cqe=256) failed: Connection timed out
[1741454461.811577] [ohm:2023929:0]        ib_iface.c:1059 UCX  ERROR ibv_create_cq(cqe=256) failed: Connection timed out
[1741454461.812871] [ohm:2023973:0]        ib_iface.c:1059 UCX  ERROR ibv_create_cq(cqe=256) failed: Connection timed out
[1741454461.816376] [ohm:2023925:0]        ib_iface.c:1059 UCX  ERROR ibv_create_cq(cqe=256) failed: Connection timed out
[1741454461.818049] [ohm:2023960:0]        ib_iface.c:1059 UCX  ERROR ibv_create_cq(cqe=256) failed: Connection timed out
[1741454461.818278] [ohm:2023935:0]        ib_iface.c:1059 UCX  ERROR ibv_create_cq(cqe=256) failed: Connection timed out
[1741454461.821175] [ohm:2023999:0]        ib_iface.c:1059 UCX  ERROR ibv_create_cq(cqe=256) failed: Connection timed out
[1741454461.821426] [ohm:2023975:0]        ib_iface.c:1059 UCX  ERROR ibv_create_cq(cqe=256) failed: Connection timed out
[1741454461.822780] [ohm:2023941:0]        ib_iface.c:1059 UCX  ERROR ibv_create_cq(cqe=256) failed: Connection timed out
[1741454461.824726] [ohm:2023915:0]        ib_iface.c:1059 UCX  ERROR ibv_create_cq(cqe=256) failed: Connection timed out
[1741454461.825708] [ohm:2023851:0]        ib_iface.c:1059 UCX  ERROR ibv_create_cq(cqe=256) failed: Connection timed out
[1741454461.829707] [ohm:2023997:0]        ib_iface.c:1059 UCX  ERROR ibv_create_cq(cqe=256) failed: Connection timed out
[1741454461.832435] [ohm:2023983:0]        ib_iface.c:1059 UCX  ERROR ibv_create_cq(cqe=256) failed: Connection timed out
[1741454461.835286] [ohm:2023951:0]        ib_iface.c:1059 UCX  ERROR ibv_create_cq(cqe=256) failed: Connection timed out
[1741454461.836099] [ohm:2023881:0]        ib_iface.c:1059 UCX  ERROR ibv_create_cq(cqe=256) failed: Connection timed out
[1741454461.836781] [ohm:2023958:0]        ib_iface.c:1059 UCX  ERROR ibv_create_cq(cqe=256) failed: Connection timed out
[1741454461.838388] [ohm:2023933:0]        ib_iface.c:1059 UCX  ERROR ibv_create_cq(cqe=256) failed: Connection timed out
[1741454461.847154] [ohm:2023977:0]        ib_iface.c:1059 UCX  ERROR ibv_create_cq(cqe=256) failed: Connection timed out


           ************************************************************
           *        Program running with 64 parallel MPI-processes    *
           *              working on a common directory               *
           ************************************************************

------------------------------------------------------------------------------
                              ORCA PROPERTY CALCULATIONS
------------------------------------------------------------------------------

GBWName                                 ... orca.gbw
Number of atoms                         ...     30
Number of basis functions               ...    882
Max core memory                         ...   1024 MB

Electric properties:
Dipole moment                           ... YES
Quadrupole moment                       ...  NO
Static polarizability (Dipole/Dipole)   ...  NO
Static polarizability (Dipole/Quad.)    ...  NO
Static polarizability (Quad./Quad.)     ...  NO
Static polarizability (Velocity)        ...  NO

Atomic electric properties:
Dipole moment                           ...  NO
Quadrupole moment                       ...  NO
Static polarizability                   ...  NO

Choice of electric origin               ... Center of mass
Position of electric origin             ...    -0.006040     0.017277     0.082427

General magnetic properties:
Magnetizability                         ...  NO

EPR properties:
g-Tensor (aka g-matrix)                 ...  NO
Zero-Field splitting spin-orbit         ...  NO
Zero-field splitting spin-spin          ...  NO
Hyperfine couplings                     ...  NO (   0 nuclei)
Quadrupole couplings                    ...  NO (   0 nuclei)
Contact density                         ...  NO (   0 nuclei)

NMR properties:
Chemical shifts                         ...  NO (   0 nuclei)
Spin-rotation constants                 ...  NO (   0 nuclei)
Spin-spin couplings                     ...  NO (   0 nuclei,    0 pairs)

Choice of magnetic origin               ... GIAO
Position of magnetic origin             ...     0.000000     0.000000     0.000000

Properties with geometric perturbations:
SCF Hessian                             ...  NO
IR spectrum                             ...  NO
VCD spectrum                            ...  NO
X-ray spectroscopy properties:
SCF XES/XAS/RIXS spectra                ...  NO


-------------
DIPOLE MOMENT
-------------

Method             : SCF
Type of density    : Electron Density
Multiplicity       :   3
Irrep              :   0
Energy             :  -908.7310633546902636 Eh
Relativity type    : 
Basis              : AO
                                X                 Y                 Z
Electronic contribution:     -2.780687883      -9.754204378      -5.948298099
Nuclear contribution   :      2.335800007      10.643423426       8.442737828
                        -----------------------------------------
Total Dipole Moment    :     -0.444887876       0.889219048       2.494439730
                        -----------------------------------------
Magnitude (a.u.)       :      2.685305439
Magnitude (Debye)      :      6.825503995



--------------------
Rotational spectrum 
--------------------
 
Rotational constants in cm-1:             0.017175             0.016338             0.013847 
Rotational constants in MHz :           514.886761           489.802047           415.123156 

Dipole components along the rotational axes: 
x,y,z [a.u.] :     1.005490     0.263992     2.475917 
x,y,z [Debye]:     2.555753     0.671013     6.293280 

 

Dipole moment calculation done in   0.1 sec 

Maximum memory used throughout the entire PROP-calculation: 81.4 MB
[1741454464.127118] [ohm:2024188:0]        ib_iface.c:1059 UCX  ERROR ibv_create_cq(cqe=256) failed: Connection timed out
[1741454464.134231] [ohm:2024191:0]        ib_iface.c:1059 UCX  ERROR ibv_create_cq(cqe=256) failed: Connection timed out
[1741454464.138905] [ohm:2024189:0]        ib_iface.c:1059 UCX  ERROR ibv_create_cq(cqe=256) failed: Connection timed out
[1741454464.142047] [ohm:2024190:0]        ib_iface.c:1059 UCX  ERROR ibv_create_cq(cqe=256) failed: Connection timed out
[1741454464.198147] [ohm:2024194:0]        ib_iface.c:1059 UCX  ERROR ibv_create_cq(cqe=256) failed: Connection timed out
[1741454464.200653] [ohm:2024195:0]        ib_iface.c:1059 UCX  ERROR ibv_create_cq(cqe=256) failed: Connection timed out
[1741454464.237552] [ohm:2024198:0]        ib_iface.c:1059 UCX  ERROR ibv_create_cq(cqe=256) failed: Connection timed out
[1741454464.267460] [ohm:2024192:0]        ib_iface.c:1059 UCX  ERROR ibv_create_cq(cqe=256) failed: Connection timed out
[1741454464.283275] [ohm:2024293:0]        ib_iface.c:1059 UCX  ERROR ibv_create_cq(cqe=256) failed: Connection timed out
[1741454464.284554] [ohm:2024229:0]        ib_iface.c:1059 UCX  ERROR ibv_create_cq(cqe=256) failed: Connection timed out
[1741454464.284609] [ohm:2024193:0]        ib_iface.c:1059 UCX  ERROR ibv_create_cq(cqe=256) failed: Connection timed out
[1741454464.286913] [ohm:2024197:0]        ib_iface.c:1059 UCX  ERROR ibv_create_cq(cqe=256) failed: Connection timed out
[1741454464.301184] [ohm:2024312:0]        ib_iface.c:1059 UCX  ERROR ibv_create_cq(cqe=256) failed: Connection timed out
[1741454464.315633] [ohm:2024196:0]        ib_iface.c:1059 UCX  ERROR ibv_create_cq(cqe=256) failed: Connection timed out
[1741454464.324680] [ohm:2024224:0]        ib_iface.c:1059 UCX  ERROR ibv_create_cq(cqe=256) failed: Connection timed out
[1741454464.334263] [ohm:2024236:0]        ib_iface.c:1059 UCX  ERROR ibv_create_cq(cqe=256) failed: Connection timed out
[1741454464.335284] [ohm:2024214:0]        ib_iface.c:1059 UCX  ERROR ibv_create_cq(cqe=256) failed: Connection timed out
[1741454464.344102] [ohm:2024216:0]        ib_iface.c:1059 UCX  ERROR ibv_create_cq(cqe=256) failed: Connection timed out
[1741454464.345267] [ohm:2024220:0]        ib_iface.c:1059 UCX  ERROR ibv_create_cq(cqe=256) failed: Connection timed out
[1741454464.345933] [ohm:2024249:0]        ib_iface.c:1059 UCX  ERROR ibv_create_cq(cqe=256) failed: Connection timed out
[1741454464.363176] [ohm:2024232:0]        ib_iface.c:1059 UCX  ERROR ibv_create_cq(cqe=256) failed: Connection timed out
[1741454464.390364] [ohm:2024204:0]        ib_iface.c:1059 UCX  ERROR ibv_create_cq(cqe=256) failed: Connection timed out
[1741454464.393866] [ohm:2024199:0]        ib_iface.c:1059 UCX  ERROR ibv_create_cq(cqe=256) failed: Connection timed out
[1741454464.411995] [ohm:2024213:0]        ib_iface.c:1059 UCX  ERROR ibv_create_cq(cqe=256) failed: Connection timed out
[1741454464.415209] [ohm:2024271:0]        ib_iface.c:1059 UCX  ERROR ibv_create_cq(cqe=256) failed: Connection timed out
[1741454464.424471] [ohm:2024218:0]        ib_iface.c:1059 UCX  ERROR ibv_create_cq(cqe=256) failed: Connection timed out
[1741454464.427106] [ohm:2024208:0]        ib_iface.c:1059 UCX  ERROR ibv_create_cq(cqe=256) failed: Connection timed out
[1741454464.441525] [ohm:2024205:0]        ib_iface.c:1059 UCX  ERROR ibv_create_cq(cqe=256) failed: Connection timed out
[1741454464.447068] [ohm:2024245:0]        ib_iface.c:1059 UCX  ERROR ibv_create_cq(cqe=256) failed: Connection timed out
[1741454464.449235] [ohm:2024250:0]        ib_iface.c:1059 UCX  ERROR ibv_create_cq(cqe=256) failed: Connection timed out
[1741454464.449392] [ohm:2024215:0]        ib_iface.c:1059 UCX  ERROR ibv_create_cq(cqe=256) failed: Connection timed out
[1741454464.451299] [ohm:2024300:0]        ib_iface.c:1059 UCX  ERROR ibv_create_cq(cqe=256) failed: Connection timed out
[1741454464.453066] [ohm:2024252:0]        ib_iface.c:1059 UCX  ERROR ibv_create_cq(cqe=256) failed: Connection timed out
[1741454464.454863] [ohm:2024323:0]        ib_iface.c:1059 UCX  ERROR ibv_create_cq(cqe=256) failed: Connection timed out
[1741454464.454928] [ohm:2024244:0]        ib_iface.c:1059 UCX  ERROR ibv_create_cq(cqe=256) failed: Connection timed out
[1741454464.478899] [ohm:2024248:0]        ib_iface.c:1059 UCX  ERROR ibv_create_cq(cqe=256) failed: Connection timed out
[1741454464.480961] [ohm:2024285:0]        ib_iface.c:1059 UCX  ERROR ibv_create_cq(cqe=256) failed: Connection timed out
[1741454464.481282] [ohm:2024315:0]        ib_iface.c:1059 UCX  ERROR ibv_create_cq(cqe=256) failed: Connection timed out
[1741454464.484279] [ohm:2024238:0]        ib_iface.c:1059 UCX  ERROR ibv_create_cq(cqe=256) failed: Connection timed out
[1741454464.484934] [ohm:2024246:0]        ib_iface.c:1059 UCX  ERROR ibv_create_cq(cqe=256) failed: Connection timed out
[1741454464.495527] [ohm:2024258:0]        ib_iface.c:1059 UCX  ERROR ibv_create_cq(cqe=256) failed: Connection timed out
[1741454464.496285] [ohm:2024321:0]        ib_iface.c:1059 UCX  ERROR ibv_create_cq(cqe=256) failed: Connection timed out
[1741454464.497933] [ohm:2024211:0]        ib_iface.c:1059 UCX  ERROR ibv_create_cq(cqe=256) failed: Connection timed out
[1741454464.498772] [ohm:2024290:0]        ib_iface.c:1059 UCX  ERROR ibv_create_cq(cqe=256) failed: Connection timed out
[1741454464.499617] [ohm:2024241:0]        ib_iface.c:1059 UCX  ERROR ibv_create_cq(cqe=256) failed: Connection timed out
[1741454464.506236] [ohm:2024200:0]        ib_iface.c:1059 UCX  ERROR ibv_create_cq(cqe=256) failed: Connection timed out
[1741454464.509358] [ohm:2024306:0]        ib_iface.c:1059 UCX  ERROR ibv_create_cq(cqe=256) failed: Connection timed out
[1741454464.516179] [ohm:2024279:0]        ib_iface.c:1059 UCX  ERROR ibv_create_cq(cqe=256) failed: Connection timed out
[1741454464.524072] [ohm:2024251:0]        ib_iface.c:1059 UCX  ERROR ibv_create_cq(cqe=256) failed: Connection timed out
[1741454464.524113] [ohm:2024297:0]        ib_iface.c:1059 UCX  ERROR ibv_create_cq(cqe=256) failed: Connection timed out
[1741454464.527397] [ohm:2024284:0]        ib_iface.c:1059 UCX  ERROR ibv_create_cq(cqe=256) failed: Connection timed out
[1741454464.530196] [ohm:2024330:0]        ib_iface.c:1059 UCX  ERROR ibv_create_cq(cqe=256) failed: Connection timed out
[1741454464.530441] [ohm:2024261:0]        ib_iface.c:1059 UCX  ERROR ibv_create_cq(cqe=256) failed: Connection timed out
[1741454464.532597] [ohm:2024272:0]        ib_iface.c:1059 UCX  ERROR ibv_create_cq(cqe=256) failed: Connection timed out
[1741454464.533020] [ohm:2024317:0]        ib_iface.c:1059 UCX  ERROR ibv_create_cq(cqe=256) failed: Connection timed out
[1741454464.534335] [ohm:2024230:0]        ib_iface.c:1059 UCX  ERROR ibv_create_cq(cqe=256) failed: Connection timed out
[1741454464.535944] [ohm:2024265:0]        ib_iface.c:1059 UCX  ERROR ibv_create_cq(cqe=256) failed: Connection timed out
[1741454464.536804] [ohm:2024328:0]        ib_iface.c:1059 UCX  ERROR ibv_create_cq(cqe=256) failed: Connection timed out
[1741454464.537472] [ohm:2024254:0]        ib_iface.c:1059 UCX  ERROR ibv_create_cq(cqe=256) failed: Connection timed out
[1741454464.537730] [ohm:2024226:0]        ib_iface.c:1059 UCX  ERROR ibv_create_cq(cqe=256) failed: Connection timed out
[1741454464.538539] [ohm:2024333:0]        ib_iface.c:1059 UCX  ERROR ibv_create_cq(cqe=256) failed: Connection timed out
[1741454464.539675] [ohm:2024296:0]        ib_iface.c:1059 UCX  ERROR ibv_create_cq(cqe=256) failed: Connection timed out
[1741454464.540200] [ohm:2024336:0]        ib_iface.c:1059 UCX  ERROR ibv_create_cq(cqe=256) failed: Connection timed out
[1741454464.540771] [ohm:2024302:0]        ib_iface.c:1059 UCX  ERROR ibv_create_cq(cqe=256) failed: Connection timed out

--------------------------------
SUGGESTED CITATIONS FOR THIS RUN
--------------------------------

Below you find a list of papers that are relevant to this ORCA run
We neither can nor want to force you to cite these papers, but we appreciate if you do
You receive ORCA, which is the product of decades of hard work by many enthusiastic individuals, for free
The only thing we kindly ask in return is that you cite our papers,
We deeply appreciate it, if you show your appreciation for ORCA by not just citing the generic ORCA reference.

Please note that relegating all ORCA citations to the supporting information does *not* help us.
SI sections are not indexed - citations you put there will not count into any citation statistics
But we need these citations in order to attract the funding resources that allow us to do what we are doing

Therefore, if you are a happy ORCA user, please consider citing a few of the papers listed below in the main body of your paper

In addition to the list printed below, the program has created the file orca.bibtex that contains the list in bibtex format
You can import this file easily into all common literature databanks and citation aid programs


List of essential papers. We consider these as the minimum necessary citations

  1. Neese,F.
     Software update: the ORCA program system, version 5.0
     WIRES Comput. Molec. Sci., 2022 12(1)e1606
     doi.org/10.1002/wcms.1606

List of papers to cite with high priority. The work reported in these papers was absolutely
necessary for this run to complete.
Our perspective: the developers of density functionals and basis sets usually get cited in chemistry papers
Good! But without the algorithms to do something with them, the functionals or basis sets would not do anything.
Hence, in our opinion, the algorithm design and method developments papers are equally worthy of getting cited

  1. Neese,F.; Olbrich,G.
     Efficient use of the resolution of the identity approximation in time-dependent density functional calculations with hybrid density functionals
     Chem. Phys. Lett., 2002 362 170-178
     doi.org/10.1016/s0009-2614(02)01053-9
  2. Neese,F.
     An improvement of the resolution of the identity approximation for the formation of the Coulomb matrix
     J. Comp. Chem., 2003 24(14)1740-1747
     doi.org/10.1002/jcc.10318
  3. Neese,F.; Wennmohs,F.; Hansen,A.; Becker,U.
     Efficient, approximate and parallel Hartree-Fock and hybrid DFT calculations. A 'chain-of-spheres' algorithm for the Hartree-Fock exchange
     Chem. Phys., 2009 356(1-3)98-109
     doi.org/10.1016/j.chemphys.2008.10.036
  4. Petrenko,T.; Kossmann,S.; Neese,F.
     Efficient time-dependent density functional theory approximations for hybrid density functionals: Analytical gradients and parallelization
     J. Chem. Phys., 2011 134 054116
     doi.org/10.1063/1.3533441
  5. Helmich-Paris,B.; de Souza,B.; Neese,F.; Izsák,R.
     An improved chain of spheres for exchange algorithm
     J. Chem. Phys., 2021 155 104109
     doi.org/doi: 10.1063/5.0058766.
  6. Neese,F.
     The SHARK Integral Generation and Digestion System
     J. Comp. Chem., 2022  1-16
     doi.org/10.1002/jcc.26942
  7. Lehtola,S.; Steigemann,C.; Oliveira,M.; Marques,M.
     Recent developments in Libxc - A comprehensive library of functionals for density functional theory
     Software X, 2018 7 
     doi.org/10.1016/j.softx.2017.11.002
  8. Grimme,S.; Antony,J.; Ehrlich,S.; Krieg,H.
     A consistent and accurate ab initio parametrization of density functional dispersion correction (DFT-D) for the 94 elements H-Pu
     J. Chem. Phys., 2010 132 154104-XXXX
     doi.org/10.1063/1.3382344
  9. Grimme,S.; Ehrlich,S.; Goerigk,L.
     Effect of the damping function in dispersion corrected density functional theory
     J. Comput. Chem., 2011 32(7)1456-1465
     doi.org/10.1002/jcc.21759

List of suggested additional citations. These are papers that are important in the 'surrounding' of 
of this run, or papers that preceded the highly important papers. If you like your results we are grateful for a citation.

  1. Izsak,R.; Neese,F.
     An overlap fitted chain of spheres exchange method
     J. Chem. Phys., 2011 135 144105
     doi.org/10.1063/1.3646921
  2. Izsak,R.; Hansen,A.; Neese,F.
     The resolution of identity and chain of spheres approximations for the LPNO-CCSD singles Fock term
     Molec. Phys., 2012 110 2413-2417
     doi.org/10.1080/00268976.2012.687466
  3. Neese,F.
     The ORCA program system
     WIRES Comput. Molec. Sci., 2012 2(1)73-78
     doi.org/10.1002/wcms.81
  4. Izsak,R.; Neese,F.; Klopper,W.
     Robust fitting techniques in the chain of spheres approximation to the Fock exchange: The role of the complementary space
     J. Chem. Phys., 2013 139 
     doi.org/10.1063/1.4819264
  5. Neese,F.
     Software update: the ORCA program system, version 4.0
     WIRES Comput. Molec. Sci., 2018 8(1)1-6
     doi.org/10.1002/wcms.1327
  6. Neese,F.; Wennmohs,F.; Becker,U.; Riplinger,C.
     The ORCA quantum chemistry program package
     J. Chem. Phys., 2020 152 Art. No. L224108
     doi.org/10.1063/5.0004608

List of optional additional citations

  1. Neese,F.
     Approximate second-order SCF convergence for spin unrestricted wavefunctions
     Chem. Phys. Lett., 2000 325(1-3)93-98
     doi.org/10.1016/s0009-2614(00)00662-x

Timings for individual modules:

Sum of individual times          ...      228.685 sec (=   3.811 min)
Startup calculation              ...        6.421 sec (=   0.107 min)   2.8 %
SCF iterations                   ...      159.437 sec (=   2.657 min)  69.7 %
Property integrals               ...        4.296 sec (=   0.072 min)   1.9 %
Property calculations            ...        2.755 sec (=   0.046 min)   1.2 %
CIS module                       ...       55.777 sec (=   0.930 min)  24.4 %
                             ****ORCA TERMINATED NORMALLY****
TOTAL RUN TIME: 0 days 0 hours 3 minutes 50 seconds 735 msec
