
                                 *****************
                                 * O   R   C   A *
                                 *****************

                                            #,                                       
                                            ###                                      
                                            ####                                     
                                            #####                                    
                                            ######                                   
                                           ########,                                 
                                     ,,################,,,,,                         
                               ,,#################################,,                 
                          ,,##########################################,,             
                       ,#########################################, ''#####,          
                    ,#############################################,,   '####,        
                  ,##################################################,,,,####,       
                ,###########''''           ''''###############################       
              ,#####''   ,,,,##########,,,,          '''####'''          '####       
            ,##' ,,,,###########################,,,                        '##       
           ' ,,###''''                  '''############,,,                           
         ,,##''                                '''############,,,,        ,,,,,,###''
      ,#''                                            '''#######################'''  
     '                                                          ''''####''''         
             ,#######,   #######,   ,#######,      ##                                
            ,#'     '#,  ##    ##  ,#'     '#,    #''#        ,####,   ,####,        
            ##       ##  ##   ,#'  ##            #'  '#       #'       #'  '#        
            ##       ##  #######   ##           ,######,      #####,   #    #        
            '#,     ,#'  ##    ##  '#,     ,#' ,#      #,     #,   #   #,  ,#        
             '#######'   ##     ##  '#######'  #'      '#     '####' # '####'        



                #########################################################
                #                        -***-                          #
                #          Department of theory and spectroscopy        #
                #                                                       #
                #                      Frank Neese                      #
                #                                                       #
                #     Directorship, Architecture, Infrastructure        #
                #                    SHARK, DRIVERS                     #
                #        Core code/Algorithms in most modules           #
                #                                                       #
                #        Max Planck Institute fuer Kohlenforschung      #
                #                Kaiser Wilhelm Platz 1                 #
                #                 D-45470 Muelheim/Ruhr                 #
                #                      Germany                          #
                #                                                       #
                #                  All rights reserved                  #
                #                        -***-                          #
                #########################################################


                         Program Version 6.0.0  -   RELEASE  -


 With contributions from (in alphabetic order):
   Daniel Aravena         : Magnetic Suceptibility
   Michael Atanasov       : Ab Initio Ligand Field Theory (pilot matlab implementation)
   Alexander A. Auer      : GIAO ZORA, VPT2 properties, NMR spectrum
   Ute Becker             : All parallelization in ORCA, NUMFREQ, NUMCALC
   Giovanni Bistoni       : ED, misc. LED, open-shell LED, HFLD
   Martin Brehm           : Molecular dynamics
   Dmytro Bykov           : pre 5.0 version of the SCF Hessian
   Marcos Casanova-Páez   : Triplet and SCS-CIS(D). UHF-(DLPNO)-IP/EA/STEOM-CCSD. UHF-CVS-IP/STEOM-CCSD
   Vijay G. Chilkuri      : MRCI spin determinant printing, contributions to CSF-ICE
   Pauline Colinet        : FMM embedding
   Dipayan Datta          : RHF DLPNO-CCSD density
   Achintya Kumar Dutta   : EOM-CC, STEOM-CC
   Nicolas Foglia         : Exact transition moments, OPA infrastructure, MCD improvements
   Dmitry Ganyushin       : Spin-Orbit,Spin-Spin,Magnetic field MRCI
   Miquel Garcia          : C-PCM and meta-GGA Hessian, CCSD/C-PCM, Gaussian charge scheme
   Tiago L. C. Gouveia    : GS-ROHF, GS-ROCIS
   Yang Guo               : DLPNO-NEVPT2, F12-NEVPT2, CIM, IAO-localization
   Andreas Hansen         : Spin unrestricted coupled pair/coupled cluster methods
   Ingolf Harden          : AUTO-CI MPn and infrastructure 
   Benjamin Helmich-Paris : MC-RPA, TRAH-(SCF,CASSCF), AVAS, COSX integrals, SCF dyn. polar.
   Lee Huntington         : MR-EOM, pCC
   Robert Izsak           : Overlap fitted RIJCOSX, COSX-SCS-MP3, EOM
   Riya Kayal             : Wick's Theorem for AUTO-CI, AUTO-CI UHF-CCSDT
   Emily Kempfer          : AUTO-CI, RHF CISDT and CCSDT
   Christian Kollmar      : KDIIS, OOCD, Brueckner-CCSD(T), CCSD density, CASPT2, CASPT2-K, improved NEVPT2
   Axel Koslowski         : Symmetry handling
   Simone Kossmann        : Meta GGA functionals, TD-DFT gradient, OOMP2, (MP2 Hessian; deprecated post 5.0)
   Lucas Lang             : DCDCAS
   Marvin Lechner         : AUTO-CI (C++ implementation), FIC-MRCC
   Spencer Leger          : CASSCF response
   Dagmar Lenk            : GEPOL surface, SMD, ORCA-2-JSON
   Dimitrios Liakos       : Extrapolation schemes; Compound Job, initial MDCI parallelization
   Dimitrios Manganas     : Further ROCIS development; embedding schemes. LFT, Crystal Embedding
   Dimitrios Pantazis     : SARC Basis sets
   Anastasios Papadopoulos: AUTO-CI, single reference methods and gradients
   Taras Petrenko         : pre 6.0 DFT Hessian and TD-DFT gradient, (ASA, deprecated), ECA, 1-Electron XAS/XES, NRVS
   Peter Pinski           : DLPNO-MP2, DLPNO-MP2 Gradient
   Christoph Reimann      : Effective Core Potentials
   Marius Retegan         : Local ZFS, SOC
   Christoph Riplinger    : Optimizer, TS searches, QM/MM, DLPNO-CCSD(T), (RO)-DLPNO pert. Triples
   Michael Roemelt        : Original ROCIS implementation
   Masaaki Saitow         : Open-shell DLPNO-CCSD energy and density
   Barbara Sandhoefer     : DKH picture change effects
   Kantharuban Sivalingam : CASSCF convergence/infrastructure, NEVPT2 and variants, FIC-MRCI
   Bernardo de Souza      : ESD, SOC TD-DFT
   Georgi Stoychev        : AutoAux, RI-MP2 NMR, DLPNO-MP2 response, X2C
   Van Anh Tran           : RI-MP2 g-tensors
   Willem Van den Heuvel  : Paramagnetic NMR
   Zikuan Wang            : NOTCH, Electric field optimization 
   Frank Wennmohs         : Technical directorship and infrastructure
   Hang Xu                : AUTO-CI-Response properties 


 We gratefully acknowledge several colleagues who have allowed us to
 interface, adapt or use parts of their codes:
   Stefan Grimme, W. Hujo, H. Kruse, P. Pracht,  : VdW corrections, initial TS optimization,
                  C. Bannwarth, S. Ehlert,         DFT functionals, gCP, sTDA/sTD-DF
                  L. Wittmann, M. Mueller
   Ed Valeev, F. Pavosevic, A. Kumar             : LibInt (2-el integral package), F12 methods
   Garnet Chan, S. Sharma, J. Yang, R. Olivares  : DMRG
   Ulf Ekstrom                                   : XCFun DFT Library
   Mihaly Kallay                                 : mrcc  (arbitrary order and MRCC methods)
   Frank Weinhold                                : gennbo (NPA and NBO analysis)
   Simon Mueller                                 : openCOSMO-RS
   Christopher J. Cramer and Donald G. Truhlar   : smd solvation model
   Lars Goerigk                                  : TD-DFT with DH, B97 family of functionals
   V. Asgeirsson, H. Jonsson                     : NEB implementation
   FAccTs GmbH                                   : IRC, NEB, NEB-TS, DLPNO-Multilevel, CI-OPT
                                                   MM, QMMM, 2- and 3-layer-ONIOM, Crystal-QMMM,
                                                   LR-CPCM, SF, NACMEs, symmetry and pop. for TD-DFT,
                                                   nearIR, NL-DFT gradient (VV10), updates on ESD,
                                                   ML-optimized integration grids, MBIS, APM,
                                                   GOAT, DOCKER, SOLVATOR, interface openCOSMO-RS
   S Lehtola, MJT Oliveira, MAL Marques          : LibXC Library
   Liviu Ungur et al                             : ANISO software


 Your calculation uses the libint2 library for the computation of 2-el integrals
 For citations please refer to: http://libint.valeyev.net

 Your ORCA version has been built with support for libXC version: 6.2.2
 For citations please refer to: https://libxc.gitlab.io

 This ORCA versions uses:
   CBLAS   interface :  Fast vector & matrix operations
   LAPACKE interface :  Fast linear algebra routines
   SCALAPACK package :  Parallel linear algebra routines
   Shared memory     :  Shared parallel matrices
   BLAS/LAPACK       :  OpenBLAS 0.3.27  USE64BITINT DYNAMIC_ARCH NO_AFFINITY Zen SINGLE_THREADED
        Core in use  :  Zen
   Copyright (c) 2011-2014, The OpenBLAS Project


Your calculation utilizes the atom-pairwise dispersion correction
with the Becke-Johnson damping scheme (D3BJ)


Warning: RI is on but no J-basis has been assigned. Assigning Def2/J (nothing to worry about!)
================================================================================

----- Orbital basis set information -----
Your calculation utilizes the basis: def2-TZVPPD
   F. Weigend and R. Ahlrichs, Phys. Chem. Chem. Phys. 7, 3297 (2005).
   D. Rappoport and F. Furche, J. Chem. Phys. 133, 134105 (2010)
   D. Rappoport, J. Chem. Phys. 155, 124102 (2021).

----- AuxJ basis set information -----
Your calculation utilizes the auxiliary basis: def2/J
   F. Weigend, Phys. Chem. Chem. Phys. 8, 1057 (2006).

================================================================================
                                        WARNINGS
                       Please study these warnings very carefully!
================================================================================

Using LibXC functional ID 531 : wB97M-V exchange-correlation functional
[ 1]  N. Mardirossian and M. Head-Gordon.,  J. Chem. Phys. 144, 214110 (2016)
Using LibXC functional ID 531 : wB97M-V exchange-correlation functional
[ 1]  N. Mardirossian and M. Head-Gordon.,  J. Chem. Phys. 144, 214110 (2016)

WARNING: B97M-V or wB97M-V functional requested.
  ===> : libXC variant has now been activated.
         Any manually given DFX/HFX/RangeSep scaling parameters are IGNORED!

Your calculation utilizes LibXC
 by S Lehtola, C Steigemann, MJT Oliveira & MAL Marques
Please cite in your paper:
 S Lehtola, C Steigemann, MJT Oliveira & MAL Marques, SoftwareX, 7, (2018), 1.
   


WARNING: your system is open-shell and RHF/RKS was chosen
  ===> : WILL SWITCH to UHF/UKS

INFO   : Checking CIS options ...

WARNING: CIS/ROCIS methods need fully converged wavefunctions
  ===> : Setting SCFConvForced true
         You can overwrite this default with %scf ConvForced false 


================================================================================
                                       INPUT FILE
================================================================================
NAME = orca.inp
|  1> ! Engrad def2-TZVPPD wB97M-D3BJ 
|  2> %pal nprocs 8 end%pal nprocs 64 end 
|  3> %tddft 
|  4>  Iroot 1 Nroots 3 
|  5> sf true 
|  6> end 
|  7> *xyz 0 3 
|  8> O   2.97218004 -0.91546764 -1.66584245
|  9> O   -1.69866961 1.280512 -2.16040654
| 10> O   -1.03385301 -2.6228928 -0.74832353
| 11> O   -2.96838244 -0.09940906 1.94801876
| 12> N   0.00482339 -1.5287305 0.94291647
| 13> N   -1.11900443 0.99108828 1.66947257
| 14> N   0.83307049 -1.38709642 -1.23959908
| 15> N   -2.352143 0.5617015 -0.19065911
| 16> C   2.15706509 -0.40707003 0.4677696
| 17> C   -0.0734069 1.44835043 -0.35477445
| 18> C   0.87549052 -0.40122019 1.24911488
| 19> C   0.14467164 0.91163001 1.02312971
| 20> C   3.26206291 0.46354228 0.97842559
| 21> C   0.85493521 2.39448313 -1.01647469
| 22> C   2.10326458 -0.93043622 -0.87300252
| 23> C   -1.33662176 1.11213297 -1.00551969
| 24> C   -0.14329214 -1.9268636 -0.36612078
| 25> C   -2.26947511 0.39066114 1.14428304
| 26> H   1.15912803 -0.45976605 2.32628682
| 27> H   0.7406911 1.66593794 1.43638238
| 28> H   2.83735983 1.48492609 1.02925163
| 29> H   3.74283434 0.0213969 1.84156997
| 30> H   4.04330455 0.53780817 0.2577949
| 31> H   0.45293757 3.3943464 -1.0346479
| 32> H   1.78181967 2.3389272 -0.50024935
| 33> H   1.0821816 2.218461 -2.05000322
| 34> H   -0.75255705 -1.68782867 1.56807677
| 35> H   -1.10020406 0.58764868 2.59663248
| 36> H   0.82960682 -1.77710114 -2.23699561
| 37> H   -3.09488758 0.14768826 -0.76123863
| 38> *
| 39> 
| 40>                          ****END OF INPUT****
================================================================================

                     *******************************
                     * Energy+Gradient Calculation *
                     *******************************

---------------------------------
CARTESIAN COORDINATES (ANGSTROEM)
---------------------------------
  O      2.972180   -0.915468   -1.665842
  O     -1.698670    1.280512   -2.160407
  O     -1.033853   -2.622893   -0.748324
  O     -2.968382   -0.099409    1.948019
  N      0.004823   -1.528730    0.942916
  N     -1.119004    0.991088    1.669473
  N      0.833070   -1.387096   -1.239599
  N     -2.352143    0.561701   -0.190659
  C      2.157065   -0.407070    0.467770
  C     -0.073407    1.448350   -0.354774
  C      0.875491   -0.401220    1.249115
  C      0.144672    0.911630    1.023130
  C      3.262063    0.463542    0.978426
  C      0.854935    2.394483   -1.016475
  C      2.103265   -0.930436   -0.873003
  C     -1.336622    1.112133   -1.005520
  C     -0.143292   -1.926864   -0.366121
  C     -2.269475    0.390661    1.144283
  H      1.159128   -0.459766    2.326287
  H      0.740691    1.665938    1.436382
  H      2.837360    1.484926    1.029252
  H      3.742834    0.021397    1.841570
  H      4.043305    0.537808    0.257795
  H      0.452938    3.394346   -1.034648
  H      1.781820    2.338927   -0.500249
  H      1.082182    2.218461   -2.050003
  H     -0.752557   -1.687829    1.568077
  H     -1.100204    0.587649    2.596632
  H      0.829607   -1.777101   -2.236996
  H     -3.094888    0.147688   -0.761239

----------------------------
CARTESIAN COORDINATES (A.U.)
----------------------------
  NO LB      ZA    FRAG     MASS         X           Y           Z
   0 O     8.0000    0    15.999    5.616606   -1.729983   -3.147986
   1 O     8.0000    0    15.999   -3.210020    2.419817   -4.082577
   2 O     8.0000    0    15.999   -1.953699   -4.956549   -1.414127
   3 O     8.0000    0    15.999   -5.609430   -0.187856    3.681222
   4 N     7.0000    0    14.007    0.009115   -2.888882    1.781854
   5 N     7.0000    0    14.007   -2.114612    1.872885    3.154846
   6 N     7.0000    0    14.007    1.574275   -2.621232   -2.342503
   7 N     7.0000    0    14.007   -4.444906    1.061462   -0.360294
   8 C     6.0000    0    12.011    4.076262   -0.769251    0.883956
   9 C     6.0000    0    12.011   -0.138719    2.736986   -0.670427
  10 C     6.0000    0    12.011    1.654437   -0.758196    2.360485
  11 C     6.0000    0    12.011    0.273390    1.722731    1.933435
  12 C     6.0000    0    12.011    6.164406    0.875968    1.848956
  13 C     6.0000    0    12.011    1.615593    4.524917   -1.920859
  14 C     6.0000    0    12.011    3.974594   -1.758270   -1.649736
  15 C     6.0000    0    12.011   -2.525849    2.101627   -1.900157
  16 C     6.0000    0    12.011   -0.270783   -3.641245   -0.691868
  17 C     6.0000    0    12.011   -4.288686    0.738243    2.162382
  18 H     1.0000    0     1.008    2.190435   -0.868832    4.396045
  19 H     1.0000    0     1.008    1.399703    3.148166    2.714369
  20 H     1.0000    0     1.008    5.361833    2.806104    1.945004
  21 H     1.0000    0     1.008    7.072932    0.040434    3.480063
  22 H     1.0000    0     1.008    7.640738    1.016310    0.487162
  23 H     1.0000    0     1.008    0.855928    6.414385   -1.955201
  24 H     1.0000    0     1.008    3.367151    4.419932   -0.945334
  25 H     1.0000    0     1.008    2.045027    4.192284   -3.873945
  26 H     1.0000    0     1.008   -1.422127   -3.189534    2.963236
  27 H     1.0000    0     1.008   -2.079084    1.110495    4.906924
  28 H     1.0000    0     1.008    1.567730   -3.358234   -4.227309
  29 H     1.0000    0     1.008   -5.848490    0.279090   -1.438533

--------------------------------
INTERNAL COORDINATES (ANGSTROEM)
--------------------------------
 O      0   0   0     0.000000000000     0.00000000     0.00000000
 O      1   0   0     5.184954837925     0.00000000     0.00000000
 O      2   1   0     4.203870665402    55.40574896     0.00000000
 O      3   2   1     4.169009000521    65.28093072   120.12254418
 N      3   2   1     2.266347841850    82.81119085    64.57703807
 N      4   3   2     2.164941443176    79.93817490   300.12511422
 N      1   2   3     2.231570474687    40.90533145   356.30481541
 N      2   1   3     2.196274332669    92.51458992    44.85395534
 C      1   2   3     2.339910445182    71.40606556   287.18232960
 C      6   4   3     2.323776853862   126.55294599    46.04188904
 C      5   3   2     1.457085521411   143.53878950   320.16813422
 C      6   4   3     1.421601181497   142.15613550   355.72791113
 C      9   1   2     1.496581276327   100.38843675   236.92285753
 C     10   6   4     1.481497001963   142.81539632   154.98229901
 C      1   2   3     1.176364437416    53.43532027   314.03999643
 C      2   1   3     1.221963084441    65.45457134    69.97548462
 C      3   2   1     1.193161452837    71.57761717    35.56768275
 C      4   3   2     1.172446742697    62.16224259   333.58467633
 H     11   5   3     1.115426933118   108.31662980   187.69073786
 H     12   6   4     1.046421243679   106.64616083   193.04691955
 H     13   9   1     1.107330519689   105.60830339   110.21530518
 H     13   9   1     1.082428716214   111.24830062   242.85302844
 H     13   9   1     1.065440056435   110.55835579   357.89626477
 H     14  10   6     1.077802823722   111.48542707   297.81159983
 H     14  10   6     1.062398166982   107.23390013    61.31913724
 H     14  10   6     1.072756232488   117.27498137   180.23837616
 H      5   3   2     0.994868212020    92.45407163   104.28189794
 H      6   4   3     1.011307304172    72.36093727   252.00334400
 H      7   1   2     1.070941416086    84.38613654    88.99364701
 H      8   2   1     1.024030010624    81.28084087   236.71327741

---------------------------
INTERNAL COORDINATES (A.U.)
---------------------------
 O      0   0   0     0.000000000000     0.00000000     0.00000000
 O      1   0   0     9.798144660427     0.00000000     0.00000000
 O      2   1   0     7.944164260035    55.40574896     0.00000000
 O      3   2   1     7.878285260837    65.28093072   120.12254418
 N      3   2   1     4.282776745300    82.81119085    64.57703807
 N      4   3   2     4.091146423579    79.93817490   300.12511422
 N      1   2   3     4.217057045703    40.90533145   356.30481541
 N      2   1   3     4.150357003705    92.51458992    44.85395534
 C      1   2   3     4.421789919296    71.40606556   287.18232960
 C      6   4   3     4.391301850144   126.55294599    46.04188904
 C      5   3   2     2.753492589168   143.53878950   320.16813422
 C      6   4   3     2.686436904689   142.15613550   355.72791113
 C      9   1   2     2.828128749411   100.38843675   236.92285753
 C     10   6   4     2.799623601935   142.81539632   154.98229901
 C      1   2   3     2.223006620400    53.43532027   314.03999643
 C      2   1   3     2.309175575355    65.45457134    69.97548462
 C      3   2   1     2.254748379413    71.57761717    35.56768275
 C      4   3   2     2.215603250304    62.16224259   333.58467633
 H     11   5   3     2.107851425993   108.31662980   187.69073786
 H     12   6   4     1.977449571270   106.64616083   193.04691955
 H     13   9   1     2.092551421944   105.60830339   110.21530518
 H     13   9   1     2.045493833137   111.24830062   242.85302844
 H     13   9   1     2.013389918773   110.55835579   357.89626477
 H     14  10   6     2.036752163201   111.48542707   297.81159983
 H     14  10   6     2.007641580775   107.23390013    61.31913724
 H     14  10   6     2.027215487859   117.27498137   180.23837616
 H      5   3   2     1.880028460062    92.45407163   104.28189794
 H      6   4   3     1.911093842119    72.36093727   252.00334400
 H      7   1   2     2.023785981876    84.38613654    88.99364701
 H      8   2   1     1.935136272995    81.28084087   236.71327741

---------------------
BASIS SET INFORMATION
---------------------
There are 4 groups of distinct atoms

 Group   1 Type O   : 12s7p3d1f contracted to 6s4p3d1f pattern {621111/4111/111/1}
 Group   2 Type N   : 12s6p3d1f contracted to 6s3p3d1f pattern {621111/411/111/1}
 Group   3 Type C   : 12s6p3d1f contracted to 6s3p3d1f pattern {621111/411/111/1}
 Group   4 Type H   : 5s3p1d contracted to 3s3p1d pattern {311/111/1}

Atom   0O    basis set group =>   1
Atom   1O    basis set group =>   1
Atom   2O    basis set group =>   1
Atom   3O    basis set group =>   1
Atom   4N    basis set group =>   2
Atom   5N    basis set group =>   2
Atom   6N    basis set group =>   2
Atom   7N    basis set group =>   2
Atom   8C    basis set group =>   3
Atom   9C    basis set group =>   3
Atom  10C    basis set group =>   3
Atom  11C    basis set group =>   3
Atom  12C    basis set group =>   3
Atom  13C    basis set group =>   3
Atom  14C    basis set group =>   3
Atom  15C    basis set group =>   3
Atom  16C    basis set group =>   3
Atom  17C    basis set group =>   3
Atom  18H    basis set group =>   4
Atom  19H    basis set group =>   4
Atom  20H    basis set group =>   4
Atom  21H    basis set group =>   4
Atom  22H    basis set group =>   4
Atom  23H    basis set group =>   4
Atom  24H    basis set group =>   4
Atom  25H    basis set group =>   4
Atom  26H    basis set group =>   4
Atom  27H    basis set group =>   4
Atom  28H    basis set group =>   4
Atom  29H    basis set group =>   4
---------------------------------
AUXILIARY/J BASIS SET INFORMATION
---------------------------------
There are 4 groups of distinct atoms

 Group   1 Type O   : 12s5p4d2f1g contracted to 6s4p3d1f1g pattern {711111/2111/211/2/1}
 Group   2 Type N   : 12s5p4d2f1g contracted to 6s4p3d1f1g pattern {711111/2111/211/2/1}
 Group   3 Type C   : 12s5p4d2f1g contracted to 6s4p3d1f1g pattern {711111/2111/211/2/1}
 Group   4 Type H   : 5s2p1d contracted to 3s1p1d pattern {311/2/1}

Atom   0O    basis set group =>   1
Atom   1O    basis set group =>   1
Atom   2O    basis set group =>   1
Atom   3O    basis set group =>   1
Atom   4N    basis set group =>   2
Atom   5N    basis set group =>   2
Atom   6N    basis set group =>   2
Atom   7N    basis set group =>   2
Atom   8C    basis set group =>   3
Atom   9C    basis set group =>   3
Atom  10C    basis set group =>   3
Atom  11C    basis set group =>   3
Atom  12C    basis set group =>   3
Atom  13C    basis set group =>   3
Atom  14C    basis set group =>   3
Atom  15C    basis set group =>   3
Atom  16C    basis set group =>   3
Atom  17C    basis set group =>   3
Atom  18H    basis set group =>   4
Atom  19H    basis set group =>   4
Atom  20H    basis set group =>   4
Atom  21H    basis set group =>   4
Atom  22H    basis set group =>   4
Atom  23H    basis set group =>   4
Atom  24H    basis set group =>   4
Atom  25H    basis set group =>   4
Atom  26H    basis set group =>   4
Atom  27H    basis set group =>   4
Atom  28H    basis set group =>   4
Atom  29H    basis set group =>   4
[1741082718.105047] [ohm:579828:0]        ib_iface.c:1059 UCX  ERROR ibv_create_cq(cqe=256) failed: Connection timed out
[1741082718.113626] [ohm:579829:0]        ib_iface.c:1059 UCX  ERROR ibv_create_cq(cqe=256) failed: Connection timed out
[1741082718.113919] [ohm:579832:0]        ib_iface.c:1059 UCX  ERROR ibv_create_cq(cqe=256) failed: Connection timed out
[1741082718.119709] [ohm:579830:0]        ib_iface.c:1059 UCX  ERROR ibv_create_cq(cqe=256) failed: Connection timed out
[1741082718.131160] [ohm:579836:0]        ib_iface.c:1059 UCX  ERROR ibv_create_cq(cqe=256) failed: Connection timed out
[1741082718.131596] [ohm:579869:0]        ib_iface.c:1059 UCX  ERROR ibv_create_cq(cqe=256) failed: Connection timed out
[1741082718.131596] [ohm:579831:0]        ib_iface.c:1059 UCX  ERROR ibv_create_cq(cqe=256) failed: Connection timed out
[1741082718.132059] [ohm:579837:0]        ib_iface.c:1059 UCX  ERROR ibv_create_cq(cqe=256) failed: Connection timed out
[1741082718.136168] [ohm:579835:0]        ib_iface.c:1059 UCX  ERROR ibv_create_cq(cqe=256) failed: Connection timed out
[1741082718.136818] [ohm:579834:0]        ib_iface.c:1059 UCX  ERROR ibv_create_cq(cqe=256) failed: Connection timed out
[1741082718.168739] [ohm:579849:0]        ib_iface.c:1059 UCX  ERROR ibv_create_cq(cqe=256) failed: Connection timed out
[1741082718.168805] [ohm:579833:0]        ib_iface.c:1059 UCX  ERROR ibv_create_cq(cqe=256) failed: Connection timed out
[1741082718.181671] [ohm:579856:0]        ib_iface.c:1059 UCX  ERROR ibv_create_cq(cqe=256) failed: Connection timed out
[1741082718.192330] [ohm:579839:0]        ib_iface.c:1059 UCX  ERROR ibv_create_cq(cqe=256) failed: Connection timed out
[1741082718.193267] [ohm:579859:0]        ib_iface.c:1059 UCX  ERROR ibv_create_cq(cqe=256) failed: Connection timed out
[1741082718.205711] [ohm:579858:0]        ib_iface.c:1059 UCX  ERROR ibv_create_cq(cqe=256) failed: Connection timed out
[1741082718.208608] [ohm:579838:0]        ib_iface.c:1059 UCX  ERROR ibv_create_cq(cqe=256) failed: Connection timed out
[1741082718.243308] [ohm:579855:0]        ib_iface.c:1059 UCX  ERROR ibv_create_cq(cqe=256) failed: Connection timed out
[1741082718.272528] [ohm:579887:0]        ib_iface.c:1059 UCX  ERROR ibv_create_cq(cqe=256) failed: Connection timed out
[1741082718.278434] [ohm:579880:0]        ib_iface.c:1059 UCX  ERROR ibv_create_cq(cqe=256) failed: Connection timed out
[1741082718.291126] [ohm:579852:0]        ib_iface.c:1059 UCX  ERROR ibv_create_cq(cqe=256) failed: Connection timed out
[1741082718.294095] [ohm:579888:0]        ib_iface.c:1059 UCX  ERROR ibv_create_cq(cqe=256) failed: Connection timed out
[1741082718.295601] [ohm:579857:0]        ib_iface.c:1059 UCX  ERROR ibv_create_cq(cqe=256) failed: Connection timed out
[1741082718.297684] [ohm:579850:0]        ib_iface.c:1059 UCX  ERROR ibv_create_cq(cqe=256) failed: Connection timed out
[1741082718.310782] [ohm:579932:0]        ib_iface.c:1059 UCX  ERROR ibv_create_cq(cqe=256) failed: Connection timed out
[1741082718.311951] [ohm:579862:0]        ib_iface.c:1059 UCX  ERROR ibv_create_cq(cqe=256) failed: Connection timed out
[1741082718.313348] [ohm:579854:0]        ib_iface.c:1059 UCX  ERROR ibv_create_cq(cqe=256) failed: Connection timed out
[1741082718.329844] [ohm:579916:0]        ib_iface.c:1059 UCX  ERROR ibv_create_cq(cqe=256) failed: Connection timed out
[1741082718.337152] [ohm:579867:0]        ib_iface.c:1059 UCX  ERROR ibv_create_cq(cqe=256) failed: Connection timed out
[1741082718.338518] [ohm:579923:0]        ib_iface.c:1059 UCX  ERROR ibv_create_cq(cqe=256) failed: Connection timed out
[1741082718.339616] [ohm:579876:0]        ib_iface.c:1059 UCX  ERROR ibv_create_cq(cqe=256) failed: Connection timed out
[1741082718.349560] [ohm:579875:0]        ib_iface.c:1059 UCX  ERROR ibv_create_cq(cqe=256) failed: Connection timed out
[1741082718.350422] [ohm:579886:0]        ib_iface.c:1059 UCX  ERROR ibv_create_cq(cqe=256) failed: Connection timed out
[1741082718.352132] [ohm:579894:0]        ib_iface.c:1059 UCX  ERROR ibv_create_cq(cqe=256) failed: Connection timed out
[1741082718.352768] [ohm:579846:0]        ib_iface.c:1059 UCX  ERROR ibv_create_cq(cqe=256) failed: Connection timed out
[1741082718.368043] [ohm:579883:0]        ib_iface.c:1059 UCX  ERROR ibv_create_cq(cqe=256) failed: Connection timed out
[1741082718.384302] [ohm:579917:0]        ib_iface.c:1059 UCX  ERROR ibv_create_cq(cqe=256) failed: Connection timed out
[1741082718.384689] [ohm:579945:0]        ib_iface.c:1059 UCX  ERROR ibv_create_cq(cqe=256) failed: Connection timed out
[1741082718.385494] [ohm:579928:0]        ib_iface.c:1059 UCX  ERROR ibv_create_cq(cqe=256) failed: Connection timed out
[1741082718.387960] [ohm:579978:0]        ib_iface.c:1059 UCX  ERROR ibv_create_cq(cqe=256) failed: Connection timed out
[1741082718.390621] [ohm:579879:0]        ib_iface.c:1059 UCX  ERROR ibv_create_cq(cqe=256) failed: Connection timed out
[1741082718.393148] [ohm:579951:0]        ib_iface.c:1059 UCX  ERROR ibv_create_cq(cqe=256) failed: Connection timed out
[1741082718.394478] [ohm:579942:0]        ib_iface.c:1059 UCX  ERROR ibv_create_cq(cqe=256) failed: Connection timed out
[1741082718.405181] [ohm:579882:0]        ib_iface.c:1059 UCX  ERROR ibv_create_cq(cqe=256) failed: Connection timed out
[1741082718.411486] [ohm:579939:0]        ib_iface.c:1059 UCX  ERROR ibv_create_cq(cqe=256) failed: Connection timed out
[1741082718.413735] [ohm:579896:0]        ib_iface.c:1059 UCX  ERROR ibv_create_cq(cqe=256) failed: Connection timed out
[1741082718.422999] [ohm:579890:0]        ib_iface.c:1059 UCX  ERROR ibv_create_cq(cqe=256) failed: Connection timed out
[1741082718.423208] [ohm:579947:0]        ib_iface.c:1059 UCX  ERROR ibv_create_cq(cqe=256) failed: Connection timed out
[1741082718.425382] [ohm:579966:0]        ib_iface.c:1059 UCX  ERROR ibv_create_cq(cqe=256) failed: Connection timed out
[1741082718.428907] [ohm:579906:0]        ib_iface.c:1059 UCX  ERROR ibv_create_cq(cqe=256) failed: Connection timed out
[1741082718.430005] [ohm:579910:0]        ib_iface.c:1059 UCX  ERROR ibv_create_cq(cqe=256) failed: Connection timed out
[1741082718.436967] [ohm:579969:0]        ib_iface.c:1059 UCX  ERROR ibv_create_cq(cqe=256) failed: Connection timed out
[1741082718.437856] [ohm:579901:0]        ib_iface.c:1059 UCX  ERROR ibv_create_cq(cqe=256) failed: Connection timed out
[1741082718.437868] [ohm:579959:0]        ib_iface.c:1059 UCX  ERROR ibv_create_cq(cqe=256) failed: Connection timed out
[1741082718.438249] [ohm:579884:0]        ib_iface.c:1059 UCX  ERROR ibv_create_cq(cqe=256) failed: Connection timed out
[1741082718.439965] [ohm:579860:0]        ib_iface.c:1059 UCX  ERROR ibv_create_cq(cqe=256) failed: Connection timed out
[1741082718.441099] [ohm:579955:0]        ib_iface.c:1059 UCX  ERROR ibv_create_cq(cqe=256) failed: Connection timed out
[1741082718.441183] [ohm:579975:0]        ib_iface.c:1059 UCX  ERROR ibv_create_cq(cqe=256) failed: Connection timed out
[1741082718.441340] [ohm:579920:0]        ib_iface.c:1059 UCX  ERROR ibv_create_cq(cqe=256) failed: Connection timed out
[1741082718.441908] [ohm:579963:0]        ib_iface.c:1059 UCX  ERROR ibv_create_cq(cqe=256) failed: Connection timed out
[1741082718.442681] [ohm:579912:0]        ib_iface.c:1059 UCX  ERROR ibv_create_cq(cqe=256) failed: Connection timed out
[1741082718.443101] [ohm:579902:0]        ib_iface.c:1059 UCX  ERROR ibv_create_cq(cqe=256) failed: Connection timed out
[1741082718.445329] [ohm:579885:0]        ib_iface.c:1059 UCX  ERROR ibv_create_cq(cqe=256) failed: Connection timed out
[1741082718.446113] [ohm:579972:0]        ib_iface.c:1059 UCX  ERROR ibv_create_cq(cqe=256) failed: Connection timed out


           ************************************************************
           *        Program running with 64 parallel MPI-processes    *
           *              working on a common directory               *
           ************************************************************
------------------------------------------------------------------------------
                             ORCA STARTUP CALCULATIONS
                           -- RI-GTO INTEGRALS CHOSEN --
------------------------------------------------------------------------------
------------------------------------------------------------------------------
                   ___                                                        
                  /   \      - P O W E R E D   B Y -                         
                 /     \                                                     
                 |  |  |   _    _      __       _____    __    __             
                 |  |  |  | |  | |    /  \     |  _  \  |  |  /  |          
                  \  \/   | |  | |   /    \    | | | |  |  | /  /          
                 / \  \   | |__| |  /  /\  \   | |_| |  |  |/  /          
                |  |  |   |  __  | /  /__\  \  |    /   |      \           
                |  |  |   | |  | | |   __   |  |    \   |  |\   \          
                \     /   | |  | | |  |  |  |  | |\  \  |  | \   \       
                 \___/    |_|  |_| |__|  |__|  |_| \__\ |__|  \__/        
                                                                              
                      - O R C A' S   B I G   F R I E N D -                    
                                      &                                       
                       - I N T E G R A L  F E E D E R -                       
                                                                              
 v1 FN, 2020, v2 2021, v3 2022-2024                                           
------------------------------------------------------------------------------


----------------------
SHARK INTEGRAL PACKAGE
----------------------

Number of atoms                             ...     30
Number of basis functions                   ...    882
Number of shells                            ...    322
Maximum angular momentum                    ...      3
Integral batch strategy                     ... SHARK/LIBINT Hybrid
RI-J (if used) integral strategy            ... SPLIT-RIJ (Revised 2003 algorithm where possible)
Printlevel                                  ...      1
Contraction scheme used                     ... SEGMENTED contraction
Prescreening option                         ... SCHWARTZ
   Thresh                                   ... 2.500e-11
   Tcut                                     ... 2.500e-12
   Tpresel                                  ... 2.500e-12 
Coulomb Range Separation                    ... NOT USED
Exchange Range Separation                   ... Long Range
   Mu parameter                             ... 3.000e-01
   Scaling (regular/separated)              ... 1.500e-01 8.500e-01
Multipole approximations                    ... NOT USED
Finite Nucleus Model                        ... NOT USED
CABS basis                                  ... NOT available
Auxiliary Coulomb fitting basis             ... AVAILABLE
   # of basis functions in Aux-J            ...   1014
   # of shells in Aux-J                     ...    330
   Maximum angular momentum in Aux-J        ...      4
Auxiliary J/K fitting basis                 ... NOT available
Auxiliary Correlation fitting basis         ... NOT available
Auxiliary 'external' fitting basis          ... NOT available

Checking pre-screening integrals            ... done (  0.0 sec) Dimension = 322
Check shell pair data                       ... done (  0.0 sec)
Shell pair information
Shell pair cut-off parameter TPreSel        ...   2.5e-12
Total number of shell pairs                 ...     52003
Shell pairs after pre-screening             ...     45368
Total number of primitive shell pairs       ...    129718
Primitive shell pairs kept                  ...     85043
          la=0 lb=0:   8780 shell pairs
          la=1 lb=0:  11990 shell pairs
          la=1 lb=1:   4137 shell pairs
          la=2 lb=0:   8157 shell pairs
          la=2 lb=1:   5628 shell pairs
          la=2 lb=2:   1944 shell pairs
          la=3 lb=0:   2095 shell pairs
          la=3 lb=1:   1478 shell pairs
          la=3 lb=2:   1014 shell pairs
          la=3 lb=3:    145 shell pairs

Calculating one electron integrals          ... done (  0.2 sec)
Calculating RI/J V-Matrix + Cholesky decomp.... done (  0.0 sec)
Calculating Nuclear repulsion               ... done (  0.0 sec) ENN=   1461.377963583213 Eh

Diagonalization of the overlap matrix:
Smallest eigenvalue                        ... 4.963e-07
Time for diagonalization                   ...    0.129 sec
Threshold for overlap eigenvalues          ... 1.000e-07
Number of eigenvalues below threshold      ... 0

IMPORTANT:
Smallest eigenvalue of S below the DiffSThresh (1.000e-06) while
Thresh>1e-12 and/or TCut>1e-13! In order to avoid SCF convergence issues,
Thresh will be set to at least 1e-12 and TCut to at least 1e-13.
This can be turned off by adding %SCF DiffSThresh -1 END to the input.

Time for construction of square roots      ...    0.129 sec
Total time needed                          ...    0.270 sec

-------------------
DFT GRID GENERATION
-------------------

General Integration Accuracy     IntAcc      ... 4.388
Radial Grid Type                 RadialGrid  ... OptM3 with GC (2021)
Angular Grid (max. ang.)         AngularGrid ... 4 (Lebedev-302)
Angular grid pruning method      GridPruning ... 4 (adaptive)
Weight generation scheme         WeightScheme... mBecke (2022)
Basis function cutoff            BFCut       ... 1.0000e-11
Integration weight cutoff        WCut        ... 1.0000e-14
Partially contracted basis set               ... off
Rotationally invariant grid construction     ... off
Angular grids for H and He will be reduced by one unit
Diffuse basis detected: some atoms will have their outermost
                        angular grid increased by 1.

Total number of grid points                  ...   151627
Total number of batches                      ...     2383
Average number of points per batch           ...       63
Average number of grid points per atom       ...     5054

--------------------
COSX GRID GENERATION
--------------------

GRIDX 1
-------
General Integration Accuracy     IntAcc      ... 3.816
Radial Grid Type                 RadialGrid  ... OptM3 with GC (2021)
Angular Grid (max. ang.)         AngularGrid ... 1 (Lebedev-50)
Angular grid pruning method      GridPruning ... 4 (adaptive)
Weight generation scheme         WeightScheme... mBecke (2022)
Basis function cutoff            BFCut       ... 1.0000e-11
Integration weight cutoff        WCut        ... 1.0000e-14
Partially contracted basis set               ... on
Rotationally invariant grid construction     ... off
Angular grids for H and He will be reduced by one unit
Diffuse basis detected: some atoms will have their outermost
                        angular grid increased by 1.

Total number of grid points                  ...    19004
Total number of batches                      ...      165
Average number of points per batch           ...      115
Average number of grid points per atom       ...      633
UseSFitting                                  ... on

GRIDX 2
-------
General Integration Accuracy     IntAcc      ... 4.020
Radial Grid Type                 RadialGrid  ... OptM3 with GC (2021)
Angular Grid (max. ang.)         AngularGrid ... 2 (Lebedev-110)
Angular grid pruning method      GridPruning ... 4 (adaptive)
Weight generation scheme         WeightScheme... mBecke (2022)
Basis function cutoff            BFCut       ... 1.0000e-11
Integration weight cutoff        WCut        ... 1.0000e-14
Partially contracted basis set               ... on
Rotationally invariant grid construction     ... off
Angular grids for H and He will be reduced by one unit
Diffuse basis detected: some atoms will have their outermost
                        angular grid increased by 1.

Total number of grid points                  ...    45717
Total number of batches                      ...      370
Average number of points per batch           ...      123
Average number of grid points per atom       ...     1524
UseSFitting                                  ... on

GRIDX 3
-------
General Integration Accuracy     IntAcc      ... 4.338
Radial Grid Type                 RadialGrid  ... OptM3 with GC (2021)
Angular Grid (max. ang.)         AngularGrid ... 3 (Lebedev-194)
Angular grid pruning method      GridPruning ... 4 (adaptive)
Weight generation scheme         WeightScheme... mBecke (2022)
Basis function cutoff            BFCut       ... 1.0000e-11
Integration weight cutoff        WCut        ... 1.0000e-14
Partially contracted basis set               ... on
Rotationally invariant grid construction     ... off
Angular grids for H and He will be reduced by one unit
Diffuse basis detected: some atoms will have their outermost
                        angular grid increased by 1.

Total number of grid points                  ...   100558
Total number of batches                      ...      802
Average number of points per batch           ...      125
Average number of grid points per atom       ...     3352
UseSFitting                                  ... on
Initializing property integral containers    ... done (  0.0 sec)

SHARK setup successfully completed in   4.1 seconds

Maximum memory used throughout the entire STARTUP-calculation: 80.5 MB
[1741082724.360948] [ohm:580192:0]        ib_iface.c:1059 UCX  ERROR ibv_create_cq(cqe=256) failed: Connection timed out
[1741082724.366443] [ohm:580195:0]        ib_iface.c:1059 UCX  ERROR ibv_create_cq(cqe=256) failed: Connection timed out
[1741082724.409610] [ohm:580190:0]        ib_iface.c:1059 UCX  ERROR ibv_create_cq(cqe=256) failed: Connection timed out
[1741082724.421497] [ohm:580200:0]        ib_iface.c:1059 UCX  ERROR ibv_create_cq(cqe=256) failed: Connection timed out
[1741082724.421685] [ohm:580196:0]        ib_iface.c:1059 UCX  ERROR ibv_create_cq(cqe=256) failed: Connection timed out
[1741082724.426103] [ohm:580191:0]        ib_iface.c:1059 UCX  ERROR ibv_create_cq(cqe=256) failed: Connection timed out
[1741082724.439738] [ohm:580206:0]        ib_iface.c:1059 UCX  ERROR ibv_create_cq(cqe=256) failed: Connection timed out
[1741082724.457606] [ohm:580194:0]        ib_iface.c:1059 UCX  ERROR ibv_create_cq(cqe=256) failed: Connection timed out
[1741082724.475084] [ohm:580199:0]        ib_iface.c:1059 UCX  ERROR ibv_create_cq(cqe=256) failed: Connection timed out
[1741082724.478828] [ohm:580201:0]        ib_iface.c:1059 UCX  ERROR ibv_create_cq(cqe=256) failed: Connection timed out
[1741082724.481582] [ohm:580210:0]        ib_iface.c:1059 UCX  ERROR ibv_create_cq(cqe=256) failed: Connection timed out
[1741082724.484154] [ohm:580197:0]        ib_iface.c:1059 UCX  ERROR ibv_create_cq(cqe=256) failed: Connection timed out
[1741082724.486943] [ohm:580209:0]        ib_iface.c:1059 UCX  ERROR ibv_create_cq(cqe=256) failed: Connection timed out
[1741082724.499323] [ohm:580214:0]        ib_iface.c:1059 UCX  ERROR ibv_create_cq(cqe=256) failed: Connection timed out
[1741082724.502352] [ohm:580257:0]        ib_iface.c:1059 UCX  ERROR ibv_create_cq(cqe=256) failed: Connection timed out
[1741082724.510556] [ohm:580273:0]        ib_iface.c:1059 UCX  ERROR ibv_create_cq(cqe=256) failed: Connection timed out
[1741082724.535244] [ohm:580305:0]        ib_iface.c:1059 UCX  ERROR ibv_create_cq(cqe=256) failed: Connection timed out
[1741082724.547886] [ohm:580311:0]        ib_iface.c:1059 UCX  ERROR ibv_create_cq(cqe=256) failed: Connection timed out
[1741082724.555475] [ohm:580207:0]        ib_iface.c:1059 UCX  ERROR ibv_create_cq(cqe=256) failed: Connection timed out
[1741082724.555875] [ohm:580211:0]        ib_iface.c:1059 UCX  ERROR ibv_create_cq(cqe=256) failed: Connection timed out
[1741082724.559988] [ohm:580272:0]        ib_iface.c:1059 UCX  ERROR ibv_create_cq(cqe=256) failed: Connection timed out
[1741082724.569045] [ohm:580204:0]        ib_iface.c:1059 UCX  ERROR ibv_create_cq(cqe=256) failed: Connection timed out
[1741082724.581176] [ohm:580193:0]        ib_iface.c:1059 UCX  ERROR ibv_create_cq(cqe=256) failed: Connection timed out
[1741082724.596368] [ohm:580202:0]        ib_iface.c:1059 UCX  ERROR ibv_create_cq(cqe=256) failed: Connection timed out
[1741082724.597572] [ohm:580329:0]        ib_iface.c:1059 UCX  ERROR ibv_create_cq(cqe=256) failed: Connection timed out
[1741082724.604037] [ohm:580217:0]        ib_iface.c:1059 UCX  ERROR ibv_create_cq(cqe=256) failed: Connection timed out
[1741082724.627944] [ohm:580213:0]        ib_iface.c:1059 UCX  ERROR ibv_create_cq(cqe=256) failed: Connection timed out
[1741082724.629545] [ohm:580320:0]        ib_iface.c:1059 UCX  ERROR ibv_create_cq(cqe=256) failed: Connection timed out
[1741082724.631932] [ohm:580198:0]        ib_iface.c:1059 UCX  ERROR ibv_create_cq(cqe=256) failed: Connection timed out
[1741082724.638711] [ohm:580212:0]        ib_iface.c:1059 UCX  ERROR ibv_create_cq(cqe=256) failed: Connection timed out
[1741082724.642409] [ohm:580265:0]        ib_iface.c:1059 UCX  ERROR ibv_create_cq(cqe=256) failed: Connection timed out
[1741082724.644604] [ohm:580219:0]        ib_iface.c:1059 UCX  ERROR ibv_create_cq(cqe=256) failed: Connection timed out
[1741082724.650215] [ohm:580242:0]        ib_iface.c:1059 UCX  ERROR ibv_create_cq(cqe=256) failed: Connection timed out
[1741082724.655347] [ohm:580294:0]        ib_iface.c:1059 UCX  ERROR ibv_create_cq(cqe=256) failed: Connection timed out
[1741082724.658721] [ohm:580322:0]        ib_iface.c:1059 UCX  ERROR ibv_create_cq(cqe=256) failed: Connection timed out
[1741082724.660572] [ohm:580240:0]        ib_iface.c:1059 UCX  ERROR ibv_create_cq(cqe=256) failed: Connection timed out
[1741082724.665044] [ohm:580275:0]        ib_iface.c:1059 UCX  ERROR ibv_create_cq(cqe=256) failed: Connection timed out
[1741082724.668330] [ohm:580284:0]        ib_iface.c:1059 UCX  ERROR ibv_create_cq(cqe=256) failed: Connection timed out
[1741082724.668670] [ohm:580248:0]        ib_iface.c:1059 UCX  ERROR ibv_create_cq(cqe=256) failed: Connection timed out
[1741082724.685901] [ohm:580301:0]        ib_iface.c:1059 UCX  ERROR ibv_create_cq(cqe=256) failed: Connection timed out
[1741082724.688410] [ohm:580262:0]        ib_iface.c:1059 UCX  ERROR ibv_create_cq(cqe=256) failed: Connection timed out
[1741082724.697071] [ohm:580205:0]        ib_iface.c:1059 UCX  ERROR ibv_create_cq(cqe=256) failed: Connection timed out
[1741082724.699362] [ohm:580237:0]        ib_iface.c:1059 UCX  ERROR ibv_create_cq(cqe=256) failed: Connection timed out
[1741082724.699530] [ohm:580236:0]        ib_iface.c:1059 UCX  ERROR ibv_create_cq(cqe=256) failed: Connection timed out
[1741082724.703959] [ohm:580278:0]        ib_iface.c:1059 UCX  ERROR ibv_create_cq(cqe=256) failed: Connection timed out
[1741082724.709257] [ohm:580218:0]        ib_iface.c:1059 UCX  ERROR ibv_create_cq(cqe=256) failed: Connection timed out
[1741082724.710050] [ohm:580203:0]        ib_iface.c:1059 UCX  ERROR ibv_create_cq(cqe=256) failed: Connection timed out
[1741082724.710400] [ohm:580227:0]        ib_iface.c:1059 UCX  ERROR ibv_create_cq(cqe=256) failed: Connection timed out
[1741082724.712657] [ohm:580208:0]        ib_iface.c:1059 UCX  ERROR ibv_create_cq(cqe=256) failed: Connection timed out
[1741082724.716357] [ohm:580295:0]        ib_iface.c:1059 UCX  ERROR ibv_create_cq(cqe=256) failed: Connection timed out
[1741082724.721511] [ohm:580247:0]        ib_iface.c:1059 UCX  ERROR ibv_create_cq(cqe=256) failed: Connection timed out
[1741082724.732363] [ohm:580289:0]        ib_iface.c:1059 UCX  ERROR ibv_create_cq(cqe=256) failed: Connection timed out
[1741082724.732574] [ohm:580314:0]        ib_iface.c:1059 UCX  ERROR ibv_create_cq(cqe=256) failed: Connection timed out
[1741082724.734793] [ohm:580308:0]        ib_iface.c:1059 UCX  ERROR ibv_create_cq(cqe=256) failed: Connection timed out
[1741082724.737039] [ohm:580280:0]        ib_iface.c:1059 UCX  ERROR ibv_create_cq(cqe=256) failed: Connection timed out
[1741082724.737400] [ohm:580325:0]        ib_iface.c:1059 UCX  ERROR ibv_create_cq(cqe=256) failed: Connection timed out
[1741082724.737372] [ohm:580333:0]        ib_iface.c:1059 UCX  ERROR ibv_create_cq(cqe=256) failed: Connection timed out
[1741082724.737819] [ohm:580230:0]        ib_iface.c:1059 UCX  ERROR ibv_create_cq(cqe=256) failed: Connection timed out
[1741082724.739445] [ohm:580299:0]        ib_iface.c:1059 UCX  ERROR ibv_create_cq(cqe=256) failed: Connection timed out
[1741082724.742631] [ohm:580253:0]        ib_iface.c:1059 UCX  ERROR ibv_create_cq(cqe=256) failed: Connection timed out
[1741082724.742756] [ohm:580215:0]        ib_iface.c:1059 UCX  ERROR ibv_create_cq(cqe=256) failed: Connection timed out
[1741082724.742769] [ohm:580287:0]        ib_iface.c:1059 UCX  ERROR ibv_create_cq(cqe=256) failed: Connection timed out
[1741082724.743944] [ohm:580223:0]        ib_iface.c:1059 UCX  ERROR ibv_create_cq(cqe=256) failed: Connection timed out
[1741082724.744095] [ohm:580317:0]        ib_iface.c:1059 UCX  ERROR ibv_create_cq(cqe=256) failed: Connection timed out


           ************************************************************
           *        Program running with 64 parallel MPI-processes    *
           *              working on a common directory               *
           ************************************************************
-------------------------------------------------------------------------------
                                 ORCA GUESS
                   Start orbitals & Density for SCF / CASSCF
-------------------------------------------------------------------------------

------------
SCF SETTINGS
------------
Hamiltonian:
 Density Functional     Method          .... DFT(GTOs)
  Functional kind                       .... Exchange-Correlation
  Functional name                       .... wB97M-V exchange-correlation functional
  Functional family                     .... Hybrid MGGA
  Functional refs                              
    [ 0] N. Mardirossian and M. Head-Gordon.,  J. Chem. Phys. 144, 214110 (2016), doi: 10.1063/1.4952647
  Fraction of HF Exchange (short range) .... 0.1500
  Fraction of HF Exchange (long range)  .... 1.0000
  Range separation parameter mu         .... 0.3000
  Functional external parameters        .... 17
    Parameter  0 _cx00      =  8.500000e-01 : u^00 coefficient for exchange
    Parameter  1 _cx01      =  1.007000e+00 : u^01 coefficient for exchange
    Parameter  2 _cx10      =  2.590000e-01 : u^10 coefficient for exchange
    Parameter  3 _css00     =  4.430000e-01 : u^00 coefficient for same-spin correlation
    Parameter  4 _css04     = -1.437000e+00 : u^04 coefficient for same-spin correlation
    Parameter  5 _css10     = -4.535000e+00 : u^10 coefficient for same-spin correlation
    Parameter  6 _css20     = -3.390000e+00 : u^20 coefficient for same-spin correlation
    Parameter  7 _css43     =  4.278000e+00 : u^43 coefficient for same-spin correlation
    Parameter  8 _cos00     =  1.000000e+00 : u^00 coefficient for opposite-spin correlation
    Parameter  9 _cos10     =  1.358000e+00 : u^10 coefficient for opposite-spin correlation
    Parameter 10 _cos20     =  2.924000e+00 : u^20 coefficient for opposite-spin correlation
    Parameter 11 _cos21     = -8.812000e+00 : u^21 coefficient for opposite-spin correlation
    Parameter 12 _cos60     = -1.390000e+00 : u^60 coefficient for opposite-spin correlation
    Parameter 13 _cos61     =  9.142000e+00 : u^61 coefficient for opposite-spin correlation
    Parameter 14 _alpha     =  1.000000e+00 : fraction of HF exchange
    Parameter 15 _beta      = -8.500000e-01 : fraction of short-range exchange
    Parameter 16 _omega     =  3.000000e-01 : range-separation constant
 Long-range corrected/Screened/Range-Separated Hybrid DFT is turned on
   Amount of maximum screened exact exchange              ....  0.850000
   Range separation parameter mu (erf(mu*r12)/r12)        ....  0.300000
 RI-approximation to the Coulomb term is turned on
   Number of AuxJ basis functions       .... 1014
   RIJ-COSX (HFX calculated with COS-X)).... on


General Settings:
 Integral files         IntName         .... orca
 Hartree-Fock type      HFTyp           .... UHF
 Total Charge           Charge          ....    0
 Multiplicity           Mult            ....    3
 Number of Electrons    NEL             ....  132
 Basis Dimension        Dim             ....  882
 Nuclear Repulsion      ENuc            ....   1461.3779635832 Eh

Convergence Acceleration:
 AO-DIIS                CNVDIIS         .... on
   Start iteration      DIISMaxIt       ....    12
   Startup error        DIISStart       ....  0.200000
   # of expansion vecs  DIISMaxEq       ....     5
   Bias factor          DIISBfac        ....   1.050
   Max. coefficient     DIISMaxC        ....  10.000
 MO-DIIS                CNVKDIIS        .... off
 Trust-Rad. Augm. Hess. CNVTRAH         .... auto
   Auto Start mean grad. ratio tolernc. ....  1.125000
   Auto Start start iteration           ....    50
   Auto Start num. interpolation iter.  ....    10
   Max. Number of Micro iterations      ....    24
   Max. Number of Macro iterations      .... Maxiter - #DIIS iter
   Number of Davidson start vectors     ....     2
   Converg. threshold    (grad. norm)   ....   1.000e-05
   Grad. Scal. Fac. for Micro threshold ....   0.100
   Minimum threshold for Micro iter.    ....   1.000e-02
   NR start threshold (gradient norm)   ....   1.000e-04
   Initial trust radius                 ....   0.400
   Minimum AH scaling param. (alpha)    ....   1.000
   Maximum AH scaling param. (alpha)    .... 1000.000
   Quad. conv. algorithm                .... NR
   White noise on init. David. guess    .... on
   Maximum white noise                  ....   0.010
   Pseudo random numbers                .... off
   Inactive MOs                         .... canonical
   Orbital update algorithm             .... Taylor
   Preconditioner                       .... Diag
   Full preconditioner red. dimension   ....   250
 SOSCF                  CNVSOSCF        .... on
   Start iteration      SOSCFMaxIt      ....   150
   Startup grad/error   SOSCFStart      ....  0.003300
   Hessian update       SOSCFHessUp     .... L-BFGS
 Level Shifting         CNVShift        .... on
   Level shift para.    LevelShift      ....    0.2500
   Turn off err/grad.   ShiftErr        ....    0.0010
 Zerner damping         CNVZerner       .... off
 Static damping         CNVDamp         .... on
   Fraction old density DampFac         ....    0.7000
   Max. Damping (<1)    DampMax         ....    0.9800
   Min. Damping (>=0)   DampMin         ....    0.0000
   Turn off err/grad.   DampErr         ....    0.1000

SCF Procedure:
 Maximum # iterations   MaxIter         ....   125
 SCF integral mode      SCFMode         .... Direct
   Integral package                     .... SHARK and LIBINT hybrid scheme
 Reset frequency        DirectResetFreq ....    20
 Integral Threshold     Thresh          ....  1.000e-12 Eh
 Primitive CutOff       TCut            ....  1.000e-13 Eh

Convergence Tolerance:
 Convergence Check Mode ConvCheckMode   .... Total+1el-Energy
 Convergence forced     ConvForced      .... 1
 Energy Change          TolE            ....  1.000e-08 Eh
 1-El. energy change                    ....  1.000e-05 Eh
 Orbital Gradient       TolG            ....  1.000e-05
 Orbital Rotation angle TolX            ....  1.000e-05
 DIIS Error             TolErr          ....  5.000e-07

------------------------------
INITIAL GUESS: MODEL POTENTIAL
------------------------------
Loading Hartree-Fock densities                     ... done
Calculating cut-offs                               ... done
Initializing the effective Hamiltonian             ... done
Setting up the integral package (SHARK)            ... done
Starting the Coulomb interaction                   ... done (   0.1 sec)
Making the grid                                    ... done (   0.2 sec)
Mapping shells                                     ... done
Starting the XC term evaluation                    ... done (   0.1 sec)
  promolecular density results
     # of electrons  =    131.993193998
     EX              =   -113.632663752
     EC              =     -4.510811194
     EX+EC           =   -118.143474947
Transforming the Hamiltonian                       ... done (   0.1 sec)
Diagonalizing the Hamiltonian                      ... done (   0.1 sec)
Back transforming the eigenvectors                 ... done (   0.1 sec)
Now organizing SCF variables                       ... done
                      ------------------
                      INITIAL GUESS DONE (   1.1 sec)
                      ------------------
             **** ENERGY FILE WAS UPDATED (orca.en.tmp) ****
Finished Guess after   3.6 sec
Maximum memory used throughout the entire GUESS-calculation: 73.0 MB
[1741082728.730378] [ohm:580542:0]        ib_iface.c:1059 UCX  ERROR ibv_create_cq(cqe=256) failed: Connection timed out
[1741082728.737818] [ohm:580544:0]        ib_iface.c:1059 UCX  ERROR ibv_create_cq(cqe=256) failed: Connection timed out
[1741082728.741213] [ohm:580540:0]        ib_iface.c:1059 UCX  ERROR ibv_create_cq(cqe=256) failed: Connection timed out
[1741082728.745546] [ohm:580547:0]        ib_iface.c:1059 UCX  ERROR ibv_create_cq(cqe=256) failed: Connection timed out
[1741082728.754115] [ohm:580541:0]        ib_iface.c:1059 UCX  ERROR ibv_create_cq(cqe=256) failed: Connection timed out
[1741082728.760604] [ohm:580545:0]        ib_iface.c:1059 UCX  ERROR ibv_create_cq(cqe=256) failed: Connection timed out
[1741082728.768936] [ohm:580543:0]        ib_iface.c:1059 UCX  ERROR ibv_create_cq(cqe=256) failed: Connection timed out
[1741082728.778017] [ohm:580550:0]        ib_iface.c:1059 UCX  ERROR ibv_create_cq(cqe=256) failed: Connection timed out
[1741082728.778568] [ohm:580546:0]        ib_iface.c:1059 UCX  ERROR ibv_create_cq(cqe=256) failed: Connection timed out
[1741082728.780221] [ohm:580583:0]        ib_iface.c:1059 UCX  ERROR ibv_create_cq(cqe=256) failed: Connection timed out
[1741082728.782718] [ohm:580539:0]        ib_iface.c:1059 UCX  ERROR ibv_create_cq(cqe=256) failed: Connection timed out
[1741082728.783890] [ohm:580559:0]        ib_iface.c:1059 UCX  ERROR ibv_create_cq(cqe=256) failed: Connection timed out
[1741082728.784323] [ohm:580552:0]        ib_iface.c:1059 UCX  ERROR ibv_create_cq(cqe=256) failed: Connection timed out
[1741082728.787203] [ohm:580548:0]        ib_iface.c:1059 UCX  ERROR ibv_create_cq(cqe=256) failed: Connection timed out
[1741082728.788188] [ohm:580549:0]        ib_iface.c:1059 UCX  ERROR ibv_create_cq(cqe=256) failed: Connection timed out
[1741082728.788906] [ohm:580554:0]        ib_iface.c:1059 UCX  ERROR ibv_create_cq(cqe=256) failed: Connection timed out
[1741082728.878570] [ohm:580569:0]        ib_iface.c:1059 UCX  ERROR ibv_create_cq(cqe=256) failed: Connection timed out
[1741082728.890899] [ohm:580555:0]        ib_iface.c:1059 UCX  ERROR ibv_create_cq(cqe=256) failed: Connection timed out
[1741082728.893323] [ohm:580572:0]        ib_iface.c:1059 UCX  ERROR ibv_create_cq(cqe=256) failed: Connection timed out
[1741082728.895216] [ohm:580560:0]        ib_iface.c:1059 UCX  ERROR ibv_create_cq(cqe=256) failed: Connection timed out
[1741082728.898603] [ohm:580553:0]        ib_iface.c:1059 UCX  ERROR ibv_create_cq(cqe=256) failed: Connection timed out
[1741082728.900259] [ohm:580557:0]        ib_iface.c:1059 UCX  ERROR ibv_create_cq(cqe=256) failed: Connection timed out
[1741082728.916815] [ohm:580551:0]        ib_iface.c:1059 UCX  ERROR ibv_create_cq(cqe=256) failed: Connection timed out
[1741082728.925619] [ohm:580564:0]        ib_iface.c:1059 UCX  ERROR ibv_create_cq(cqe=256) failed: Connection timed out
[1741082728.934421] [ohm:580662:0]        ib_iface.c:1059 UCX  ERROR ibv_create_cq(cqe=256) failed: Connection timed out
[1741082728.939335] [ohm:580579:0]        ib_iface.c:1059 UCX  ERROR ibv_create_cq(cqe=256) failed: Connection timed out
[1741082728.942452] [ohm:580565:0]        ib_iface.c:1059 UCX  ERROR ibv_create_cq(cqe=256) failed: Connection timed out
[1741082728.943685] [ohm:580563:0]        ib_iface.c:1059 UCX  ERROR ibv_create_cq(cqe=256) failed: Connection timed out
[1741082728.949120] [ohm:580593:0]        ib_iface.c:1059 UCX  ERROR ibv_create_cq(cqe=256) failed: Connection timed out
[1741082728.970503] [ohm:580566:0]        ib_iface.c:1059 UCX  ERROR ibv_create_cq(cqe=256) failed: Connection timed out
[1741082728.973739] [ohm:580587:0]        ib_iface.c:1059 UCX  ERROR ibv_create_cq(cqe=256) failed: Connection timed out
[1741082728.976500] [ohm:580688:0]        ib_iface.c:1059 UCX  ERROR ibv_create_cq(cqe=256) failed: Connection timed out
[1741082728.978480] [ohm:580561:0]        ib_iface.c:1059 UCX  ERROR ibv_create_cq(cqe=256) failed: Connection timed out
[1741082728.979000] [ohm:580562:0]        ib_iface.c:1059 UCX  ERROR ibv_create_cq(cqe=256) failed: Connection timed out
[1741082728.981381] [ohm:580556:0]        ib_iface.c:1059 UCX  ERROR ibv_create_cq(cqe=256) failed: Connection timed out
[1741082728.990015] [ohm:580668:0]        ib_iface.c:1059 UCX  ERROR ibv_create_cq(cqe=256) failed: Connection timed out
[1741082728.997933] [ohm:580670:0]        ib_iface.c:1059 UCX  ERROR ibv_create_cq(cqe=256) failed: Connection timed out
[1741082728.998030] [ohm:580652:0]        ib_iface.c:1059 UCX  ERROR ibv_create_cq(cqe=256) failed: Connection timed out
[1741082728.998285] [ohm:580609:0]        ib_iface.c:1059 UCX  ERROR ibv_create_cq(cqe=256) failed: Connection timed out
[1741082729.001629] [ohm:580649:0]        ib_iface.c:1059 UCX  ERROR ibv_create_cq(cqe=256) failed: Connection timed out
[1741082729.005131] [ohm:580585:0]        ib_iface.c:1059 UCX  ERROR ibv_create_cq(cqe=256) failed: Connection timed out
[1741082729.006581] [ohm:580638:0]        ib_iface.c:1059 UCX  ERROR ibv_create_cq(cqe=256) failed: Connection timed out
[1741082729.010780] [ohm:580574:0]        ib_iface.c:1059 UCX  ERROR ibv_create_cq(cqe=256) failed: Connection timed out
[1741082729.012023] [ohm:580625:0]        ib_iface.c:1059 UCX  ERROR ibv_create_cq(cqe=256) failed: Connection timed out
[1741082729.012150] [ohm:580606:0]        ib_iface.c:1059 UCX  ERROR ibv_create_cq(cqe=256) failed: Connection timed out
[1741082729.018766] [ohm:580628:0]        ib_iface.c:1059 UCX  ERROR ibv_create_cq(cqe=256) failed: Connection timed out
[1741082729.019981] [ohm:580659:0]        ib_iface.c:1059 UCX  ERROR ibv_create_cq(cqe=256) failed: Connection timed out
[1741082729.024653] [ohm:580656:0]        ib_iface.c:1059 UCX  ERROR ibv_create_cq(cqe=256) failed: Connection timed out
[1741082729.033560] [ohm:580558:0]        ib_iface.c:1059 UCX  ERROR ibv_create_cq(cqe=256) failed: Connection timed out
[1741082729.037423] [ohm:580677:0]        ib_iface.c:1059 UCX  ERROR ibv_create_cq(cqe=256) failed: Connection timed out
[1741082729.039908] [ohm:580693:0]        ib_iface.c:1059 UCX  ERROR ibv_create_cq(cqe=256) failed: Connection timed out
[1741082729.041088] [ohm:580633:0]        ib_iface.c:1059 UCX  ERROR ibv_create_cq(cqe=256) failed: Connection timed out
[1741082729.041163] [ohm:580598:0]        ib_iface.c:1059 UCX  ERROR ibv_create_cq(cqe=256) failed: Connection timed out
[1741082729.041415] [ohm:580614:0]        ib_iface.c:1059 UCX  ERROR ibv_create_cq(cqe=256) failed: Connection timed out
[1741082729.044484] [ohm:580645:0]        ib_iface.c:1059 UCX  ERROR ibv_create_cq(cqe=256) failed: Connection timed out
[1741082729.045476] [ohm:580635:0]        ib_iface.c:1059 UCX  ERROR ibv_create_cq(cqe=256) failed: Connection timed out
[1741082729.045604] [ohm:580619:0]        ib_iface.c:1059 UCX  ERROR ibv_create_cq(cqe=256) failed: Connection timed out
[1741082729.047694] [ohm:580664:0]        ib_iface.c:1059 UCX  ERROR ibv_create_cq(cqe=256) failed: Connection timed out
[1741082729.048052] [ohm:580623:0]        ib_iface.c:1059 UCX  ERROR ibv_create_cq(cqe=256) failed: Connection timed out
[1741082729.048094] [ohm:580641:0]        ib_iface.c:1059 UCX  ERROR ibv_create_cq(cqe=256) failed: Connection timed out
[1741082729.051598] [ohm:580673:0]        ib_iface.c:1059 UCX  ERROR ibv_create_cq(cqe=256) failed: Connection timed out
[1741082729.052457] [ohm:580597:0]        ib_iface.c:1059 UCX  ERROR ibv_create_cq(cqe=256) failed: Connection timed out
[1741082729.052620] [ohm:580591:0]        ib_iface.c:1059 UCX  ERROR ibv_create_cq(cqe=256) failed: Connection timed out
[1741082729.053224] [ohm:580629:0]        ib_iface.c:1059 UCX  ERROR ibv_create_cq(cqe=256) failed: Connection timed out


           ************************************************************
           *        Program running with 64 parallel MPI-processes    *
           *              working on a common directory               *
           ************************************************************

-------------------------------------------------------------------------------------------
                                      ORCA LEAN-SCF
                              memory conserving SCF solver
-------------------------------------------------------------------------------------------

----------------------------------------D-I-I-S--------------------------------------------
Iteration    Energy (Eh)           Delta-E    RMSDP     MaxDP     DIISErr   Damp  Time(sec)
-------------------------------------------------------------------------------------------
               ***  Starting incremental Fock matrix formation  ***
    1    -908.1140296109103929     0.00e+00  1.84e-03  2.89e-01  1.47e-01  0.700   7.9
    2    -908.3776548780590474    -2.64e-01  1.45e-03  2.16e-01  7.18e-02  0.700   6.6
                               ***Turning on AO-DIIS***
    3    -908.4957727236130722    -1.18e-01  1.01e-03  1.52e-01  2.82e-02  0.700   5.7
    4    -908.5680512097062547    -7.23e-02  2.36e-03  3.36e-01  2.05e-02  0.000   5.7
    5    -908.7299788602083481    -1.62e-01  2.97e-04  7.50e-02  5.93e-03  0.000   5.9
                              *** Initializing SOSCF ***
---------------------------------------S-O-S-C-F--------------------------------------
Iteration    Energy (Eh)           Delta-E    RMSDP     MaxDP     MaxGrad    Time(sec)
--------------------------------------------------------------------------------------
    6    -908.7312132203176134    -1.23e-03  1.35e-04  3.47e-02  2.48e-03     6.5
               *** Restarting incremental Fock matrix formation ***
    7    -908.7317479294376881    -5.35e-04  1.87e-04  3.33e-02  4.12e-03     7.5
    8    -908.7320931261672285    -3.45e-04  2.04e-04  5.32e-02  2.15e-03     6.8
    9    -908.7322136671280077    -1.21e-04  8.23e-05  1.26e-02  9.17e-04     6.8
   10    -908.7322664151558911    -5.27e-05  3.21e-05  9.67e-03  3.61e-04     6.5
   11    -908.7322753993314564    -8.98e-06  7.12e-06  1.06e-03  1.16e-04     6.3
   12    -908.7322769312111177    -1.53e-06  4.64e-06  7.68e-04  9.85e-05     6.1
   13    -908.7322777502779445    -8.19e-07  3.94e-06  7.31e-04  3.15e-05     6.0
   14    -908.7322778853119871    -1.35e-07  1.50e-06  3.02e-04  1.72e-05     6.0
   15    -908.7322778929876677    -7.68e-09  1.20e-06  2.05e-04  1.48e-05     5.8
                 **** Energy Check signals convergence ****

               *****************************************************
               *                     SUCCESS                       *
               *           SCF CONVERGED AFTER  15 CYCLES          *
               *****************************************************

Recomputing exchange energy using gridx3       ... done (    7.940 sec)
Old exchange energy                            :    -35.074193534 Eh
New exchange energy                            :    -35.074212868 Eh
Exchange energy change after final integration :     -0.000019334 Eh
Total energy after final integration           :   -908.732297227 Eh
             **** ENERGY FILE WAS UPDATED (orca.en.tmp) ****

----------------
TOTAL SCF ENERGY
----------------

Total Energy       :       -908.73229722674660 Eh          -24727.86295 eV

Components:
Nuclear Repulsion  :       1461.37796358321316 Eh           39766.11606 eV
Electronic Energy  :      -2370.11024147620083 Eh          -64493.97848 eV
One Electron Energy:      -4139.49886441800754 Eh         -112641.49068 eV
Two Electron Energy:       1769.38862294180649 Eh           48147.51220 eV

Virial components:
Potential Energy   :      -1815.20749398248199 Eh          -49394.30707 eV
Kinetic Energy     :        906.47519675573551 Eh           24666.44412 eV
Virial Ratio       :          2.00248997488193

DFT components:
N(Alpha)           :       66.999933649463 electrons
N(Beta)            :       64.999938181117 electrons
N(Total)           :      131.999871830580 electrons
E(XC)              :      -86.386754116928 Eh       

---------------
SCF CONVERGENCE
---------------

  Last Energy change         ...    7.6757e-09  Tolerance :   1.0000e-08
  Last MAX-Density change    ...    2.0470e-04  Tolerance :   1.0000e-07
  Last RMS-Density change    ...    1.1998e-06  Tolerance :   5.0000e-09
  Last DIIS Error            ...    2.4818e-03  Tolerance :   5.0000e-07
  Last Orbital Gradient      ...    1.4830e-05  Tolerance :   1.0000e-05
  Last Orbital Rotation      ...    5.5095e-05  Tolerance :   1.0000e-05


----------------------
UHF SPIN CONTAMINATION
----------------------

Warning: in a DFT calculation there is little theoretical justification to 
         calculate <S**2> as in Hartree-Fock theory. We will do it anyways
         but you should keep in mind that the values have only limited relevance

Expectation value of <S**2>     :     2.013144
Ideal value S*(S+1) for S=1.0   :     2.000000
Deviation                       :     0.013144

----------------
ORBITAL ENERGIES
----------------
                 SPIN UP ORBITALS
  NO   OCC          E(Eh)            E(eV) 
   0   1.0000     -19.338607      -526.2302 
   1   1.0000     -19.336019      -526.1598 
   2   1.0000     -19.323685      -525.8242 
   3   1.0000     -19.322415      -525.7896 
   4   1.0000     -14.563413      -396.2906 
   5   1.0000     -14.561273      -396.2324 
   6   1.0000     -14.558408      -396.1544 
   7   1.0000     -14.540108      -395.6565 
   8   1.0000     -10.505843      -285.8785 
   9   1.0000     -10.495864      -285.6070 
  10   1.0000     -10.483161      -285.2613 
  11   1.0000     -10.478380      -285.1312 
  12   1.0000     -10.442875      -284.1651 
  13   1.0000     -10.427370      -283.7432 
  14   1.0000     -10.422891      -283.6213 
  15   1.0000     -10.420862      -283.5661 
  16   1.0000     -10.381740      -282.5015 
  17   1.0000     -10.371026      -282.2100 
  18   1.0000      -1.238759       -33.7083 
  19   1.0000      -1.233737       -33.5717 
  20   1.0000      -1.214255       -33.0415 
  21   1.0000      -1.203203       -32.7408 
  22   1.0000      -1.125564       -30.6282 
  23   1.0000      -1.100687       -29.9512 
  24   1.0000      -1.064407       -28.9640 
  25   1.0000      -1.048808       -28.5395 
  26   1.0000      -0.986651       -26.8481 
  27   1.0000      -0.959460       -26.1082 
  28   1.0000      -0.891408       -24.2564 
  29   1.0000      -0.846990       -23.0478 
  30   1.0000      -0.833268       -22.6744 
  31   1.0000      -0.800075       -21.7711 
  32   1.0000      -0.784950       -21.3596 
  33   1.0000      -0.779990       -21.2246 
  34   1.0000      -0.699365       -19.0307 
  35   1.0000      -0.687587       -18.7102 
  36   1.0000      -0.684693       -18.6314 
  37   1.0000      -0.676838       -18.4177 
  38   1.0000      -0.664986       -18.0952 
  39   1.0000      -0.637232       -17.3400 
  40   1.0000      -0.612616       -16.6701 
  41   1.0000      -0.606756       -16.5107 
  42   1.0000      -0.592491       -16.1225 
  43   1.0000      -0.589486       -16.0407 
  44   1.0000      -0.585238       -15.9251 
  45   1.0000      -0.579740       -15.7755 
  46   1.0000      -0.572221       -15.5709 
  47   1.0000      -0.568115       -15.4592 
  48   1.0000      -0.566574       -15.4173 
  49   1.0000      -0.561158       -15.2699 
  50   1.0000      -0.553277       -15.0554 
  51   1.0000      -0.543855       -14.7990 
  52   1.0000      -0.529121       -14.3981 
  53   1.0000      -0.528597       -14.3838 
  54   1.0000      -0.518275       -14.1030 
  55   1.0000      -0.511106       -13.9079 
  56   1.0000      -0.495658       -13.4875 
  57   1.0000      -0.431812       -11.7502 
  58   1.0000      -0.426450       -11.6043 
  59   1.0000      -0.412910       -11.2358 
  60   1.0000      -0.408858       -11.1256 
  61   1.0000      -0.402339       -10.9482 
  62   1.0000      -0.397951       -10.8288 
  63   1.0000      -0.392738       -10.6869 
  64   1.0000      -0.383331       -10.4310 
  65   1.0000      -0.349920        -9.5218 
  66   1.0000      -0.333367        -9.0714 
  67   0.0000       0.011848         0.3224 
  68   0.0000       0.030061         0.8180 
  69   0.0000       0.035903         0.9770 
  70   0.0000       0.037280         1.0144 
  71   0.0000       0.055261         1.5037 
  72   0.0000       0.057059         1.5527 
  73   0.0000       0.058451         1.5905 
  74   0.0000       0.064554         1.7566 
  75   0.0000       0.065989         1.7956 
  76   0.0000       0.069289         1.8855 
  77   0.0000       0.077785         2.1166 

                 SPIN DOWN ORBITALS
  NO   OCC          E(Eh)            E(eV) 
   0   1.0000     -19.334603      -526.1213 
   1   1.0000     -19.331756      -526.0438 
   2   1.0000     -19.323566      -525.8210 
   3   1.0000     -19.322367      -525.7883 
   4   1.0000     -14.562427      -396.2638 
   5   1.0000     -14.560971      -396.2242 
   6   1.0000     -14.558206      -396.1489 
   7   1.0000     -14.539525      -395.6406 
   8   1.0000     -10.505897      -285.8800 
   9   1.0000     -10.495905      -285.6081 
  10   1.0000     -10.484127      -285.2876 
  11   1.0000     -10.479336      -285.1572 
  12   1.0000     -10.442680      -284.1598 
  13   1.0000     -10.426954      -283.7318 
  14   1.0000     -10.411337      -283.3069 
  15   1.0000     -10.409226      -283.2494 
  16   1.0000     -10.382312      -282.5171 
  17   1.0000     -10.371557      -282.2244 
  18   1.0000      -1.238018       -33.6882 
  19   1.0000      -1.229370       -33.4529 
  20   1.0000      -1.212433       -32.9920 
  21   1.0000      -1.197574       -32.5877 
  22   1.0000      -1.122639       -30.5486 
  23   1.0000      -1.098297       -29.8862 
  24   1.0000      -1.062354       -28.9081 
  25   1.0000      -1.046997       -28.4902 
  26   1.0000      -0.973555       -26.4918 
  27   1.0000      -0.942252       -25.6400 
  28   1.0000      -0.886541       -24.1240 
  29   1.0000      -0.841303       -22.8930 
  30   1.0000      -0.822830       -22.3904 
  31   1.0000      -0.794543       -21.6206 
  32   1.0000      -0.783336       -21.3156 
  33   1.0000      -0.778316       -21.1791 
  34   1.0000      -0.694929       -18.9100 
  35   1.0000      -0.682249       -18.5649 
  36   1.0000      -0.678134       -18.4530 
  37   1.0000      -0.667936       -18.1755 
  38   1.0000      -0.653958       -17.7951 
  39   1.0000      -0.632374       -17.2078 
  40   1.0000      -0.605952       -16.4888 
  41   1.0000      -0.601592       -16.3701 
  42   1.0000      -0.588427       -16.0119 
  43   1.0000      -0.584772       -15.9125 
  44   1.0000      -0.577672       -15.7193 
  45   1.0000      -0.573502       -15.6058 
  46   1.0000      -0.566284       -15.4094 
  47   1.0000      -0.562543       -15.3076 
  48   1.0000      -0.557787       -15.1782 
  49   1.0000      -0.554758       -15.0957 
  50   1.0000      -0.547424       -14.8962 
  51   1.0000      -0.533501       -14.5173 
  52   1.0000      -0.522080       -14.2065 
  53   1.0000      -0.520342       -14.1592 
  54   1.0000      -0.509575       -13.8663 
  55   1.0000      -0.507082       -13.7984 
  56   1.0000      -0.490015       -13.3340 
  57   1.0000      -0.427297       -11.6274 
  58   1.0000      -0.421761       -11.4767 
  59   1.0000      -0.403135       -10.9699 
  60   1.0000      -0.399808       -10.8793 
  61   1.0000      -0.392895       -10.6912 
  62   1.0000      -0.391592       -10.6557 
  63   1.0000      -0.388606       -10.5745 
  64   1.0000      -0.375097       -10.2069 
  65   0.0000      -0.062332        -1.6961 
  66   0.0000      -0.053660        -1.4602 
  67   0.0000       0.011461         0.3119 
  68   0.0000       0.029976         0.8157 
  69   0.0000       0.035521         0.9666 
  70   0.0000       0.037183         1.0118 
  71   0.0000       0.055798         1.5183 
  72   0.0000       0.058159         1.5826 
  73   0.0000       0.059812         1.6276 
  74   0.0000       0.064645         1.7591 
  75   0.0000       0.066180         1.8008 
*Only the first 10 virtual orbitals were printed.

                    ********************************
                    * MULLIKEN POPULATION ANALYSIS *
                    ********************************

--------------------------------------------
MULLIKEN ATOMIC CHARGES AND SPIN POPULATIONS
--------------------------------------------
   0 O :   -0.615327    0.144093
   1 O :   -0.675407    0.159420
   2 O :   -0.625112    0.001388
   3 O :   -0.592988    0.004484
   4 N :   -0.241391    0.026645
   5 N :   -0.529100    0.042275
   6 N :   -0.004941    0.045189
   7 N :    0.010057    0.014758
   8 C :   -0.412835    0.489006
   9 C :   -0.230024    0.378809
  10 C :    0.894634    0.072974
  11 C :    0.668569    0.200411
  12 C :   -1.310623    0.003544
  13 C :   -1.617224   -0.042822
  14 C :    0.599302    0.157820
  15 C :    0.521074    0.174358
  16 C :    0.271953   -0.008271
  17 C :    0.309393   -0.007275
  18 H :    0.511696    0.011091
  19 H :    0.681061    0.028983
  20 H :    0.375582    0.015993
  21 H :    0.353600    0.018216
  22 H :    0.280323    0.001803
  23 H :    0.370421    0.037321
  24 H :    0.309897    0.008388
  25 H :    0.286141    0.023792
  26 H :    0.072774   -0.000113
  27 H :    0.161090   -0.000906
  28 H :    0.132635   -0.001290
  29 H :    0.044769   -0.000084
Sum of atomic charges         :    0.0000000
Sum of atomic spin populations:    2.0000000

-----------------------------------------------------
MULLIKEN REDUCED ORBITAL CHARGES AND SPIN POPULATIONS
-----------------------------------------------------
CHARGE
  0 O s       :     4.071433  s :     4.071433
      pz      :     1.536055  p :     4.509278
      px      :     1.494808
      py      :     1.478415
      dz2     :     0.005990  d :     0.032547
      dxz     :     0.007432
      dyz     :     0.007238
      dx2y2   :     0.003989
      dxy     :     0.007898
      f0      :     0.000261  f :     0.002069
      f+1     :     0.000566
      f-1     :     0.000073
      f+2     :     0.000369
      f-2     :     0.000475
      f+3     :     0.000134
      f-3     :     0.000191

  1 O s       :     4.096510  s :     4.096510
      pz      :     1.339697  p :     4.545910
      px      :     1.738542
      py      :     1.467671
      dz2     :     0.011273  d :     0.031099
      dxz     :     0.004255
      dyz     :     0.012820
[...]
[1741083005.295655] [ohm:582814:0]        ib_iface.c:1059 UCX  ERROR ibv_create_cq(cqe=256) failed: Connection timed out
[1741083005.296218] [ohm:582792:0]        ib_iface.c:1059 UCX  ERROR ibv_create_cq(cqe=256) failed: Connection timed out
[1741083005.299378] [ohm:582869:0]        ib_iface.c:1059 UCX  ERROR ibv_create_cq(cqe=256) failed: Connection timed out
[1741083005.300001] [ohm:582849:0]        ib_iface.c:1059 UCX  ERROR ibv_create_cq(cqe=256) failed: Connection timed out
[1741083005.300177] [ohm:582743:0]        ib_iface.c:1059 UCX  ERROR ibv_create_cq(cqe=256) failed: Connection timed out
[1741083005.300181] [ohm:582875:0]        ib_iface.c:1059 UCX  ERROR ibv_create_cq(cqe=256) failed: Connection timed out
[1741083005.300556] [ohm:582856:0]        ib_iface.c:1059 UCX  ERROR ibv_create_cq(cqe=256) failed: Connection timed out
[1741083005.301070] [ohm:582807:0]        ib_iface.c:1059 UCX  ERROR ibv_create_cq(cqe=256) failed: Connection timed out
[1741083005.301878] [ohm:582824:0]        ib_iface.c:1059 UCX  ERROR ibv_create_cq(cqe=256) failed: Connection timed out
[1741083005.301850] [ohm:582859:0]        ib_iface.c:1059 UCX  ERROR ibv_create_cq(cqe=256) failed: Connection timed out
[1741083005.302883] [ohm:582786:0]        ib_iface.c:1059 UCX  ERROR ibv_create_cq(cqe=256) failed: Connection timed out


           ************************************************************
           *        Program running with 64 parallel MPI-processes    *
           *              working on a common directory               *
           ************************************************************

------------------------------------------------------------------------------
                              ORCA PROPERTY CALCULATIONS
------------------------------------------------------------------------------

GBWName                                 ... orca.gbw
Number of atoms                         ...     30
Number of basis functions               ...    882
Max core memory                         ...   1024 MB

Electric properties:
Dipole moment                           ... YES
Quadrupole moment                       ...  NO
Static polarizability (Dipole/Dipole)   ...  NO
Static polarizability (Dipole/Quad.)    ...  NO
Static polarizability (Quad./Quad.)     ...  NO
Static polarizability (Velocity)        ...  NO

Atomic electric properties:
Dipole moment                           ...  NO
Quadrupole moment                       ...  NO
Static polarizability                   ...  NO

Choice of electric origin               ... Center of mass
Position of electric origin             ...    -0.013240    -0.086679    -0.044801

General magnetic properties:
Magnetizability                         ...  NO

EPR properties:
g-Tensor (aka g-matrix)                 ...  NO
Zero-Field splitting spin-orbit         ...  NO
Zero-field splitting spin-spin          ...  NO
Hyperfine couplings                     ...  NO (   0 nuclei)
Quadrupole couplings                    ...  NO (   0 nuclei)
Contact density                         ...  NO (   0 nuclei)

NMR properties:
Chemical shifts                         ...  NO (   0 nuclei)
Spin-rotation constants                 ...  NO (   0 nuclei)
Spin-spin couplings                     ...  NO (   0 nuclei,    0 pairs)

Choice of magnetic origin               ... GIAO
Position of magnetic origin             ...     0.000000     0.000000     0.000000

Properties with geometric perturbations:
SCF Hessian                             ...  NO
IR spectrum                             ...  NO
VCD spectrum                            ...  NO
X-ray spectroscopy properties:
SCF XES/XAS/RIXS spectra                ...  NO


-------------
DIPOLE MOMENT
-------------

Method             : SCF
Type of density    : Electron Density
Multiplicity       :   3
Irrep              :   0
Energy             :  -908.7322972267465957 Eh
Relativity type    : 
Basis              : AO
                                X                 Y                 Z
Electronic contribution:     -9.299214575      -7.343427255      -2.977417973
Nuclear contribution   :     11.022096249       8.426399409       4.432825750
                        -----------------------------------------
Total Dipole Moment    :      1.722881674       1.082972155       1.455407777
                        -----------------------------------------
Magnitude (a.u.)       :      2.501871648
Magnitude (Debye)      :      6.359252352



--------------------
Rotational spectrum 
--------------------
 
Rotational constants in cm-1:             0.021227             0.013425             0.012818 
Rotational constants in MHz :           636.367646           402.462383           384.278720 

Dipole components along the rotational axes: 
x,y,z [a.u.] :    -1.126647     1.132162     1.925678 
x,y,z [Debye]:    -2.863710     2.877727     4.894685 

 

-------------
DIPOLE MOMENT
-------------

Method             : TDA/CIS
Type of density    : Electron Density
Level              : Relaxed density
State              :   1
Multiplicity       :   3
Irrep              :   0
Energy             :     0.0000000000000000 Eh
Relativity type    : 
Basis              : AO
                                X                 Y                 Z
Electronic contribution:     -9.282045675      -7.277135607      -2.888894673
Nuclear contribution   :     11.022096249       8.426399409       4.432825750
                        -----------------------------------------
Total Dipole Moment    :      1.740050574       1.149263802       1.543931077
                        -----------------------------------------
Magnitude (a.u.)       :      2.594668853
Magnitude (Debye)      :      6.595124102



--------------------
Rotational spectrum 
--------------------
 
Rotational constants in cm-1:             0.021227             0.013425             0.012818 
Rotational constants in MHz :           636.367646           402.462383           384.278720 

Dipole components along the rotational axes: 
x,y,z [a.u.] :    -1.111217     1.186972     2.022029 
x,y,z [Debye]:    -2.824488     3.017043     5.139589 

 

Dipole moment calculation done in   0.2 sec 

Maximum memory used throughout the entire PROP-calculation: 82.0 MB
[1741083007.817087] [ohm:583063:0]        ib_iface.c:1059 UCX  ERROR ibv_create_cq(cqe=256) failed: Connection timed out
[1741083007.844903] [ohm:583064:0]        ib_iface.c:1059 UCX  ERROR ibv_create_cq(cqe=256) failed: Connection timed out
[1741083007.874755] [ohm:583069:0]        ib_iface.c:1059 UCX  ERROR ibv_create_cq(cqe=256) failed: Connection timed out
[1741083007.878187] [ohm:583065:0]        ib_iface.c:1059 UCX  ERROR ibv_create_cq(cqe=256) failed: Connection timed out
[1741083007.884554] [ohm:583070:0]        ib_iface.c:1059 UCX  ERROR ibv_create_cq(cqe=256) failed: Connection timed out
[1741083007.886779] [ohm:583085:0]        ib_iface.c:1059 UCX  ERROR ibv_create_cq(cqe=256) failed: Connection timed out
[1741083007.895333] [ohm:583066:0]        ib_iface.c:1059 UCX  ERROR ibv_create_cq(cqe=256) failed: Connection timed out
[1741083007.899907] [ohm:583159:0]        ib_iface.c:1059 UCX  ERROR ibv_create_cq(cqe=256) failed: Connection timed out
[1741083007.901996] [ohm:583077:0]        ib_iface.c:1059 UCX  ERROR ibv_create_cq(cqe=256) failed: Connection timed out
[1741083007.957035] [ohm:583161:0]        ib_iface.c:1059 UCX  ERROR ibv_create_cq(cqe=256) failed: Connection timed out
[1741083007.957150] [ohm:583071:0]        ib_iface.c:1059 UCX  ERROR ibv_create_cq(cqe=256) failed: Connection timed out
[1741083007.958907] [ohm:583078:0]        ib_iface.c:1059 UCX  ERROR ibv_create_cq(cqe=256) failed: Connection timed out
[1741083007.965650] [ohm:583188:0]        ib_iface.c:1059 UCX  ERROR ibv_create_cq(cqe=256) failed: Connection timed out
[1741083007.968354] [ohm:583107:0]        ib_iface.c:1059 UCX  ERROR ibv_create_cq(cqe=256) failed: Connection timed out
[1741083007.968576] [ohm:583067:0]        ib_iface.c:1059 UCX  ERROR ibv_create_cq(cqe=256) failed: Connection timed out
[1741083007.970720] [ohm:583208:0]        ib_iface.c:1059 UCX  ERROR ibv_create_cq(cqe=256) failed: Connection timed out
[1741083008.020792] [ohm:583178:0]        ib_iface.c:1059 UCX  ERROR ibv_create_cq(cqe=256) failed: Connection timed out
[1741083008.036681] [ohm:583197:0]        ib_iface.c:1059 UCX  ERROR ibv_create_cq(cqe=256) failed: Connection timed out
[1741083008.040088] [ohm:583166:0]        ib_iface.c:1059 UCX  ERROR ibv_create_cq(cqe=256) failed: Connection timed out
[1741083008.080241] [ohm:583192:0]        ib_iface.c:1059 UCX  ERROR ibv_create_cq(cqe=256) failed: Connection timed out
[1741083008.090526] [ohm:583164:0]        ib_iface.c:1059 UCX  ERROR ibv_create_cq(cqe=256) failed: Connection timed out
[1741083008.111118] [ohm:583076:0]        ib_iface.c:1059 UCX  ERROR ibv_create_cq(cqe=256) failed: Connection timed out
[1741083008.117402] [ohm:583131:0]        ib_iface.c:1059 UCX  ERROR ibv_create_cq(cqe=256) failed: Connection timed out
[1741083008.120568] [ohm:583092:0]        ib_iface.c:1059 UCX  ERROR ibv_create_cq(cqe=256) failed: Connection timed out
[1741083008.131468] [ohm:583140:0]        ib_iface.c:1059 UCX  ERROR ibv_create_cq(cqe=256) failed: Connection timed out
[1741083008.132011] [ohm:583175:0]        ib_iface.c:1059 UCX  ERROR ibv_create_cq(cqe=256) failed: Connection timed out
[1741083008.133842] [ohm:583089:0]        ib_iface.c:1059 UCX  ERROR ibv_create_cq(cqe=256) failed: Connection timed out
[1741083008.137590] [ohm:583106:0]        ib_iface.c:1059 UCX  ERROR ibv_create_cq(cqe=256) failed: Connection timed out
[1741083008.148668] [ohm:583114:0]        ib_iface.c:1059 UCX  ERROR ibv_create_cq(cqe=256) failed: Connection timed out
[1741083008.151562] [ohm:583172:0]        ib_iface.c:1059 UCX  ERROR ibv_create_cq(cqe=256) failed: Connection timed out
[1741083008.156957] [ohm:583123:0]        ib_iface.c:1059 UCX  ERROR ibv_create_cq(cqe=256) failed: Connection timed out
[1741083008.172606] [ohm:583156:0]        ib_iface.c:1059 UCX  ERROR ibv_create_cq(cqe=256) failed: Connection timed out
[1741083008.184485] [ohm:583168:0]        ib_iface.c:1059 UCX  ERROR ibv_create_cq(cqe=256) failed: Connection timed out
[1741083008.185545] [ohm:583072:0]        ib_iface.c:1059 UCX  ERROR ibv_create_cq(cqe=256) failed: Connection timed out
[1741083008.186715] [ohm:583148:0]        ib_iface.c:1059 UCX  ERROR ibv_create_cq(cqe=256) failed: Connection timed out
[1741083008.187224] [ohm:583143:0]        ib_iface.c:1059 UCX  ERROR ibv_create_cq(cqe=256) failed: Connection timed out
[1741083008.187639] [ohm:583194:0]        ib_iface.c:1059 UCX  ERROR ibv_create_cq(cqe=256) failed: Connection timed out
[1741083008.187835] [ohm:583083:0]        ib_iface.c:1059 UCX  ERROR ibv_create_cq(cqe=256) failed: Connection timed out
[1741083008.190266] [ohm:583186:0]        ib_iface.c:1059 UCX  ERROR ibv_create_cq(cqe=256) failed: Connection timed out
[1741083008.196495] [ohm:583080:0]        ib_iface.c:1059 UCX  ERROR ibv_create_cq(cqe=256) failed: Connection timed out
[1741083008.201164] [ohm:583136:0]        ib_iface.c:1059 UCX  ERROR ibv_create_cq(cqe=256) failed: Connection timed out
[1741083008.207025] [ohm:583202:0]        ib_iface.c:1059 UCX  ERROR ibv_create_cq(cqe=256) failed: Connection timed out
[1741083008.209807] [ohm:583088:0]        ib_iface.c:1059 UCX  ERROR ibv_create_cq(cqe=256) failed: Connection timed out
[1741083008.219550] [ohm:583152:0]        ib_iface.c:1059 UCX  ERROR ibv_create_cq(cqe=256) failed: Connection timed out
[1741083008.220562] [ohm:583074:0]        ib_iface.c:1059 UCX  ERROR ibv_create_cq(cqe=256) failed: Connection timed out
[1741083008.223844] [ohm:583079:0]        ib_iface.c:1059 UCX  ERROR ibv_create_cq(cqe=256) failed: Connection timed out
[1741083008.232123] [ohm:583073:0]        ib_iface.c:1059 UCX  ERROR ibv_create_cq(cqe=256) failed: Connection timed out
[1741083008.232355] [ohm:583150:0]        ib_iface.c:1059 UCX  ERROR ibv_create_cq(cqe=256) failed: Connection timed out
[1741083008.237483] [ohm:583075:0]        ib_iface.c:1059 UCX  ERROR ibv_create_cq(cqe=256) failed: Connection timed out
[1741083008.238857] [ohm:583119:0]        ib_iface.c:1059 UCX  ERROR ibv_create_cq(cqe=256) failed: Connection timed out
[1741083008.239622] [ohm:583128:0]        ib_iface.c:1059 UCX  ERROR ibv_create_cq(cqe=256) failed: Connection timed out
[1741083008.243522] [ohm:583112:0]        ib_iface.c:1059 UCX  ERROR ibv_create_cq(cqe=256) failed: Connection timed out
[1741083008.245783] [ohm:583133:0]        ib_iface.c:1059 UCX  ERROR ibv_create_cq(cqe=256) failed: Connection timed out
[1741083008.246749] [ohm:583068:0]        ib_iface.c:1059 UCX  ERROR ibv_create_cq(cqe=256) failed: Connection timed out
[1741083008.248006] [ohm:583100:0]        ib_iface.c:1059 UCX  ERROR ibv_create_cq(cqe=256) failed: Connection timed out
[1741083008.248788] [ohm:583090:0]        ib_iface.c:1059 UCX  ERROR ibv_create_cq(cqe=256) failed: Connection timed out
[1741083008.250309] [ohm:583081:0]        ib_iface.c:1059 UCX  ERROR ibv_create_cq(cqe=256) failed: Connection timed out
[1741083008.251083] [ohm:583212:0]        ib_iface.c:1059 UCX  ERROR ibv_create_cq(cqe=256) failed: Connection timed out
[1741083008.252056] [ohm:583082:0]        ib_iface.c:1059 UCX  ERROR ibv_create_cq(cqe=256) failed: Connection timed out
[1741083008.252334] [ohm:583086:0]        ib_iface.c:1059 UCX  ERROR ibv_create_cq(cqe=256) failed: Connection timed out
[1741083008.252771] [ohm:583084:0]        ib_iface.c:1059 UCX  ERROR ibv_create_cq(cqe=256) failed: Connection timed out
[1741083008.253433] [ohm:583098:0]        ib_iface.c:1059 UCX  ERROR ibv_create_cq(cqe=256) failed: Connection timed out
[1741083008.254248] [ohm:583087:0]        ib_iface.c:1059 UCX  ERROR ibv_create_cq(cqe=256) failed: Connection timed out
[1741083008.254514] [ohm:583094:0]        ib_iface.c:1059 UCX  ERROR ibv_create_cq(cqe=256) failed: Connection timed out

--------------------------------
SUGGESTED CITATIONS FOR THIS RUN
--------------------------------

Below you find a list of papers that are relevant to this ORCA run
We neither can nor want to force you to cite these papers, but we appreciate if you do
You receive ORCA, which is the product of decades of hard work by many enthusiastic individuals, for free
The only thing we kindly ask in return is that you cite our papers,
We deeply appreciate it, if you show your appreciation for ORCA by not just citing the generic ORCA reference.

Please note that relegating all ORCA citations to the supporting information does *not* help us.
SI sections are not indexed - citations you put there will not count into any citation statistics
But we need these citations in order to attract the funding resources that allow us to do what we are doing

Therefore, if you are a happy ORCA user, please consider citing a few of the papers listed below in the main body of your paper

In addition to the list printed below, the program has created the file orca.bibtex that contains the list in bibtex format
You can import this file easily into all common literature databanks and citation aid programs


List of essential papers. We consider these as the minimum necessary citations

  1. Neese,F.
     Software update: the ORCA program system, version 5.0
     WIRES Comput. Molec. Sci., 2022 12(1)e1606
     doi.org/10.1002/wcms.1606

List of papers to cite with high priority. The work reported in these papers was absolutely
necessary for this run to complete.
Our perspective: the developers of density functionals and basis sets usually get cited in chemistry papers
Good! But without the algorithms to do something with them, the functionals or basis sets would not do anything.
Hence, in our opinion, the algorithm design and method developments papers are equally worthy of getting cited

  1. Neese,F.; Olbrich,G.
     Efficient use of the resolution of the identity approximation in time-dependent density functional calculations with hybrid density functionals
     Chem. Phys. Lett., 2002 362 170-178
     doi.org/10.1016/s0009-2614(02)01053-9
  2. Neese,F.
     An improvement of the resolution of the identity approximation for the formation of the Coulomb matrix
     J. Comp. Chem., 2003 24(14)1740-1747
     doi.org/10.1002/jcc.10318
  3. Neese,F.; Wennmohs,F.; Hansen,A.; Becker,U.
     Efficient, approximate and parallel Hartree-Fock and hybrid DFT calculations. A 'chain-of-spheres' algorithm for the Hartree-Fock exchange
     Chem. Phys., 2009 356(1-3)98-109
     doi.org/10.1016/j.chemphys.2008.10.036
  4. Petrenko,T.; Kossmann,S.; Neese,F.
     Efficient time-dependent density functional theory approximations for hybrid density functionals: Analytical gradients and parallelization
     J. Chem. Phys., 2011 134 054116
     doi.org/10.1063/1.3533441
  5. Helmich-Paris,B.; de Souza,B.; Neese,F.; Izsák,R.
     An improved chain of spheres for exchange algorithm
     J. Chem. Phys., 2021 155 104109
     doi.org/doi: 10.1063/5.0058766.
  6. Neese,F.
     The SHARK Integral Generation and Digestion System
     J. Comp. Chem., 2022  1-16
     doi.org/10.1002/jcc.26942
  7. Lehtola,S.; Steigemann,C.; Oliveira,M.; Marques,M.
     Recent developments in Libxc - A comprehensive library of functionals for density functional theory
     Software X, 2018 7 
     doi.org/10.1016/j.softx.2017.11.002
  8. Grimme,S.; Antony,J.; Ehrlich,S.; Krieg,H.
     A consistent and accurate ab initio parametrization of density functional dispersion correction (DFT-D) for the 94 elements H-Pu
     J. Chem. Phys., 2010 132 154104-XXXX
     doi.org/10.1063/1.3382344
  9. Grimme,S.; Ehrlich,S.; Goerigk,L.
     Effect of the damping function in dispersion corrected density functional theory
     J. Comput. Chem., 2011 32(7)1456-1465
     doi.org/10.1002/jcc.21759

List of suggested additional citations. These are papers that are important in the 'surrounding' of 
of this run, or papers that preceded the highly important papers. If you like your results we are grateful for a citation.

  1. Izsak,R.; Neese,F.
     An overlap fitted chain of spheres exchange method
     J. Chem. Phys., 2011 135 144105
     doi.org/10.1063/1.3646921
  2. Izsak,R.; Hansen,A.; Neese,F.
     The resolution of identity and chain of spheres approximations for the LPNO-CCSD singles Fock term
     Molec. Phys., 2012 110 2413-2417
     doi.org/10.1080/00268976.2012.687466
  3. Neese,F.
     The ORCA program system
     WIRES Comput. Molec. Sci., 2012 2(1)73-78
     doi.org/10.1002/wcms.81
  4. Izsak,R.; Neese,F.; Klopper,W.
     Robust fitting techniques in the chain of spheres approximation to the Fock exchange: The role of the complementary space
     J. Chem. Phys., 2013 139 
     doi.org/10.1063/1.4819264
  5. Neese,F.
     Software update: the ORCA program system, version 4.0
     WIRES Comput. Molec. Sci., 2018 8(1)1-6
     doi.org/10.1002/wcms.1327
  6. Neese,F.; Wennmohs,F.; Becker,U.; Riplinger,C.
     The ORCA quantum chemistry program package
     J. Chem. Phys., 2020 152 Art. No. L224108
     doi.org/10.1063/5.0004608

List of optional additional citations

  1. Neese,F.
     Approximate second-order SCF convergence for spin unrestricted wavefunctions
     Chem. Phys. Lett., 2000 325(1-3)93-98
     doi.org/10.1016/s0009-2614(00)00662-x

Timings for individual modules:

Sum of individual times          ...      289.680 sec (=   4.828 min)
Startup calculation              ...        6.377 sec (=   0.106 min)   2.2 %
SCF iterations                   ...      113.753 sec (=   1.896 min)  39.3 %
Property integrals               ...        4.483 sec (=   0.075 min)   1.5 %
Property calculations            ...        2.970 sec (=   0.049 min)   1.0 %
CIS module                       ...      162.097 sec (=   2.702 min)  56.0 %
                             ****ORCA TERMINATED NORMALLY****
TOTAL RUN TIME: 0 days 0 hours 4 minutes 51 seconds 928 msec
