
                                 *****************
                                 * O   R   C   A *
                                 *****************

                                            #,                                       
                                            ###                                      
                                            ####                                     
                                            #####                                    
                                            ######                                   
                                           ########,                                 
                                     ,,################,,,,,                         
                               ,,#################################,,                 
                          ,,##########################################,,             
                       ,#########################################, ''#####,          
                    ,#############################################,,   '####,        
                  ,##################################################,,,,####,       
                ,###########''''           ''''###############################       
              ,#####''   ,,,,##########,,,,          '''####'''          '####       
            ,##' ,,,,###########################,,,                        '##       
           ' ,,###''''                  '''############,,,                           
         ,,##''                                '''############,,,,        ,,,,,,###''
      ,#''                                            '''#######################'''  
     '                                                          ''''####''''         
             ,#######,   #######,   ,#######,      ##                                
            ,#'     '#,  ##    ##  ,#'     '#,    #''#        ,####,   ,####,        
            ##       ##  ##   ,#'  ##            #'  '#       #'       #'  '#        
            ##       ##  #######   ##           ,######,      #####,   #    #        
            '#,     ,#'  ##    ##  '#,     ,#' ,#      #,     #,   #   #,  ,#        
             '#######'   ##     ##  '#######'  #'      '#     '####' # '####'        



                #########################################################
                #                        -***-                          #
                #          Department of theory and spectroscopy        #
                #                                                       #
                #                      Frank Neese                      #
                #                                                       #
                #     Directorship, Architecture, Infrastructure        #
                #                    SHARK, DRIVERS                     #
                #        Core code/Algorithms in most modules           #
                #                                                       #
                #        Max Planck Institute fuer Kohlenforschung      #
                #                Kaiser Wilhelm Platz 1                 #
                #                 D-45470 Muelheim/Ruhr                 #
                #                      Germany                          #
                #                                                       #
                #                  All rights reserved                  #
                #                        -***-                          #
                #########################################################


                         Program Version 6.0.0  -   RELEASE  -


 With contributions from (in alphabetic order):
   Daniel Aravena         : Magnetic Suceptibility
   Michael Atanasov       : Ab Initio Ligand Field Theory (pilot matlab implementation)
   Alexander A. Auer      : GIAO ZORA, VPT2 properties, NMR spectrum
   Ute Becker             : All parallelization in ORCA, NUMFREQ, NUMCALC
   Giovanni Bistoni       : ED, misc. LED, open-shell LED, HFLD
   Martin Brehm           : Molecular dynamics
   Dmytro Bykov           : pre 5.0 version of the SCF Hessian
   Marcos Casanova-Páez   : Triplet and SCS-CIS(D). UHF-(DLPNO)-IP/EA/STEOM-CCSD. UHF-CVS-IP/STEOM-CCSD
   Vijay G. Chilkuri      : MRCI spin determinant printing, contributions to CSF-ICE
   Pauline Colinet        : FMM embedding
   Dipayan Datta          : RHF DLPNO-CCSD density
   Achintya Kumar Dutta   : EOM-CC, STEOM-CC
   Nicolas Foglia         : Exact transition moments, OPA infrastructure, MCD improvements
   Dmitry Ganyushin       : Spin-Orbit,Spin-Spin,Magnetic field MRCI
   Miquel Garcia          : C-PCM and meta-GGA Hessian, CCSD/C-PCM, Gaussian charge scheme
   Tiago L. C. Gouveia    : GS-ROHF, GS-ROCIS
   Yang Guo               : DLPNO-NEVPT2, F12-NEVPT2, CIM, IAO-localization
   Andreas Hansen         : Spin unrestricted coupled pair/coupled cluster methods
   Ingolf Harden          : AUTO-CI MPn and infrastructure 
   Benjamin Helmich-Paris : MC-RPA, TRAH-(SCF,CASSCF), AVAS, COSX integrals, SCF dyn. polar.
   Lee Huntington         : MR-EOM, pCC
   Robert Izsak           : Overlap fitted RIJCOSX, COSX-SCS-MP3, EOM
   Riya Kayal             : Wick's Theorem for AUTO-CI, AUTO-CI UHF-CCSDT
   Emily Kempfer          : AUTO-CI, RHF CISDT and CCSDT
   Christian Kollmar      : KDIIS, OOCD, Brueckner-CCSD(T), CCSD density, CASPT2, CASPT2-K, improved NEVPT2
   Axel Koslowski         : Symmetry handling
   Simone Kossmann        : Meta GGA functionals, TD-DFT gradient, OOMP2, (MP2 Hessian; deprecated post 5.0)
   Lucas Lang             : DCDCAS
   Marvin Lechner         : AUTO-CI (C++ implementation), FIC-MRCC
   Spencer Leger          : CASSCF response
   Dagmar Lenk            : GEPOL surface, SMD, ORCA-2-JSON
   Dimitrios Liakos       : Extrapolation schemes; Compound Job, initial MDCI parallelization
   Dimitrios Manganas     : Further ROCIS development; embedding schemes. LFT, Crystal Embedding
   Dimitrios Pantazis     : SARC Basis sets
   Anastasios Papadopoulos: AUTO-CI, single reference methods and gradients
   Taras Petrenko         : pre 6.0 DFT Hessian and TD-DFT gradient, (ASA, deprecated), ECA, 1-Electron XAS/XES, NRVS
   Peter Pinski           : DLPNO-MP2, DLPNO-MP2 Gradient
   Christoph Reimann      : Effective Core Potentials
   Marius Retegan         : Local ZFS, SOC
   Christoph Riplinger    : Optimizer, TS searches, QM/MM, DLPNO-CCSD(T), (RO)-DLPNO pert. Triples
   Michael Roemelt        : Original ROCIS implementation
   Masaaki Saitow         : Open-shell DLPNO-CCSD energy and density
   Barbara Sandhoefer     : DKH picture change effects
   Kantharuban Sivalingam : CASSCF convergence/infrastructure, NEVPT2 and variants, FIC-MRCI
   Bernardo de Souza      : ESD, SOC TD-DFT
   Georgi Stoychev        : AutoAux, RI-MP2 NMR, DLPNO-MP2 response, X2C
   Van Anh Tran           : RI-MP2 g-tensors
   Willem Van den Heuvel  : Paramagnetic NMR
   Zikuan Wang            : NOTCH, Electric field optimization 
   Frank Wennmohs         : Technical directorship and infrastructure
   Hang Xu                : AUTO-CI-Response properties 


 We gratefully acknowledge several colleagues who have allowed us to
 interface, adapt or use parts of their codes:
   Stefan Grimme, W. Hujo, H. Kruse, P. Pracht,  : VdW corrections, initial TS optimization,
                  C. Bannwarth, S. Ehlert,         DFT functionals, gCP, sTDA/sTD-DF
                  L. Wittmann, M. Mueller
   Ed Valeev, F. Pavosevic, A. Kumar             : LibInt (2-el integral package), F12 methods
   Garnet Chan, S. Sharma, J. Yang, R. Olivares  : DMRG
   Ulf Ekstrom                                   : XCFun DFT Library
   Mihaly Kallay                                 : mrcc  (arbitrary order and MRCC methods)
   Frank Weinhold                                : gennbo (NPA and NBO analysis)
   Simon Mueller                                 : openCOSMO-RS
   Christopher J. Cramer and Donald G. Truhlar   : smd solvation model
   Lars Goerigk                                  : TD-DFT with DH, B97 family of functionals
   V. Asgeirsson, H. Jonsson                     : NEB implementation
   FAccTs GmbH                                   : IRC, NEB, NEB-TS, DLPNO-Multilevel, CI-OPT
                                                   MM, QMMM, 2- and 3-layer-ONIOM, Crystal-QMMM,
                                                   LR-CPCM, SF, NACMEs, symmetry and pop. for TD-DFT,
                                                   nearIR, NL-DFT gradient (VV10), updates on ESD,
                                                   ML-optimized integration grids, MBIS, APM,
                                                   GOAT, DOCKER, SOLVATOR, interface openCOSMO-RS
   S Lehtola, MJT Oliveira, MAL Marques          : LibXC Library
   Liviu Ungur et al                             : ANISO software


 Your calculation uses the libint2 library for the computation of 2-el integrals
 For citations please refer to: http://libint.valeyev.net

 Your ORCA version has been built with support for libXC version: 6.2.2
 For citations please refer to: https://libxc.gitlab.io

 This ORCA versions uses:
   CBLAS   interface :  Fast vector & matrix operations
   LAPACKE interface :  Fast linear algebra routines
   SCALAPACK package :  Parallel linear algebra routines
   Shared memory     :  Shared parallel matrices
   BLAS/LAPACK       :  OpenBLAS 0.3.27  USE64BITINT DYNAMIC_ARCH NO_AFFINITY Zen SINGLE_THREADED
        Core in use  :  Zen
   Copyright (c) 2011-2014, The OpenBLAS Project


Your calculation utilizes the atom-pairwise dispersion correction
with the Becke-Johnson damping scheme (D3BJ)


Warning: RI is on but no J-basis has been assigned. Assigning Def2/J (nothing to worry about!)
================================================================================

----- Orbital basis set information -----
Your calculation utilizes the basis: def2-TZVPPD
   F. Weigend and R. Ahlrichs, Phys. Chem. Chem. Phys. 7, 3297 (2005).
   D. Rappoport and F. Furche, J. Chem. Phys. 133, 134105 (2010)
   D. Rappoport, J. Chem. Phys. 155, 124102 (2021).

----- AuxJ basis set information -----
Your calculation utilizes the auxiliary basis: def2/J
   F. Weigend, Phys. Chem. Chem. Phys. 8, 1057 (2006).

================================================================================
                                        WARNINGS
                       Please study these warnings very carefully!
================================================================================

Using LibXC functional ID 531 : wB97M-V exchange-correlation functional
[ 1]  N. Mardirossian and M. Head-Gordon.,  J. Chem. Phys. 144, 214110 (2016)
Using LibXC functional ID 531 : wB97M-V exchange-correlation functional
[ 1]  N. Mardirossian and M. Head-Gordon.,  J. Chem. Phys. 144, 214110 (2016)

WARNING: B97M-V or wB97M-V functional requested.
  ===> : libXC variant has now been activated.
         Any manually given DFX/HFX/RangeSep scaling parameters are IGNORED!

Your calculation utilizes LibXC
 by S Lehtola, C Steigemann, MJT Oliveira & MAL Marques
Please cite in your paper:
 S Lehtola, C Steigemann, MJT Oliveira & MAL Marques, SoftwareX, 7, (2018), 1.
   


WARNING: your system is open-shell and RHF/RKS was chosen
  ===> : WILL SWITCH to UHF/UKS

INFO   : Checking CIS options ...

WARNING: CIS/ROCIS methods need fully converged wavefunctions
  ===> : Setting SCFConvForced true
         You can overwrite this default with %scf ConvForced false 


================================================================================
                                       INPUT FILE
================================================================================
NAME = orca.inp
|  1> ! Engrad def2-TZVPPD wB97M-D3BJ 
|  2> %pal nprocs 8 end%pal nprocs 64 end 
|  3> %tddft 
|  4>  Iroot 1 Nroots 3 
|  5> sf true 
|  6> end 
|  7> *xyz 0 3 
|  8> O   0.11909431 0.94383461 0.78760238
|  9> C   0.5463178 -0.310332 0.42877813
| 10> C   0.56865268 -0.47928046 -1.05580344
| 11> H   -0.26092811 -0.95113661 0.84308005
| 12> H   1.56242441 -0.68018665 0.80939829
| 13> H   1.40801796 -0.91911786 -1.73694045
| 14> H   -0.12554109 -0.18778924 -1.75250232
| 15> *
| 16> 
| 17>                          ****END OF INPUT****
================================================================================

                     *******************************
                     * Energy+Gradient Calculation *
                     *******************************

---------------------------------
CARTESIAN COORDINATES (ANGSTROEM)
---------------------------------
  O      0.119094    0.943835    0.787602
  C      0.546318   -0.310332    0.428778
  C      0.568653   -0.479280   -1.055803
  H     -0.260928   -0.951137    0.843080
  H      1.562424   -0.680187    0.809398
  H      1.408018   -0.919118   -1.736940
  H     -0.125541   -0.187789   -1.752502

----------------------------
CARTESIAN COORDINATES (A.U.)
----------------------------
  NO LB      ZA    FRAG     MASS         X           Y           Z
   0 O     8.0000    0    15.999    0.225056    1.783589    1.488353
   1 C     6.0000    0    12.011    1.032391   -0.586442    0.810273
   2 C     6.0000    0    12.011    1.074598   -0.905709   -1.995179
   3 H     1.0000    0     1.008   -0.493083   -1.797388    1.593190
   4 H     1.0000    0     1.008    2.952554   -1.285366    1.529541
   5 H     1.0000    0     1.008    2.660768   -1.736881   -3.282342
   6 H     1.0000    0     1.008   -0.237238   -0.354870   -3.311749

--------------------------------
INTERNAL COORDINATES (ANGSTROEM)
--------------------------------
 O      0   0   0     0.000000000000     0.00000000     0.00000000
 C      1   0   0     1.372664794637     0.00000000     0.00000000
 C      2   1   0     1.494330909466   111.57094027     0.00000000
 H      2   1   3     1.110820682345   101.73579881   244.57204225
 H      2   1   3     1.146358064136   118.93792983   124.24894056
 H      3   2   1     1.167021267201   129.28715459   132.68426346
 H      3   2   1     1.025797958195   129.23514665   316.82000926

---------------------------
INTERNAL COORDINATES (A.U.)
---------------------------
 O      0   0   0     0.000000000000     0.00000000     0.00000000
 C      1   0   0     2.593960535538     0.00000000     0.00000000
 C      2   1   0     2.823876172344   111.57094027     0.00000000
 H      2   1   3     2.099146873527   101.73579881   244.57204225
 H      2   1   3     2.166302792630   118.93792983   124.24894056
 H      3   2   1     2.205350587472   129.28715459   132.68426346
 H      3   2   1     1.938477209724   129.23514665   316.82000926

---------------------
BASIS SET INFORMATION
---------------------
There are 3 groups of distinct atoms

 Group   1 Type O   : 12s7p3d1f contracted to 6s4p3d1f pattern {621111/4111/111/1}
 Group   2 Type C   : 12s6p3d1f contracted to 6s3p3d1f pattern {621111/411/111/1}
 Group   3 Type H   : 5s3p1d contracted to 3s3p1d pattern {311/111/1}

Atom   0O    basis set group =>   1
Atom   1C    basis set group =>   2
Atom   2C    basis set group =>   2
Atom   3H    basis set group =>   3
Atom   4H    basis set group =>   3
Atom   5H    basis set group =>   3
Atom   6H    basis set group =>   3
---------------------------------
AUXILIARY/J BASIS SET INFORMATION
---------------------------------
There are 3 groups of distinct atoms

 Group   1 Type O   : 12s5p4d2f1g contracted to 6s4p3d1f1g pattern {711111/2111/211/2/1}
 Group   2 Type C   : 12s5p4d2f1g contracted to 6s4p3d1f1g pattern {711111/2111/211/2/1}
 Group   3 Type H   : 5s2p1d contracted to 3s1p1d pattern {311/2/1}

Atom   0O    basis set group =>   1
Atom   1C    basis set group =>   2
Atom   2C    basis set group =>   2
Atom   3H    basis set group =>   3
Atom   4H    basis set group =>   3
Atom   5H    basis set group =>   3
Atom   6H    basis set group =>   3
[1741608437.665893] [ohm:3226281:0]        ib_iface.c:1059 UCX  ERROR ibv_create_cq(cqe=256) failed: Connection timed out
[1741608437.668589] [ohm:3226320:0]        ib_iface.c:1059 UCX  ERROR ibv_create_cq(cqe=256) failed: Connection timed out
[1741608437.682280] [ohm:3226271:0]        ib_iface.c:1059 UCX  ERROR ibv_create_cq(cqe=256) failed: Connection timed out
[1741608437.684143] [ohm:3226279:0]        ib_iface.c:1059 UCX  ERROR ibv_create_cq(cqe=256) failed: Connection timed out
[1741608437.701635] [ohm:3226276:0]        ib_iface.c:1059 UCX  ERROR ibv_create_cq(cqe=256) failed: Connection timed out
[1741608437.706303] [ohm:3226270:0]        ib_iface.c:1059 UCX  ERROR ibv_create_cq(cqe=256) failed: Connection timed out
[1741608437.706491] [ohm:3226274:0]        ib_iface.c:1059 UCX  ERROR ibv_create_cq(cqe=256) failed: Connection timed out
[1741608437.707528] [ohm:3226273:0]        ib_iface.c:1059 UCX  ERROR ibv_create_cq(cqe=256) failed: Connection timed out
[1741608437.707745] [ohm:3226272:0]        ib_iface.c:1059 UCX  ERROR ibv_create_cq(cqe=256) failed: Connection timed out
[1741608437.710277] [ohm:3226277:0]        ib_iface.c:1059 UCX  ERROR ibv_create_cq(cqe=256) failed: Connection timed out
[1741608437.710325] [ohm:3226275:0]        ib_iface.c:1059 UCX  ERROR ibv_create_cq(cqe=256) failed: Connection timed out
[1741608437.712332] [ohm:3226308:0]        ib_iface.c:1059 UCX  ERROR ibv_create_cq(cqe=256) failed: Connection timed out
[1741608437.712764] [ohm:3226321:0]        ib_iface.c:1059 UCX  ERROR ibv_create_cq(cqe=256) failed: Connection timed out
[1741608437.725748] [ohm:3226326:0]        ib_iface.c:1059 UCX  ERROR ibv_create_cq(cqe=256) failed: Connection timed out
[1741608437.730547] [ohm:3226283:0]        ib_iface.c:1059 UCX  ERROR ibv_create_cq(cqe=256) failed: Connection timed out
[1741608437.768814] [ohm:3226330:0]        ib_iface.c:1059 UCX  ERROR ibv_create_cq(cqe=256) failed: Connection timed out
[1741608437.795599] [ohm:3226325:0]        ib_iface.c:1059 UCX  ERROR ibv_create_cq(cqe=256) failed: Connection timed out
[1741608437.798112] [ohm:3226316:0]        ib_iface.c:1059 UCX  ERROR ibv_create_cq(cqe=256) failed: Connection timed out
[1741608437.798416] [ohm:3226284:0]        ib_iface.c:1059 UCX  ERROR ibv_create_cq(cqe=256) failed: Connection timed out
[1741608437.803029] [ohm:3226300:0]        ib_iface.c:1059 UCX  ERROR ibv_create_cq(cqe=256) failed: Connection timed out
[1741608437.810572] [ohm:3226306:0]        ib_iface.c:1059 UCX  ERROR ibv_create_cq(cqe=256) failed: Connection timed out
[1741608437.816896] [ohm:3226324:0]        ib_iface.c:1059 UCX  ERROR ibv_create_cq(cqe=256) failed: Connection timed out
[1741608437.817052] [ohm:3226329:0]        ib_iface.c:1059 UCX  ERROR ibv_create_cq(cqe=256) failed: Connection timed out
[1741608437.820386] [ohm:3226334:0]        ib_iface.c:1059 UCX  ERROR ibv_create_cq(cqe=256) failed: Connection timed out
[1741608437.838014] [ohm:3226396:0]        ib_iface.c:1059 UCX  ERROR ibv_create_cq(cqe=256) failed: Connection timed out
[1741608437.838136] [ohm:3226280:0]        ib_iface.c:1059 UCX  ERROR ibv_create_cq(cqe=256) failed: Connection timed out
[1741608437.843743] [ohm:3226278:0]        ib_iface.c:1059 UCX  ERROR ibv_create_cq(cqe=256) failed: Connection timed out
[1741608437.853544] [ohm:3226294:0]        ib_iface.c:1059 UCX  ERROR ibv_create_cq(cqe=256) failed: Connection timed out
[1741608437.859257] [ohm:3226298:0]        ib_iface.c:1059 UCX  ERROR ibv_create_cq(cqe=256) failed: Connection timed out
[1741608437.864945] [ohm:3226296:0]        ib_iface.c:1059 UCX  ERROR ibv_create_cq(cqe=256) failed: Connection timed out
[1741608437.870863] [ohm:3226331:0]        ib_iface.c:1059 UCX  ERROR ibv_create_cq(cqe=256) failed: Connection timed out
[1741608437.876256] [ohm:3226358:0]        ib_iface.c:1059 UCX  ERROR ibv_create_cq(cqe=256) failed: Connection timed out
[1741608437.883526] [ohm:3226379:0]        ib_iface.c:1059 UCX  ERROR ibv_create_cq(cqe=256) failed: Connection timed out
[1741608437.889038] [ohm:3226368:0]        ib_iface.c:1059 UCX  ERROR ibv_create_cq(cqe=256) failed: Connection timed out
[1741608437.889720] [ohm:3226343:0]        ib_iface.c:1059 UCX  ERROR ibv_create_cq(cqe=256) failed: Connection timed out
[1741608437.892486] [ohm:3226385:0]        ib_iface.c:1059 UCX  ERROR ibv_create_cq(cqe=256) failed: Connection timed out
[1741608437.895173] [ohm:3226394:0]        ib_iface.c:1059 UCX  ERROR ibv_create_cq(cqe=256) failed: Connection timed out
[1741608437.896004] [ohm:3226340:0]        ib_iface.c:1059 UCX  ERROR ibv_create_cq(cqe=256) failed: Connection timed out
[1741608437.897266] [ohm:3226295:0]        ib_iface.c:1059 UCX  ERROR ibv_create_cq(cqe=256) failed: Connection timed out
[1741608437.897427] [ohm:3226313:0]        ib_iface.c:1059 UCX  ERROR ibv_create_cq(cqe=256) failed: Connection timed out
[1741608437.904991] [ohm:3226373:0]        ib_iface.c:1059 UCX  ERROR ibv_create_cq(cqe=256) failed: Connection timed out
[1741608437.908476] [ohm:3226415:0]        ib_iface.c:1059 UCX  ERROR ibv_create_cq(cqe=256) failed: Connection timed out
[1741608437.909395] [ohm:3226392:0]        ib_iface.c:1059 UCX  ERROR ibv_create_cq(cqe=256) failed: Connection timed out
[1741608437.911225] [ohm:3226347:0]        ib_iface.c:1059 UCX  ERROR ibv_create_cq(cqe=256) failed: Connection timed out
[1741608437.914718] [ohm:3226383:0]        ib_iface.c:1059 UCX  ERROR ibv_create_cq(cqe=256) failed: Connection timed out
[1741608437.922601] [ohm:3226355:0]        ib_iface.c:1059 UCX  ERROR ibv_create_cq(cqe=256) failed: Connection timed out
[1741608437.935859] [ohm:3226403:0]        ib_iface.c:1059 UCX  ERROR ibv_create_cq(cqe=256) failed: Connection timed out
[1741608437.939741] [ohm:3226323:0]        ib_iface.c:1059 UCX  ERROR ibv_create_cq(cqe=256) failed: Connection timed out
[1741608437.944303] [ohm:3226335:0]        ib_iface.c:1059 UCX  ERROR ibv_create_cq(cqe=256) failed: Connection timed out
[1741608437.944362] [ohm:3226350:0]        ib_iface.c:1059 UCX  ERROR ibv_create_cq(cqe=256) failed: Connection timed out
[1741608437.945727] [ohm:3226365:0]        ib_iface.c:1059 UCX  ERROR ibv_create_cq(cqe=256) failed: Connection timed out
[1741608437.946508] [ohm:3226412:0]        ib_iface.c:1059 UCX  ERROR ibv_create_cq(cqe=256) failed: Connection timed out
[1741608437.946917] [ohm:3226327:0]        ib_iface.c:1059 UCX  ERROR ibv_create_cq(cqe=256) failed: Connection timed out
[1741608437.948144] [ohm:3226367:0]        ib_iface.c:1059 UCX  ERROR ibv_create_cq(cqe=256) failed: Connection timed out
[1741608437.948794] [ohm:3226410:0]        ib_iface.c:1059 UCX  ERROR ibv_create_cq(cqe=256) failed: Connection timed out
[1741608437.949248] [ohm:3226336:0]        ib_iface.c:1059 UCX  ERROR ibv_create_cq(cqe=256) failed: Connection timed out
[1741608437.949661] [ohm:3226398:0]        ib_iface.c:1059 UCX  ERROR ibv_create_cq(cqe=256) failed: Connection timed out
[1741608437.949697] [ohm:3226405:0]        ib_iface.c:1059 UCX  ERROR ibv_create_cq(cqe=256) failed: Connection timed out
[1741608437.951730] [ohm:3226361:0]        ib_iface.c:1059 UCX  ERROR ibv_create_cq(cqe=256) failed: Connection timed out
[1741608437.953645] [ohm:3226333:0]        ib_iface.c:1059 UCX  ERROR ibv_create_cq(cqe=256) failed: Connection timed out
[1741608437.955648] [ohm:3226375:0]        ib_iface.c:1059 UCX  ERROR ibv_create_cq(cqe=256) failed: Connection timed out
[1741608437.956005] [ohm:3226389:0]        ib_iface.c:1059 UCX  ERROR ibv_create_cq(cqe=256) failed: Connection timed out
[1741608437.956188] [ohm:3226332:0]        ib_iface.c:1059 UCX  ERROR ibv_create_cq(cqe=256) failed: Connection timed out
[1741608437.956365] [ohm:3226328:0]        ib_iface.c:1059 UCX  ERROR ibv_create_cq(cqe=256) failed: Connection timed out


           ************************************************************
           *        Program running with 64 parallel MPI-processes    *
           *              working on a common directory               *
           ************************************************************
------------------------------------------------------------------------------
                             ORCA STARTUP CALCULATIONS
                           -- RI-GTO INTEGRALS CHOSEN --
------------------------------------------------------------------------------
------------------------------------------------------------------------------
                   ___                                                        
                  /   \      - P O W E R E D   B Y -                         
                 /     \                                                     
                 |  |  |   _    _      __       _____    __    __             
                 |  |  |  | |  | |    /  \     |  _  \  |  |  /  |          
                  \  \/   | |  | |   /    \    | | | |  |  | /  /          
                 / \  \   | |__| |  /  /\  \   | |_| |  |  |/  /          
                |  |  |   |  __  | /  /__\  \  |    /   |      \           
                |  |  |   | |  | | |   __   |  |    \   |  |\   \          
                \     /   | |  | | |  |  |  |  | |\  \  |  | \   \       
                 \___/    |_|  |_| |__|  |__|  |_| \__\ |__|  \__/        
                                                                              
                      - O R C A' S   B I G   F R I E N D -                    
                                      &                                       
                       - I N T E G R A L  F E E D E R -                       
                                                                              
 v1 FN, 2020, v2 2021, v3 2022-2024                                           
------------------------------------------------------------------------------


----------------------
SHARK INTEGRAL PACKAGE
----------------------

Number of atoms                             ...      7
Number of basis functions                   ...    182
Number of shells                            ...     68
Maximum angular momentum                    ...      3
Integral batch strategy                     ... SHARK/LIBINT Hybrid
RI-J (if used) integral strategy            ... SPLIT-RIJ (Revised 2003 algorithm where possible)
Printlevel                                  ...      1
Contraction scheme used                     ... SEGMENTED contraction
Prescreening option                         ... SCHWARTZ
   Thresh                                   ... 2.500e-11
   Tcut                                     ... 2.500e-12
   Tpresel                                  ... 2.500e-12 
Coulomb Range Separation                    ... NOT USED
Exchange Range Separation                   ... Long Range
   Mu parameter                             ... 3.000e-01
   Scaling (regular/separated)              ... 1.500e-01 8.500e-01
Multipole approximations                    ... NOT USED
Finite Nucleus Model                        ... NOT USED
CABS basis                                  ... NOT available
Auxiliary Coulomb fitting basis             ... AVAILABLE
   # of basis functions in Aux-J            ...    191
   # of shells in Aux-J                     ...     65
   Maximum angular momentum in Aux-J        ...      4
Auxiliary J/K fitting basis                 ... NOT available
Auxiliary Correlation fitting basis         ... NOT available
Auxiliary 'external' fitting basis          ... NOT available

Checking pre-screening integrals            ... done (  0.0 sec) Dimension = 68
Check shell pair data                       ... done (  0.0 sec)
Shell pair information
Shell pair cut-off parameter TPreSel        ...   2.5e-12
Total number of shell pairs                 ...      2346
Shell pairs after pre-screening             ...      2325
Total number of primitive shell pairs       ...      5434
Primitive shell pairs kept                  ...      4811
          la=0 lb=0:    455 shell pairs
          la=1 lb=0:    655 shell pairs
          la=1 lb=1:    252 shell pairs
          la=2 lb=0:    386 shell pairs
          la=2 lb=1:    285 shell pairs
          la=2 lb=2:     91 shell pairs
          la=3 lb=0:     90 shell pairs
          la=3 lb=1:     66 shell pairs
          la=3 lb=2:     39 shell pairs
          la=3 lb=3:      6 shell pairs

Calculating one electron integrals          ... done (  0.0 sec)
Calculating RI/J V-Matrix + Cholesky decomp.... done (  0.0 sec)
Calculating Nuclear repulsion               ... done (  0.0 sec) ENN=     67.348139477241 Eh

Diagonalization of the overlap matrix:
Smallest eigenvalue                        ... 1.534e-05
Time for diagonalization                   ...    0.003 sec
Threshold for overlap eigenvalues          ... 1.000e-07
Number of eigenvalues below threshold      ... 0
Time for construction of square roots      ...    0.003 sec
Total time needed                          ...    0.009 sec

-------------------
DFT GRID GENERATION
-------------------

General Integration Accuracy     IntAcc      ... 4.388
Radial Grid Type                 RadialGrid  ... OptM3 with GC (2021)
Angular Grid (max. ang.)         AngularGrid ... 4 (Lebedev-302)
Angular grid pruning method      GridPruning ... 4 (adaptive)
Weight generation scheme         WeightScheme... mBecke (2022)
Basis function cutoff            BFCut       ... 1.0000e-11
Integration weight cutoff        WCut        ... 1.0000e-14
Partially contracted basis set               ... off
Rotationally invariant grid construction     ... off
Angular grids for H and He will be reduced by one unit
Diffuse basis detected: some atoms will have their outermost
                        angular grid increased by 1.

Total number of grid points                  ...    33134
Total number of batches                      ...      522
Average number of points per batch           ...       63
Average number of grid points per atom       ...     4733

--------------------
COSX GRID GENERATION
--------------------

GRIDX 1
-------
General Integration Accuracy     IntAcc      ... 3.816
Radial Grid Type                 RadialGrid  ... OptM3 with GC (2021)
Angular Grid (max. ang.)         AngularGrid ... 1 (Lebedev-50)
Angular grid pruning method      GridPruning ... 4 (adaptive)
Weight generation scheme         WeightScheme... mBecke (2022)
Basis function cutoff            BFCut       ... 1.0000e-11
Integration weight cutoff        WCut        ... 1.0000e-14
Partially contracted basis set               ... on
Rotationally invariant grid construction     ... off
Angular grids for H and He will be reduced by one unit
Diffuse basis detected: some atoms will have their outermost
                        angular grid increased by 1.

Total number of grid points                  ...     4162
Total number of batches                      ...       37
Average number of points per batch           ...      112
Average number of grid points per atom       ...      595
UseSFitting                                  ... on

GRIDX 2
-------
General Integration Accuracy     IntAcc      ... 4.020
Radial Grid Type                 RadialGrid  ... OptM3 with GC (2021)
Angular Grid (max. ang.)         AngularGrid ... 2 (Lebedev-110)
Angular grid pruning method      GridPruning ... 4 (adaptive)
Weight generation scheme         WeightScheme... mBecke (2022)
Basis function cutoff            BFCut       ... 1.0000e-11
Integration weight cutoff        WCut        ... 1.0000e-14
Partially contracted basis set               ... on
Rotationally invariant grid construction     ... off
Angular grids for H and He will be reduced by one unit
Diffuse basis detected: some atoms will have their outermost
                        angular grid increased by 1.

Total number of grid points                  ...    10277
Total number of batches                      ...       84
Average number of points per batch           ...      122
Average number of grid points per atom       ...     1468
UseSFitting                                  ... on

GRIDX 3
-------
General Integration Accuracy     IntAcc      ... 4.338
Radial Grid Type                 RadialGrid  ... OptM3 with GC (2021)
Angular Grid (max. ang.)         AngularGrid ... 3 (Lebedev-194)
Angular grid pruning method      GridPruning ... 4 (adaptive)
Weight generation scheme         WeightScheme... mBecke (2022)
Basis function cutoff            BFCut       ... 1.0000e-11
Integration weight cutoff        WCut        ... 1.0000e-14
Partially contracted basis set               ... on
Rotationally invariant grid construction     ... off
Angular grids for H and He will be reduced by one unit
Diffuse basis detected: some atoms will have their outermost
                        angular grid increased by 1.

Total number of grid points                  ...    23112
Total number of batches                      ...      183
Average number of points per batch           ...      126
Average number of grid points per atom       ...     3302
UseSFitting                                  ... on
Initializing property integral containers    ... done (  0.0 sec)

SHARK setup successfully completed in   0.4 seconds

Maximum memory used throughout the entire STARTUP-calculation: 13.8 MB
[1741608439.966748] [ohm:3226601:0]        ib_iface.c:1059 UCX  ERROR ibv_create_cq(cqe=256) failed: Connection timed out
[1741608439.969394] [ohm:3226600:0]        ib_iface.c:1059 UCX  ERROR ibv_create_cq(cqe=256) failed: Connection timed out
[1741608440.016910] [ohm:3226625:0]        ib_iface.c:1059 UCX  ERROR ibv_create_cq(cqe=256) failed: Connection timed out
[1741608440.016969] [ohm:3226607:0]        ib_iface.c:1059 UCX  ERROR ibv_create_cq(cqe=256) failed: Connection timed out
[1741608440.019096] [ohm:3226602:0]        ib_iface.c:1059 UCX  ERROR ibv_create_cq(cqe=256) failed: Connection timed out
[1741608440.020071] [ohm:3226639:0]        ib_iface.c:1059 UCX  ERROR ibv_create_cq(cqe=256) failed: Connection timed out
[1741608440.027818] [ohm:3226603:0]        ib_iface.c:1059 UCX  ERROR ibv_create_cq(cqe=256) failed: Connection timed out
[1741608440.033093] [ohm:3226604:0]        ib_iface.c:1059 UCX  ERROR ibv_create_cq(cqe=256) failed: Connection timed out
[1741608440.033223] [ohm:3226688:0]        ib_iface.c:1059 UCX  ERROR ibv_create_cq(cqe=256) failed: Connection timed out
[1741608440.038604] [ohm:3226610:0]        ib_iface.c:1059 UCX  ERROR ibv_create_cq(cqe=256) failed: Connection timed out
[1741608440.042206] [ohm:3226678:0]        ib_iface.c:1059 UCX  ERROR ibv_create_cq(cqe=256) failed: Connection timed out
[1741608440.045080] [ohm:3226636:0]        ib_iface.c:1059 UCX  ERROR ibv_create_cq(cqe=256) failed: Connection timed out
[1741608440.063631] [ohm:3226711:0]        ib_iface.c:1059 UCX  ERROR ibv_create_cq(cqe=256) failed: Connection timed out
[1741608440.084429] [ohm:3226608:0]        ib_iface.c:1059 UCX  ERROR ibv_create_cq(cqe=256) failed: Connection timed out
[1741608440.085995] [ohm:3226751:0]        ib_iface.c:1059 UCX  ERROR ibv_create_cq(cqe=256) failed: Connection timed out
[1741608440.086802] [ohm:3226651:0]        ib_iface.c:1059 UCX  ERROR ibv_create_cq(cqe=256) failed: Connection timed out
[1741608440.102554] [ohm:3226670:0]        ib_iface.c:1059 UCX  ERROR ibv_create_cq(cqe=256) failed: Connection timed out
[1741608440.102554] [ohm:3226686:0]        ib_iface.c:1059 UCX  ERROR ibv_create_cq(cqe=256) failed: Connection timed out
[1741608440.102825] [ohm:3226611:0]        ib_iface.c:1059 UCX  ERROR ibv_create_cq(cqe=256) failed: Connection timed out
[1741608440.104622] [ohm:3226713:0]        ib_iface.c:1059 UCX  ERROR ibv_create_cq(cqe=256) failed: Connection timed out
[1741608440.113925] [ohm:3226652:0]        ib_iface.c:1059 UCX  ERROR ibv_create_cq(cqe=256) failed: Connection timed out
[1741608440.128955] [ohm:3226627:0]        ib_iface.c:1059 UCX  ERROR ibv_create_cq(cqe=256) failed: Connection timed out
[1741608440.131152] [ohm:3226630:0]        ib_iface.c:1059 UCX  ERROR ibv_create_cq(cqe=256) failed: Connection timed out
[1741608440.145658] [ohm:3226653:0]        ib_iface.c:1059 UCX  ERROR ibv_create_cq(cqe=256) failed: Connection timed out
[1741608440.150197] [ohm:3226658:0]        ib_iface.c:1059 UCX  ERROR ibv_create_cq(cqe=256) failed: Connection timed out
[1741608440.166512] [ohm:3226624:0]        ib_iface.c:1059 UCX  ERROR ibv_create_cq(cqe=256) failed: Connection timed out
[1741608440.166657] [ohm:3226681:0]        ib_iface.c:1059 UCX  ERROR ibv_create_cq(cqe=256) failed: Connection timed out
[1741608440.167760] [ohm:3226649:0]        ib_iface.c:1059 UCX  ERROR ibv_create_cq(cqe=256) failed: Connection timed out
[1741608440.187675] [ohm:3226661:0]        ib_iface.c:1059 UCX  ERROR ibv_create_cq(cqe=256) failed: Connection timed out
[1741608440.198122] [ohm:3226605:0]        ib_iface.c:1059 UCX  ERROR ibv_create_cq(cqe=256) failed: Connection timed out
[1741608440.198335] [ohm:3226632:0]        ib_iface.c:1059 UCX  ERROR ibv_create_cq(cqe=256) failed: Connection timed out
[1741608440.200879] [ohm:3226674:0]        ib_iface.c:1059 UCX  ERROR ibv_create_cq(cqe=256) failed: Connection timed out
[1741608440.202255] [ohm:3226634:0]        ib_iface.c:1059 UCX  ERROR ibv_create_cq(cqe=256) failed: Connection timed out
[1741608440.207058] [ohm:3226606:0]        ib_iface.c:1059 UCX  ERROR ibv_create_cq(cqe=256) failed: Connection timed out
[1741608440.223741] [ohm:3226735:0]        ib_iface.c:1059 UCX  ERROR ibv_create_cq(cqe=256) failed: Connection timed out
[1741608440.224480] [ohm:3226697:0]        ib_iface.c:1059 UCX  ERROR ibv_create_cq(cqe=256) failed: Connection timed out
[1741608440.226764] [ohm:3226642:0]        ib_iface.c:1059 UCX  ERROR ibv_create_cq(cqe=256) failed: Connection timed out
[1741608440.229492] [ohm:3226718:0]        ib_iface.c:1059 UCX  ERROR ibv_create_cq(cqe=256) failed: Connection timed out
[1741608440.229963] [ohm:3226628:0]        ib_iface.c:1059 UCX  ERROR ibv_create_cq(cqe=256) failed: Connection timed out
[1741608440.232112] [ohm:3226665:0]        ib_iface.c:1059 UCX  ERROR ibv_create_cq(cqe=256) failed: Connection timed out
[1741608440.239714] [ohm:3226707:0]        ib_iface.c:1059 UCX  ERROR ibv_create_cq(cqe=256) failed: Connection timed out
[1741608440.241263] [ohm:3226629:0]        ib_iface.c:1059 UCX  ERROR ibv_create_cq(cqe=256) failed: Connection timed out
[1741608440.250348] [ohm:3226655:0]        ib_iface.c:1059 UCX  ERROR ibv_create_cq(cqe=256) failed: Connection timed out
[1741608440.260417] [ohm:3226738:0]        ib_iface.c:1059 UCX  ERROR ibv_create_cq(cqe=256) failed: Connection timed out
[1741608440.261287] [ohm:3226703:0]        ib_iface.c:1059 UCX  ERROR ibv_create_cq(cqe=256) failed: Connection timed out
[1741608440.261552] [ohm:3226734:0]        ib_iface.c:1059 UCX  ERROR ibv_create_cq(cqe=256) failed: Connection timed out
[1741608440.265013] [ohm:3226745:0]        ib_iface.c:1059 UCX  ERROR ibv_create_cq(cqe=256) failed: Connection timed out
[1741608440.268371] [ohm:3226631:0]        ib_iface.c:1059 UCX  ERROR ibv_create_cq(cqe=256) failed: Connection timed out
[1741608440.269710] [ohm:3226659:0]        ib_iface.c:1059 UCX  ERROR ibv_create_cq(cqe=256) failed: Connection timed out
[1741608440.272784] [ohm:3226691:0]        ib_iface.c:1059 UCX  ERROR ibv_create_cq(cqe=256) failed: Connection timed out
[1741608440.280136] [ohm:3226748:0]        ib_iface.c:1059 UCX  ERROR ibv_create_cq(cqe=256) failed: Connection timed out
[1741608440.283125] [ohm:3226730:0]        ib_iface.c:1059 UCX  ERROR ibv_create_cq(cqe=256) failed: Connection timed out
[1741608440.284032] [ohm:3226728:0]        ib_iface.c:1059 UCX  ERROR ibv_create_cq(cqe=256) failed: Connection timed out
[1741608440.286648] [ohm:3226740:0]        ib_iface.c:1059 UCX  ERROR ibv_create_cq(cqe=256) failed: Connection timed out
[1741608440.288348] [ohm:3226721:0]        ib_iface.c:1059 UCX  ERROR ibv_create_cq(cqe=256) failed: Connection timed out
[1741608440.291266] [ohm:3226685:0]        ib_iface.c:1059 UCX  ERROR ibv_create_cq(cqe=256) failed: Connection timed out
[1741608440.295121] [ohm:3226657:0]        ib_iface.c:1059 UCX  ERROR ibv_create_cq(cqe=256) failed: Connection timed out
[1741608440.295316] [ohm:3226626:0]        ib_iface.c:1059 UCX  ERROR ibv_create_cq(cqe=256) failed: Connection timed out
[1741608440.295711] [ohm:3226654:0]        ib_iface.c:1059 UCX  ERROR ibv_create_cq(cqe=256) failed: Connection timed out
[1741608440.296561] [ohm:3226647:0]        ib_iface.c:1059 UCX  ERROR ibv_create_cq(cqe=256) failed: Connection timed out
[1741608440.299970] [ohm:3226710:0]        ib_iface.c:1059 UCX  ERROR ibv_create_cq(cqe=256) failed: Connection timed out
[1741608440.300418] [ohm:3226695:0]        ib_iface.c:1059 UCX  ERROR ibv_create_cq(cqe=256) failed: Connection timed out
[1741608440.300690] [ohm:3226609:0]        ib_iface.c:1059 UCX  ERROR ibv_create_cq(cqe=256) failed: Connection timed out
[1741608440.301334] [ohm:3226656:0]        ib_iface.c:1059 UCX  ERROR ibv_create_cq(cqe=256) failed: Connection timed out


           ************************************************************
           *        Program running with 64 parallel MPI-processes    *
           *              working on a common directory               *
           ************************************************************
-------------------------------------------------------------------------------
                                 ORCA GUESS
                   Start orbitals & Density for SCF / CASSCF
-------------------------------------------------------------------------------

------------
SCF SETTINGS
------------
Hamiltonian:
 Density Functional     Method          .... DFT(GTOs)
  Functional kind                       .... Exchange-Correlation
  Functional name                       .... wB97M-V exchange-correlation functional
  Functional family                     .... Hybrid MGGA
  Functional refs                              
    [ 0] N. Mardirossian and M. Head-Gordon.,  J. Chem. Phys. 144, 214110 (2016), doi: 10.1063/1.4952647
  Fraction of HF Exchange (short range) .... 0.1500
  Fraction of HF Exchange (long range)  .... 1.0000
  Range separation parameter mu         .... 0.3000
  Functional external parameters        .... 17
    Parameter  0 _cx00      =  8.500000e-01 : u^00 coefficient for exchange
    Parameter  1 _cx01      =  1.007000e+00 : u^01 coefficient for exchange
    Parameter  2 _cx10      =  2.590000e-01 : u^10 coefficient for exchange
    Parameter  3 _css00     =  4.430000e-01 : u^00 coefficient for same-spin correlation
    Parameter  4 _css04     = -1.437000e+00 : u^04 coefficient for same-spin correlation
    Parameter  5 _css10     = -4.535000e+00 : u^10 coefficient for same-spin correlation
    Parameter  6 _css20     = -3.390000e+00 : u^20 coefficient for same-spin correlation
    Parameter  7 _css43     =  4.278000e+00 : u^43 coefficient for same-spin correlation
    Parameter  8 _cos00     =  1.000000e+00 : u^00 coefficient for opposite-spin correlation
    Parameter  9 _cos10     =  1.358000e+00 : u^10 coefficient for opposite-spin correlation
    Parameter 10 _cos20     =  2.924000e+00 : u^20 coefficient for opposite-spin correlation
    Parameter 11 _cos21     = -8.812000e+00 : u^21 coefficient for opposite-spin correlation
    Parameter 12 _cos60     = -1.390000e+00 : u^60 coefficient for opposite-spin correlation
    Parameter 13 _cos61     =  9.142000e+00 : u^61 coefficient for opposite-spin correlation
    Parameter 14 _alpha     =  1.000000e+00 : fraction of HF exchange
    Parameter 15 _beta      = -8.500000e-01 : fraction of short-range exchange
    Parameter 16 _omega     =  3.000000e-01 : range-separation constant
 Long-range corrected/Screened/Range-Separated Hybrid DFT is turned on
   Amount of maximum screened exact exchange              ....  0.850000
   Range separation parameter mu (erf(mu*r12)/r12)        ....  0.300000
 RI-approximation to the Coulomb term is turned on
   Number of AuxJ basis functions       .... 191
   RIJ-COSX (HFX calculated with COS-X)).... on


General Settings:
 Integral files         IntName         .... orca
 Hartree-Fock type      HFTyp           .... UHF
 Total Charge           Charge          ....    0
 Multiplicity           Mult            ....    3
 Number of Electrons    NEL             ....   24
 Basis Dimension        Dim             ....  182
 Nuclear Repulsion      ENuc            ....     67.3481394772 Eh

Convergence Acceleration:
 AO-DIIS                CNVDIIS         .... on
   Start iteration      DIISMaxIt       ....    12
   Startup error        DIISStart       ....  0.200000
   # of expansion vecs  DIISMaxEq       ....     5
   Bias factor          DIISBfac        ....   1.050
   Max. coefficient     DIISMaxC        ....  10.000
 MO-DIIS                CNVKDIIS        .... off
 Trust-Rad. Augm. Hess. CNVTRAH         .... auto
   Auto Start mean grad. ratio tolernc. ....  1.125000
   Auto Start start iteration           ....    50
   Auto Start num. interpolation iter.  ....    10
   Max. Number of Micro iterations      ....    24
   Max. Number of Macro iterations      .... Maxiter - #DIIS iter
   Number of Davidson start vectors     ....     2
   Converg. threshold    (grad. norm)   ....   1.000e-05
   Grad. Scal. Fac. for Micro threshold ....   0.100
   Minimum threshold for Micro iter.    ....   1.000e-02
   NR start threshold (gradient norm)   ....   1.000e-04
   Initial trust radius                 ....   0.400
   Minimum AH scaling param. (alpha)    ....   1.000
   Maximum AH scaling param. (alpha)    .... 1000.000
   Quad. conv. algorithm                .... NR
   White noise on init. David. guess    .... on
   Maximum white noise                  ....   0.010
   Pseudo random numbers                .... off
   Inactive MOs                         .... canonical
   Orbital update algorithm             .... Taylor
   Preconditioner                       .... Diag
   Full preconditioner red. dimension   ....   250
 SOSCF                  CNVSOSCF        .... on
   Start iteration      SOSCFMaxIt      ....   150
   Startup grad/error   SOSCFStart      ....  0.003300
   Hessian update       SOSCFHessUp     .... L-BFGS
 Level Shifting         CNVShift        .... on
   Level shift para.    LevelShift      ....    0.2500
   Turn off err/grad.   ShiftErr        ....    0.0010
 Zerner damping         CNVZerner       .... off
 Static damping         CNVDamp         .... on
   Fraction old density DampFac         ....    0.7000
   Max. Damping (<1)    DampMax         ....    0.9800
   Min. Damping (>=0)   DampMin         ....    0.0000
   Turn off err/grad.   DampErr         ....    0.1000

SCF Procedure:
 Maximum # iterations   MaxIter         ....   125
 SCF integral mode      SCFMode         .... Direct
   Integral package                     .... SHARK and LIBINT hybrid scheme
 Reset frequency        DirectResetFreq ....    20
 Integral Threshold     Thresh          ....  2.500e-11 Eh
 Primitive CutOff       TCut            ....  2.500e-12 Eh

Convergence Tolerance:
 Convergence Check Mode ConvCheckMode   .... Total+1el-Energy
 Convergence forced     ConvForced      .... 1
 Energy Change          TolE            ....  1.000e-08 Eh
 1-El. energy change                    ....  1.000e-05 Eh
 Orbital Gradient       TolG            ....  1.000e-05
 Orbital Rotation angle TolX            ....  1.000e-05
 DIIS Error             TolErr          ....  5.000e-07

------------------------------
INITIAL GUESS: MODEL POTENTIAL
------------------------------
Loading Hartree-Fock densities                     ... done
Calculating cut-offs                               ... done
Initializing the effective Hamiltonian             ... done
Setting up the integral package (SHARK)            ... done
Starting the Coulomb interaction                   ... done (   0.0 sec)
Making the grid                                    ... done (   0.0 sec)
Mapping shells                                     ... done
Starting the XC term evaluation                    ... done (   0.0 sec)
  promolecular density results
     # of electrons  =     23.998517315
     EX              =    -19.446275308
     EC              =     -0.763113079
     EX+EC           =    -20.209388387
Transforming the Hamiltonian                       ... done (   0.0 sec)
Diagonalizing the Hamiltonian                      ... done (   0.0 sec)
Back transforming the eigenvectors                 ... done (   0.0 sec)
Now organizing SCF variables                       ... done
                      ------------------
                      INITIAL GUESS DONE (   0.1 sec)
                      ------------------
             **** ENERGY FILE WAS UPDATED (orca.en.tmp) ****
Finished Guess after   1.7 sec
Maximum memory used throughout the entire GUESS-calculation: 9.5 MB
[1741608442.058468] [ohm:3226939:0]        ib_iface.c:1059 UCX  ERROR ibv_create_cq(cqe=256) failed: Connection timed out
[1741608442.070618] [ohm:3226940:0]        ib_iface.c:1059 UCX  ERROR ibv_create_cq(cqe=256) failed: Connection timed out
[1741608442.074802] [ohm:3226941:0]        ib_iface.c:1059 UCX  ERROR ibv_create_cq(cqe=256) failed: Connection timed out
[1741608442.079287] [ohm:3226942:0]        ib_iface.c:1059 UCX  ERROR ibv_create_cq(cqe=256) failed: Connection timed out
[1741608442.082220] [ohm:3226943:0]        ib_iface.c:1059 UCX  ERROR ibv_create_cq(cqe=256) failed: Connection timed out
[1741608442.083713] [ohm:3226944:0]        ib_iface.c:1059 UCX  ERROR ibv_create_cq(cqe=256) failed: Connection timed out
[1741608442.089622] [ohm:3226957:0]        ib_iface.c:1059 UCX  ERROR ibv_create_cq(cqe=256) failed: Connection timed out
[1741608442.122821] [ohm:3226950:0]        ib_iface.c:1059 UCX  ERROR ibv_create_cq(cqe=256) failed: Connection timed out
[1741608442.125428] [ohm:3226963:0]        ib_iface.c:1059 UCX  ERROR ibv_create_cq(cqe=256) failed: Connection timed out
[1741608442.126482] [ohm:3226967:0]        ib_iface.c:1059 UCX  ERROR ibv_create_cq(cqe=256) failed: Connection timed out
[1741608442.127001] [ohm:3226946:0]        ib_iface.c:1059 UCX  ERROR ibv_create_cq(cqe=256) failed: Connection timed out
[1741608442.129862] [ohm:3226947:0]        ib_iface.c:1059 UCX  ERROR ibv_create_cq(cqe=256) failed: Connection timed out
[1741608442.132256] [ohm:3226965:0]        ib_iface.c:1059 UCX  ERROR ibv_create_cq(cqe=256) failed: Connection timed out
[1741608442.134907] [ohm:3226945:0]        ib_iface.c:1059 UCX  ERROR ibv_create_cq(cqe=256) failed: Connection timed out
[1741608442.138678] [ohm:3226969:0]        ib_iface.c:1059 UCX  ERROR ibv_create_cq(cqe=256) failed: Connection timed out
[1741608442.139993] [ohm:3226959:0]        ib_iface.c:1059 UCX  ERROR ibv_create_cq(cqe=256) failed: Connection timed out
[1741608442.143382] [ohm:3226952:0]        ib_iface.c:1059 UCX  ERROR ibv_create_cq(cqe=256) failed: Connection timed out
[1741608442.214744] [ohm:3227009:0]        ib_iface.c:1059 UCX  ERROR ibv_create_cq(cqe=256) failed: Connection timed out
[1741608442.215147] [ohm:3226992:0]        ib_iface.c:1059 UCX  ERROR ibv_create_cq(cqe=256) failed: Connection timed out
[1741608442.225973] [ohm:3226998:0]        ib_iface.c:1059 UCX  ERROR ibv_create_cq(cqe=256) failed: Connection timed out
[1741608442.238190] [ohm:3226997:0]        ib_iface.c:1059 UCX  ERROR ibv_create_cq(cqe=256) failed: Connection timed out
[1741608442.238471] [ohm:3226991:0]        ib_iface.c:1059 UCX  ERROR ibv_create_cq(cqe=256) failed: Connection timed out
[1741608442.251376] [ohm:3227001:0]        ib_iface.c:1059 UCX  ERROR ibv_create_cq(cqe=256) failed: Connection timed out
[1741608442.255417] [ohm:3226995:0]        ib_iface.c:1059 UCX  ERROR ibv_create_cq(cqe=256) failed: Connection timed out
[1741608442.260443] [ohm:3226999:0]        ib_iface.c:1059 UCX  ERROR ibv_create_cq(cqe=256) failed: Connection timed out
[1741608442.261978] [ohm:3227080:0]        ib_iface.c:1059 UCX  ERROR ibv_create_cq(cqe=256) failed: Connection timed out
[1741608442.280203] [ohm:3226986:0]        ib_iface.c:1059 UCX  ERROR ibv_create_cq(cqe=256) failed: Connection timed out
[1741608442.280545] [ohm:3227025:0]        ib_iface.c:1059 UCX  ERROR ibv_create_cq(cqe=256) failed: Connection timed out
[1741608442.284404] [ohm:3227000:0]        ib_iface.c:1059 UCX  ERROR ibv_create_cq(cqe=256) failed: Connection timed out
[1741608442.305374] [ohm:3227047:0]        ib_iface.c:1059 UCX  ERROR ibv_create_cq(cqe=256) failed: Connection timed out
[1741608442.305451] [ohm:3227040:0]        ib_iface.c:1059 UCX  ERROR ibv_create_cq(cqe=256) failed: Connection timed out
[1741608442.305813] [ohm:3227005:0]        ib_iface.c:1059 UCX  ERROR ibv_create_cq(cqe=256) failed: Connection timed out
[1741608442.308341] [ohm:3227058:0]        ib_iface.c:1059 UCX  ERROR ibv_create_cq(cqe=256) failed: Connection timed out
[1741608442.308461] [ohm:3226983:0]        ib_iface.c:1059 UCX  ERROR ibv_create_cq(cqe=256) failed: Connection timed out
[1741608442.309615] [ohm:3227011:0]        ib_iface.c:1059 UCX  ERROR ibv_create_cq(cqe=256) failed: Connection timed out
[1741608442.309953] [ohm:3227064:0]        ib_iface.c:1059 UCX  ERROR ibv_create_cq(cqe=256) failed: Connection timed out
[1741608442.314515] [ohm:3227050:0]        ib_iface.c:1059 UCX  ERROR ibv_create_cq(cqe=256) failed: Connection timed out
[1741608442.318123] [ohm:3226982:0]        ib_iface.c:1059 UCX  ERROR ibv_create_cq(cqe=256) failed: Connection timed out
[1741608442.332500] [ohm:3227026:0]        ib_iface.c:1059 UCX  ERROR ibv_create_cq(cqe=256) failed: Connection timed out
[1741608442.355165] [ohm:3227021:0]        ib_iface.c:1059 UCX  ERROR ibv_create_cq(cqe=256) failed: Connection timed out
[1741608442.358909] [ohm:3227008:0]        ib_iface.c:1059 UCX  ERROR ibv_create_cq(cqe=256) failed: Connection timed out
[1741608442.359135] [ohm:3226996:0]        ib_iface.c:1059 UCX  ERROR ibv_create_cq(cqe=256) failed: Connection timed out
[1741608442.359904] [ohm:3227010:0]        ib_iface.c:1059 UCX  ERROR ibv_create_cq(cqe=256) failed: Connection timed out
[1741608442.361286] [ohm:3227006:0]        ib_iface.c:1059 UCX  ERROR ibv_create_cq(cqe=256) failed: Connection timed out
[1741608442.364111] [ohm:3227061:0]        ib_iface.c:1059 UCX  ERROR ibv_create_cq(cqe=256) failed: Connection timed out
[1741608442.368253] [ohm:3227084:0]        ib_iface.c:1059 UCX  ERROR ibv_create_cq(cqe=256) failed: Connection timed out
[1741608442.371056] [ohm:3227033:0]        ib_iface.c:1059 UCX  ERROR ibv_create_cq(cqe=256) failed: Connection timed out
[1741608442.373042] [ohm:3227002:0]        ib_iface.c:1059 UCX  ERROR ibv_create_cq(cqe=256) failed: Connection timed out
[1741608442.373757] [ohm:3227070:0]        ib_iface.c:1059 UCX  ERROR ibv_create_cq(cqe=256) failed: Connection timed out
[1741608442.377466] [ohm:3227007:0]        ib_iface.c:1059 UCX  ERROR ibv_create_cq(cqe=256) failed: Connection timed out
[1741608442.387898] [ohm:3227012:0]        ib_iface.c:1059 UCX  ERROR ibv_create_cq(cqe=256) failed: Connection timed out
[1741608442.390658] [ohm:3227045:0]        ib_iface.c:1059 UCX  ERROR ibv_create_cq(cqe=256) failed: Connection timed out
[1741608442.395366] [ohm:3227056:0]        ib_iface.c:1059 UCX  ERROR ibv_create_cq(cqe=256) failed: Connection timed out
[1741608442.398463] [ohm:3227019:0]        ib_iface.c:1059 UCX  ERROR ibv_create_cq(cqe=256) failed: Connection timed out
[1741608442.403168] [ohm:3227074:0]        ib_iface.c:1059 UCX  ERROR ibv_create_cq(cqe=256) failed: Connection timed out
[1741608442.406568] [ohm:3227014:0]        ib_iface.c:1059 UCX  ERROR ibv_create_cq(cqe=256) failed: Connection timed out
[1741608442.406550] [ohm:3227087:0]        ib_iface.c:1059 UCX  ERROR ibv_create_cq(cqe=256) failed: Connection timed out
[1741608442.406641] [ohm:3227066:0]        ib_iface.c:1059 UCX  ERROR ibv_create_cq(cqe=256) failed: Connection timed out
[1741608442.407199] [ohm:3227030:0]        ib_iface.c:1059 UCX  ERROR ibv_create_cq(cqe=256) failed: Connection timed out
[1741608442.407973] [ohm:3227003:0]        ib_iface.c:1059 UCX  ERROR ibv_create_cq(cqe=256) failed: Connection timed out
[1741608442.411917] [ohm:3227038:0]        ib_iface.c:1059 UCX  ERROR ibv_create_cq(cqe=256) failed: Connection timed out
[1741608442.413094] [ohm:3227004:0]        ib_iface.c:1059 UCX  ERROR ibv_create_cq(cqe=256) failed: Connection timed out
[1741608442.414516] [ohm:3227016:0]        ib_iface.c:1059 UCX  ERROR ibv_create_cq(cqe=256) failed: Connection timed out
[1741608442.415144] [ohm:3227053:0]        ib_iface.c:1059 UCX  ERROR ibv_create_cq(cqe=256) failed: Connection timed out


           ************************************************************
           *        Program running with 64 parallel MPI-processes    *
           *              working on a common directory               *
           ************************************************************

-------------------------------------------------------------------------------------------
                                      ORCA LEAN-SCF
                              memory conserving SCF solver
-------------------------------------------------------------------------------------------

----------------------------------------D-I-I-S--------------------------------------------
Iteration    Energy (Eh)           Delta-E    RMSDP     MaxDP     DIISErr   Damp  Time(sec)
-------------------------------------------------------------------------------------------
               ***  Starting incremental Fock matrix formation  ***
    1    -153.6988583584921173     0.00e+00  8.80e-04  2.21e-02  7.13e-02  0.700   0.3
    2    -153.7238631854984305    -2.50e-02  7.80e-04  1.96e-02  4.08e-02  0.700   0.3
                               ***Turning on AO-DIIS***
    3    -153.7378259580342501    -1.40e-02  6.25e-04  1.79e-02  2.55e-02  0.700   0.3
    4    -153.7466308413710294    -8.80e-03  1.57e-03  4.64e-02  2.09e-02  0.000   0.3
    5    -153.7678889458911158    -2.13e-02  1.69e-04  5.72e-03  7.61e-03  0.000   0.3
    6    -153.7685600031442732    -6.71e-04  1.06e-04  3.32e-03  4.18e-03  0.000   0.3
                              *** Initializing SOSCF ***
---------------------------------------S-O-S-C-F--------------------------------------
Iteration    Energy (Eh)           Delta-E    RMSDP     MaxDP     MaxGrad    Time(sec)
--------------------------------------------------------------------------------------
    7    -153.7688935408220061    -3.34e-04  6.05e-05  1.78e-03  3.04e-03     0.3
               *** Restarting incremental Fock matrix formation ***
    8    -153.7690432847472835    -1.50e-04  4.11e-05  1.54e-03  1.99e-03     0.3
    9    -153.7690974441336493    -5.42e-05  1.03e-04  2.86e-03  1.75e-03     0.3
   10    -153.7691654474973006    -6.80e-05  5.37e-05  2.10e-03  1.40e-03     0.3
   11    -153.7691944243345290    -2.90e-05  1.76e-04  7.10e-03  1.28e-03     0.3
   12    -153.7692795919041373    -8.52e-05  3.34e-04  1.44e-02  1.58e-03     0.2
   13    -153.7693979170293801    -1.18e-04  1.49e-04  6.76e-03  1.26e-03     0.3
   14    -153.7694404668856407    -4.25e-05  4.56e-05  1.29e-03  6.06e-04     0.3
   15    -153.7694498939439711    -9.43e-06  1.52e-05  6.35e-04  2.98e-04     0.3
   16    -153.7694511163256266    -1.22e-06  5.31e-06  1.85e-04  1.53e-04     0.3
   17    -153.7694513560316807    -2.40e-07  2.55e-06  7.78e-05  7.07e-05     0.3
   18    -153.7694514073096457    -5.13e-08  1.02e-06  3.62e-05  1.87e-05     0.3
   19    -153.7694514115841855    -4.27e-09  6.50e-07  1.65e-05  9.69e-06     0.3
                 **** Energy Check signals convergence ****

               *****************************************************
               *                     SUCCESS                       *
               *           SCF CONVERGED AFTER  19 CYCLES          *
               *****************************************************

Recomputing exchange energy using gridx3       ... done (    0.170 sec)
Old exchange energy                            :     -6.189793805 Eh
New exchange energy                            :     -6.189792046 Eh
Exchange energy change after final integration :      0.000001759 Eh
Total energy after final integration           :   -153.769449653 Eh
             **** ENERGY FILE WAS UPDATED (orca.en.tmp) ****

----------------
TOTAL SCF ENERGY
----------------

Total Energy       :       -153.76944965260302 Eh           -4184.27945 eV

Components:
Nuclear Repulsion  :         67.34813947724058 Eh            1832.63604 eV
Electronic Energy  :       -221.11759088882476 Eh           -6016.91554 eV
One Electron Energy:       -341.20838823714763 Eh           -9284.75227 eV
Two Electron Energy:        120.09079734832287 Eh            3267.83673 eV

Virial components:
Potential Energy   :       -306.95063135620808 Eh           -8352.55131 eV
Kinetic Energy     :        153.18118170360503 Eh            4168.27187 eV
Virial Ratio       :          2.00384034084641

DFT components:
N(Alpha)           :       12.999989589554 electrons
N(Beta)            :       10.999983473183 electrons
N(Total)           :       23.999973062736 electrons
E(XC)              :      -14.669752294295 Eh       

---------------
SCF CONVERGENCE
---------------

  Last Energy change         ...    4.2745e-09  Tolerance :   1.0000e-08
  Last MAX-Density change    ...    1.6455e-05  Tolerance :   1.0000e-07
  Last RMS-Density change    ...    6.5010e-07  Tolerance :   5.0000e-09
  Last DIIS Error            ...    3.0385e-03  Tolerance :   5.0000e-07
  Last Orbital Gradient      ...    9.6855e-06  Tolerance :   1.0000e-05
  Last Orbital Rotation      ...    6.5334e-05  Tolerance :   1.0000e-05


----------------------
UHF SPIN CONTAMINATION
----------------------

Warning: in a DFT calculation there is little theoretical justification to 
         calculate <S**2> as in Hartree-Fock theory. We will do it anyways
         but you should keep in mind that the values have only limited relevance

Expectation value of <S**2>     :     2.008064
Ideal value S*(S+1) for S=1.0   :     2.000000
Deviation                       :     0.008064

----------------
ORBITAL ENERGIES
----------------
                 SPIN UP ORBITALS
  NO   OCC          E(Eh)            E(eV) 
   0   1.0000     -19.394967      -527.7639 
   1   1.0000     -10.426521      -283.7201 
   2   1.0000     -10.370676      -282.2004 
   3   1.0000      -1.173031       -31.9198 
   4   1.0000      -0.873391       -23.7662 
   5   1.0000      -0.739367       -20.1192 
   6   1.0000      -0.617763       -16.8102 
   7   1.0000      -0.584390       -15.9021 
   8   1.0000      -0.563800       -15.3418 
   9   1.0000      -0.495238       -13.4761 
  10   1.0000      -0.443247       -12.0614 
  11   1.0000      -0.417786       -11.3685 
  12   1.0000      -0.325406        -8.8548 
  13   0.0000       0.040267         1.0957 
  14   0.0000       0.060072         1.6346 
  15   0.0000       0.077918         2.1202 
  16   0.0000       0.087465         2.3800 
  17   0.0000       0.109960         2.9922 
  18   0.0000       0.126671         3.4469 
  19   0.0000       0.134977         3.6729 
  20   0.0000       0.139160         3.7867 
  21   0.0000       0.171735         4.6731 
  22   0.0000       0.194423         5.2905 
  23   0.0000       0.200588         5.4583 

                 SPIN DOWN ORBITALS
  NO   OCC          E(Eh)            E(eV) 
   0   1.0000     -19.370787      -527.1059 
   1   1.0000     -10.427908      -283.7578 
   2   1.0000     -10.357054      -281.8298 
   3   1.0000      -1.118330       -30.4313 
   4   1.0000      -0.839695       -22.8493 
   5   1.0000      -0.712141       -19.3783 
   6   1.0000      -0.582280       -15.8446 
   7   1.0000      -0.552371       -15.0308 
   8   1.0000      -0.537267       -14.6198 
   9   1.0000      -0.470276       -12.7969 
  10   1.0000      -0.388042       -10.5591 
  11   0.0000      -0.056268        -1.5311 
  12   0.0000      -0.002319        -0.0631 
  13   0.0000       0.039694         1.0801 
  14   0.0000       0.060492         1.6461 
  15   0.0000       0.077933         2.1207 
  16   0.0000       0.089227         2.4280 
  17   0.0000       0.111637         3.0378 
  18   0.0000       0.128723         3.5027 
  19   0.0000       0.136822         3.7231 
  20   0.0000       0.141684         3.8554 
  21   0.0000       0.177197         4.8218 
*Only the first 10 virtual orbitals were printed.

                    ********************************
                    * MULLIKEN POPULATION ANALYSIS *
                    ********************************

--------------------------------------------
MULLIKEN ATOMIC CHARGES AND SPIN POPULATIONS
--------------------------------------------
   0 O :   -0.325726    0.929818
   1 C :    0.106396    0.006838
   2 C :   -0.660913    0.887128
   3 H :    0.152501    0.114421
   4 H :    0.207187    0.027988
   5 H :    0.209935    0.006945
   6 H :    0.310620    0.026862
Sum of atomic charges         :   -0.0000000
Sum of atomic spin populations:    2.0000000

-----------------------------------------------------
MULLIKEN REDUCED ORBITAL CHARGES AND SPIN POPULATIONS
-----------------------------------------------------
CHARGE
  0 O s       :     4.006249  s :     4.006249
      pz      :     1.615164  p :     4.296527
      px      :     1.416134
      py      :     1.265229
      dz2     :     0.002726  d :     0.021701
      dxz     :     0.001599
      dyz     :     0.004675
      dx2y2   :     0.006702
      dxy     :     0.005999
      f0      :     0.000133  f :     0.001249
      f+1     :     0.000060
      f-1     :     0.000227
      f+2     :     0.000150
      f-2     :     0.000154
      f+3     :     0.000260
      f-3     :     0.000264

  1 C s       :     3.176042  s :     3.176042
      pz      :     0.804835  p :     2.540902
      px      :     1.036062
      py      :     0.700005
      dz2     :     0.027626  d :     0.166212
      dxz     :     0.007325
      dyz     :     0.047370
      dx2y2   :     0.014139
      dxy     :     0.069751
      f0      :     0.001766  f :     0.010448
      f+1     :     0.001051
      f-1     :     0.002200
      f+2     :     0.001292
      f-2     :     0.000620
      f+3     :     0.001764
      f-3     :     0.001755

  2 C s       :     3.601212  s :     3.601212
      pz      :     0.925153  p :     3.026707
      px      :     1.115034
      py      :     0.986519
      dz2     :    -0.005846  d :     0.028887
      dxz     :     0.017532
      dyz     :     0.010231
      dx2y2   :     0.005142
      dxy     :     0.001828
      f0      :     0.001180  f :     0.004107
      f+1     :     0.001167
      f-1     :     0.000974
      f+2     :     0.000240
      f-2     :     0.000327
      f+3     :     0.000024
      f-3     :     0.000195

  3 H s       :     0.803537  s :     0.803537
      pz      :     0.011063  p :     0.041262
      px      :     0.013849
      py      :     0.016350
      dz2     :     0.000527  d :     0.002701
      dxz     :     0.000437
      dyz     :     0.000323
      dx2y2   :     0.000888
      dxy     :     0.000525

  4 H s       :     0.750959  s :     0.750959
      pz      :     0.013746  p :     0.039666
      px      :     0.017921
      py      :     0.008000
      dz2     :     0.000392  d :     0.002187
      dxz     :     0.000561
      dyz     :     0.000118
      dx2y2   :     0.000544
      dxy     :     0.000572

  5 H s       :     0.758959  s :     0.758959
      pz      :     0.006154  p :     0.029093
      px      :     0.008423
      py      :     0.014516
      dz2     :     0.000387  d :     0.002013
      dxz     :     0.000484
      dyz     :     0.000312
      dx2y2   :     0.000437
      dxy     :     0.000392

  6 H s       :     0.650884  s :     0.650884
      pz      :     0.007810  p :     0.036251
      px      :     0.010394
      py      :     0.018048
      dz2     :     0.000676  d :     0.002245
      dxz     :     0.000347
      dyz     :     0.000417
      dx2y2   :     0.000399
      dxy     :     0.000406


SPIN
  0 O s       :     0.004378  s :     0.004378
      pz      :     0.281284  p :     0.929936
      px      :     0.446300
      py      :     0.202353
      dz2     :    -0.000734  d :    -0.004319
      dxz     :    -0.000037
      dyz     :    -0.000353
      dx2y2   :    -0.001540
      dxy     :    -0.001654
      f0      :     0.000007  f :    -0.000178
      f+1     :     0.000023
      f-1     :    -0.000017
      f+2     :    -0.000035
      f-2     :     0.000001
      f+3     :    -0.000106
      f-3     :    -0.000051

  1 C s       :     0.020454  s :     0.020454
      pz      :    -0.021350  p :    -0.081894
      px      :    -0.007731
      py      :    -0.052813
      dz2     :     0.005566  d :     0.065382
      dxz     :     0.009186
      dyz     :     0.019220
      dx2y2   :     0.006235
      dxy     :     0.025175
      f0      :     0.000171  f :     0.002895
      f+1     :     0.000204
      f-1     :     0.001125
      f+2     :    -0.000008
      f-2     :     0.000501
      f+3     :     0.000162
      f-3     :     0.000740

  2 C s       :    -0.021977  s :    -0.021977
      pz      :     0.047249  p :     0.920481
      px      :     0.168605
      py      :     0.704626
      dz2     :    -0.000774  d :    -0.010370
      dxz     :    -0.003979
      dyz     :    -0.002147
      dx2y2   :    -0.001046
      dxy     :    -0.002425
      f0      :    -0.000220  f :    -0.001005
      f+1     :    -0.000075
      f-1     :    -0.000090
      f+2     :    -0.000133
      f-2     :    -0.000193
      f+3     :    -0.000033
      f-3     :    -0.000261

  3 H s       :     0.104469  s :     0.104469
      pz      :     0.001870  p :     0.009797
      px      :     0.001933
      py      :     0.005994
      dz2     :     0.000040  d :     0.000154
      dxz     :     0.000013
      dyz     :     0.000017
      dx2y2   :     0.000048
      dxy     :     0.000037

  4 H s       :     0.026835  s :     0.026835
      pz      :    -0.001802  p :     0.001181
      px      :     0.002664
      py      :     0.000320
      dz2     :    -0.000006  d :    -0.000028
      dxz     :    -0.000004
      dyz     :    -0.000001
      dx2y2   :    -0.000019
      dxy     :     0.000002

  5 H s       :    -0.013914  s :    -0.013914
      pz      :     0.000889  p :     0.020042
      px      :     0.004854
      py      :     0.014299
      dz2     :     0.000083  d :     0.000816
      dxz     :     0.000051
      dyz     :     0.000182
      dx2y2   :     0.000317
      dxy     :     0.000183

  6 H s       :     0.003013  s :     0.003013
      pz      :    -0.000328  p :     0.022773
      px      :     0.004054
      py      :     0.019046
      dz2     :     0.000139  d :     0.001076
      dxz     :     0.000084
      dyz     :     0.000348
      dx2y2   :     0.000279
      dxy     :     0.000226



                     *******************************
                     * LOEWDIN POPULATION ANALYSIS *
                     *******************************

-------------------------------------------
LOEWDIN ATOMIC CHARGES AND SPIN POPULATIONS
-------------------------------------------
   0 O :    0.053171    0.867525
   1 C :   -0.259597    0.195959
   2 C :    0.235646    0.683231
   3 H :    0.039105    0.084897
   4 H :    0.046391    0.010222
   5 H :    0.003506    0.065209
   6 H :   -0.118222    0.092958

----------------------------------------------------
LOEWDIN REDUCED ORBITAL CHARGES AND SPIN POPULATIONS
----------------------------------------------------
CHARGE
  0 O s       :     3.481731  s :     3.481731
      pz      :     1.498225  p :     4.198942
      px      :     1.335660
      py      :     1.365057
      dz2     :     0.041568  d :     0.262171
      dxz     :     0.012966
      dyz     :     0.067153
      dx2y2   :     0.067963
      dxy     :     0.072520
      f0      :     0.000342  f :     0.003986
      f+1     :     0.000122
      f-1     :     0.000780
      f+2     :     0.000492
      f-2     :     0.000452
      f+3     :     0.000803
      f-3     :     0.000994

  1 C s       :     2.664573  s :     2.664573
      pz      :     0.900882  p :     2.601900
      px      :     0.903207
      py      :     0.797811
      dz2     :     0.209642  d :     0.911326
      dxz     :     0.146914
      dyz     :     0.231311
      dx2y2   :     0.138308
      dxy     :     0.185151
      f0      :     0.012035  f :     0.081798
      f+1     :     0.007324
      f-1     :     0.016034
      f+2     :     0.011749
      f-2     :     0.008181
      f+3     :     0.014155
      f-3     :     0.012319

  2 C s       :     2.734874  s :     2.734874
      pz      :     0.931374  p :     2.601902
      px      :     0.919810
      py      :     0.750718
      dz2     :     0.103747  d :     0.405264
      dxz     :     0.183526
      dyz     :     0.083774
      dx2y2   :     0.013120
      dxy     :     0.021097
      f0      :     0.004864  f :     0.022313
      f+1     :     0.007113
      f-1     :     0.005343
      f+2     :     0.001658
      f-2     :     0.002159
      f+3     :     0.000447
      f-3     :     0.000730

  3 H s       :     0.665194  s :     0.665194
      pz      :     0.079855  p :     0.266237
      px      :     0.102307
      py      :     0.084075
      dz2     :     0.005125  d :     0.029464
      dxz     :     0.005474
      dyz     :     0.003857
      dx2y2   :     0.007661
      dxy     :     0.007348

  4 H s       :     0.690622  s :     0.690622
      pz      :     0.071635  p :     0.238355
      px      :     0.113697
      py      :     0.053024
      dz2     :     0.003931  d :     0.024632
      dxz     :     0.006457
      dyz     :     0.001449
      dx2y2   :     0.006454
      dxy     :     0.006340

  5 H s       :     0.714679  s :     0.714679
      pz      :     0.071700  p :     0.258128
      px      :     0.106121
      py      :     0.080308
      dz2     :     0.004657  d :     0.023686
      dxz     :     0.006456
      dyz     :     0.003422
      dx2y2   :     0.004568
      dxy     :     0.004585

  6 H s       :     0.742275  s :     0.742275
      pz      :     0.101680  p :     0.337417
      px      :     0.133105
      py      :     0.102632
      dz2     :     0.009614  d :     0.038530
      dxz     :     0.009839
      dyz     :     0.006367
      dx2y2   :     0.006442
      dxy     :     0.006268


SPIN
  0 O s       :     0.015157  s :     0.015157
      pz      :     0.260832  p :     0.837664
      px      :     0.402372
      py      :     0.174459
      dz2     :     0.003642  d :     0.014711
      dxz     :     0.002715
      dyz     :     0.000679
      dx2y2   :     0.003894
      dxy     :     0.003782
      f0      :    -0.000010  f :    -0.000007
      f+1     :     0.000003
      f-1     :     0.000027
      f+2     :    -0.000051
      f-2     :     0.000057
      f+3     :    -0.000102
      f-3     :     0.000070

  1 C s       :    -0.003951  s :    -0.003951
      pz      :    -0.013428  p :    -0.019142
      px      :     0.003314
      py      :    -0.009029
      dz2     :     0.016848  d :     0.195689
      dxz     :     0.030233
      dyz     :     0.073224
      dx2y2   :     0.025636
      dxy     :     0.049747
      f0      :     0.001854  f :     0.023364
      f+1     :     0.001220
      f-1     :     0.007737
      f+2     :     0.000259
      f-2     :     0.005002
      f+3     :     0.001269
      f-3     :     0.006022

  2 C s       :     0.016177  s :     0.016177
      pz      :     0.025278  p :     0.669612
      px      :     0.131291
      py      :     0.513044
      dz2     :    -0.001619  d :    -0.002017
      dxz     :     0.002129
      dyz     :    -0.001408
      dx2y2   :     0.000492
      dxy     :    -0.001610
      f0      :    -0.000406  f :    -0.000541
      f+1     :     0.000029
      f-1     :     0.000131
      f+2     :    -0.000184
      f-2     :    -0.000281
      f+3     :     0.000351
      f-3     :    -0.000182

  3 H s       :     0.072328  s :     0.072328
      pz      :     0.006691  p :     0.012853
      px      :     0.000855
      py      :     0.005307
      dz2     :    -0.000063  d :    -0.000284
      dxz     :    -0.000139
      dyz     :    -0.000041
      dx2y2   :     0.000042
      dxy     :    -0.000083

  4 H s       :     0.009371  s :     0.009371
      pz      :    -0.001086  p :     0.001116
      px      :     0.000629
      py      :     0.001573
      dz2     :    -0.000000  d :    -0.000265
      dxz     :    -0.000021
      dyz     :    -0.000033
      dx2y2   :    -0.000072
      dxy     :    -0.000139

  5 H s       :    -0.012531  s :    -0.012531
      pz      :     0.003268  p :     0.070045
      px      :     0.013360
      py      :     0.053417
      dz2     :     0.000288  d :     0.007695
      dxz     :     0.000963
      dyz     :     0.001839
      dx2y2   :     0.002874
      dxy     :     0.001731

  6 H s       :    -0.010513  s :    -0.010513
      pz      :     0.003941  p :     0.090193
      px      :     0.017673
      py      :     0.068579
      dz2     :     0.000665  d :     0.013278
      dxz     :     0.001185
      dyz     :     0.004647
      dx2y2   :     0.003846
      dxy     :     0.002934



                      *****************************
                      * MAYER POPULATION ANALYSIS *
                      *****************************

  NA   - Mulliken gross atomic population
  ZA   - Total nuclear charge
  QA   - Mulliken gross atomic charge
  VA   - Mayer's total valence
  BVA  - Mayer's bonded valence
  FA   - Mayer's free valence

  ATOM       NA         ZA         QA         VA         BVA        FA
  0 O      8.3257     8.0000    -0.3257     1.8336     1.0552     0.7784
  1 C      5.8936     6.0000     0.1064     3.4903     3.4759     0.0144
  2 C      6.6609     6.0000    -0.6609     3.4984     2.7283     0.7701
  3 H      0.8475     1.0000     0.1525     1.0465     1.0350     0.0115
  4 H      0.7928     1.0000     0.2072     1.0263     1.0259     0.0005
  5 H      0.7901     1.0000     0.2099     0.9525     0.9523     0.0002
  6 H      0.6894     1.0000     0.3106     0.9188     0.9192    -0.0003

  Mayer bond orders larger than 0.100000
B(  0-O ,  1-C ) :   0.8666 B(  1-C ,  2-C ) :   0.7282 B(  1-C ,  3-H ) :   0.9514 
B(  1-C ,  4-H ) :   0.9909 B(  2-C ,  5-H ) :   0.9872 B(  2-C ,  6-H ) :   0.9269 


-------
TIMINGS
-------

Total SCF time: 0 days 0 hours 0 min 7 sec 

Total time                  ....       7.060 sec
Sum of individual times     ....       7.037 sec  ( 99.7%)

SCF preparation             ....       1.579 sec  ( 22.4%)
Fock matrix formation       ....       4.258 sec  ( 60.3%)
  Startup                   ....       0.084 sec  (  2.0% of F)
  Split-RI-J                ....       0.447 sec  ( 10.5% of F)
  Chain of spheres X        ....       2.383 sec  ( 56.0% of F)
  XC integration            ....       1.050 sec  ( 24.7% of F)
    XC Preparation          ....       0.000 sec  (  0.0% of XC)
    Basis function eval.    ....       0.046 sec  (  4.4% of XC)
    Density eval.           ....       0.200 sec  ( 19.1% of XC)
    XC-Functional eval.     ....       0.015 sec  (  1.4% of XC)
    XC-Potential eval.      ....       0.289 sec  ( 27.5% of XC)
Diagonalization             ....       0.000 sec  (  0.0%)
Density matrix formation    ....       0.145 sec  (  2.1%)
Total Energy calculation    ....       0.149 sec  (  2.1%)
Population analysis         ....       0.037 sec  (  0.5%)
Orbital Transformation      ....       0.073 sec  (  1.0%)
Orbital Orthonormalization  ....       0.000 sec  (  0.0%)
DIIS solution               ....       0.445 sec  (  6.3%)
[...]
[1741608460.348414] [ohm:3228116:0]        ib_iface.c:1059 UCX  ERROR ibv_create_cq(cqe=256) failed: Connection timed out
[1741608460.349322] [ohm:3228068:0]        ib_iface.c:1059 UCX  ERROR ibv_create_cq(cqe=256) failed: Connection timed out
[1741608460.350462] [ohm:3228006:0]        ib_iface.c:1059 UCX  ERROR ibv_create_cq(cqe=256) failed: Connection timed out
[1741608460.350461] [ohm:3228051:0]        ib_iface.c:1059 UCX  ERROR ibv_create_cq(cqe=256) failed: Connection timed out
[1741608460.351420] [ohm:3228035:0]        ib_iface.c:1059 UCX  ERROR ibv_create_cq(cqe=256) failed: Connection timed out
[1741608460.352087] [ohm:3228097:0]        ib_iface.c:1059 UCX  ERROR ibv_create_cq(cqe=256) failed: Connection timed out
[1741608460.355771] [ohm:3228141:0]        ib_iface.c:1059 UCX  ERROR ibv_create_cq(cqe=256) failed: Connection timed out
[1741608460.355880] [ohm:3228053:0]        ib_iface.c:1059 UCX  ERROR ibv_create_cq(cqe=256) failed: Connection timed out
[1741608460.355930] [ohm:3228066:0]        ib_iface.c:1059 UCX  ERROR ibv_create_cq(cqe=256) failed: Connection timed out
[1741608460.356187] [ohm:3228046:0]        ib_iface.c:1059 UCX  ERROR ibv_create_cq(cqe=256) failed: Connection timed out


           ************************************************************
           *        Program running with 64 parallel MPI-processes    *
           *              working on a common directory               *
           ************************************************************

------------------------------------------------------------------------------
                              ORCA PROPERTY CALCULATIONS
------------------------------------------------------------------------------

GBWName                                 ... orca.gbw
Number of atoms                         ...      7
Number of basis functions               ...    182
Max core memory                         ...   1024 MB

Electric properties:
Dipole moment                           ... YES
Quadrupole moment                       ...  NO
Static polarizability (Dipole/Dipole)   ...  NO
Static polarizability (Dipole/Quad.)    ...  NO
Static polarizability (Quad./Quad.)     ...  NO
Static polarizability (Velocity)        ...  NO

Atomic electric properties:
Dipole moment                           ...  NO
Quadrupole moment                       ...  NO
Static polarizability                   ...  NO

Choice of electric origin               ... Center of mass
Position of electric origin             ...     0.767933     0.122523     0.138041

General magnetic properties:
Magnetizability                         ...  NO

EPR properties:
g-Tensor (aka g-matrix)                 ...  NO
Zero-Field splitting spin-orbit         ...  NO
Zero-field splitting spin-spin          ...  NO
Hyperfine couplings                     ...  NO (   0 nuclei)
Quadrupole couplings                    ...  NO (   0 nuclei)
Contact density                         ...  NO (   0 nuclei)

NMR properties:
Chemical shifts                         ...  NO (   0 nuclei)
Spin-rotation constants                 ...  NO (   0 nuclei)
Spin-spin couplings                     ...  NO (   0 nuclei,    0 pairs)

Choice of magnetic origin               ... GIAO
Position of magnetic origin             ...     0.000000     0.000000     0.000000

Properties with geometric perturbations:
SCF Hessian                             ...  NO
IR spectrum                             ...  NO
VCD spectrum                            ...  NO
X-ray spectroscopy properties:
SCF XES/XAS/RIXS spectra                ...  NO


-------------
DIPOLE MOMENT
-------------

Method             : SCF
Type of density    : Electron Density
Multiplicity       :   3
Irrep              :   0
Energy             :  -153.7694496526030150 Eh
Relativity type    : 
Basis              : AO
                                X                 Y                 Z
Electronic contribution:     -0.754706741       2.104415931       1.777779054
Nuclear contribution   :      0.894976165      -2.799255351      -1.986957087
                        -----------------------------------------
Total Dipole Moment    :      0.140269424      -0.694839421      -0.209178033
                        -----------------------------------------
Magnitude (a.u.)       :      0.739075626
Magnitude (Debye)      :      1.878580948



--------------------
Rotational spectrum 
--------------------
 
Rotational constants in cm-1:             1.413069             0.348116             0.302810 
Rotational constants in MHz :         42362.736866         10436.246596          9078.018779 

Dipole components along the rotational axes: 
x,y,z [a.u.] :    -0.590201    -0.423019     0.137663 
x,y,z [Debye]:    -1.500171    -1.075228     0.349911 

 

-------------
DIPOLE MOMENT
-------------

Method             : TDA/CIS
Type of density    : Electron Density
Level              : Relaxed density
State              :   1
Multiplicity       :   3
Irrep              :   0
Energy             :     0.0000000000000000 Eh
Relativity type    : 
Basis              : AO
                                X                 Y                 Z
Electronic contribution:     -0.511980547       1.623857738       1.147022090
Nuclear contribution   :      0.894976165      -2.799255351      -1.986957087
                        -----------------------------------------
Total Dipole Moment    :      0.382995618      -1.175397613      -0.839934997
                        -----------------------------------------
Magnitude (a.u.)       :      1.494568831
Magnitude (Debye)      :      3.798892066



--------------------
Rotational spectrum 
--------------------
 
Rotational constants in cm-1:             1.413069             0.348116             0.302810 
Rotational constants in MHz :         42362.736866         10436.246596          9078.018779 

Dipole components along the rotational axes: 
x,y,z [a.u.] :    -1.415177    -0.475300     0.071421 
x,y,z [Debye]:    -3.597093    -1.208117     0.181537 

 

Dipole moment calculation done in   0.0 sec 

Maximum memory used throughout the entire PROP-calculation: 7.4 MB
[1741608461.977573] [ohm:3228358:0]        ib_iface.c:1059 UCX  ERROR ibv_create_cq(cqe=256) failed: Connection timed out
[1741608461.978698] [ohm:3228346:0]        ib_iface.c:1059 UCX  ERROR ibv_create_cq(cqe=256) failed: Connection timed out
[1741608461.992029] [ohm:3228342:0]        ib_iface.c:1059 UCX  ERROR ibv_create_cq(cqe=256) failed: Connection timed out
[1741608462.007189] [ohm:3228351:0]        ib_iface.c:1059 UCX  ERROR ibv_create_cq(cqe=256) failed: Connection timed out
[1741608462.015794] [ohm:3228343:0]        ib_iface.c:1059 UCX  ERROR ibv_create_cq(cqe=256) failed: Connection timed out
[1741608462.034808] [ohm:3228347:0]        ib_iface.c:1059 UCX  ERROR ibv_create_cq(cqe=256) failed: Connection timed out
[1741608462.035418] [ohm:3228359:0]        ib_iface.c:1059 UCX  ERROR ibv_create_cq(cqe=256) failed: Connection timed out
[1741608462.038657] [ohm:3228352:0]        ib_iface.c:1059 UCX  ERROR ibv_create_cq(cqe=256) failed: Connection timed out
[1741608462.052738] [ohm:3228406:0]        ib_iface.c:1059 UCX  ERROR ibv_create_cq(cqe=256) failed: Connection timed out
[1741608462.063627] [ohm:3228345:0]        ib_iface.c:1059 UCX  ERROR ibv_create_cq(cqe=256) failed: Connection timed out
[1741608462.063921] [ohm:3228449:0]        ib_iface.c:1059 UCX  ERROR ibv_create_cq(cqe=256) failed: Connection timed out
[1741608462.104255] [ohm:3228413:0]        ib_iface.c:1059 UCX  ERROR ibv_create_cq(cqe=256) failed: Connection timed out
[1741608462.110326] [ohm:3228396:0]        ib_iface.c:1059 UCX  ERROR ibv_create_cq(cqe=256) failed: Connection timed out
[1741608462.110363] [ohm:3228348:0]        ib_iface.c:1059 UCX  ERROR ibv_create_cq(cqe=256) failed: Connection timed out
[1741608462.119852] [ohm:3228344:0]        ib_iface.c:1059 UCX  ERROR ibv_create_cq(cqe=256) failed: Connection timed out
[1741608462.128050] [ohm:3228353:0]        ib_iface.c:1059 UCX  ERROR ibv_create_cq(cqe=256) failed: Connection timed out
[1741608462.134022] [ohm:3228411:0]        ib_iface.c:1059 UCX  ERROR ibv_create_cq(cqe=256) failed: Connection timed out
[1741608462.139854] [ohm:3228366:0]        ib_iface.c:1059 UCX  ERROR ibv_create_cq(cqe=256) failed: Connection timed out
[1741608462.151586] [ohm:3228362:0]        ib_iface.c:1059 UCX  ERROR ibv_create_cq(cqe=256) failed: Connection timed out
[1741608462.165210] [ohm:3228466:0]        ib_iface.c:1059 UCX  ERROR ibv_create_cq(cqe=256) failed: Connection timed out
[1741608462.171190] [ohm:3228468:0]        ib_iface.c:1059 UCX  ERROR ibv_create_cq(cqe=256) failed: Connection timed out
[1741608462.171840] [ohm:3228355:0]        ib_iface.c:1059 UCX  ERROR ibv_create_cq(cqe=256) failed: Connection timed out
[1741608462.172213] [ohm:3228374:0]        ib_iface.c:1059 UCX  ERROR ibv_create_cq(cqe=256) failed: Connection timed out
[1741608462.173310] [ohm:3228450:0]        ib_iface.c:1059 UCX  ERROR ibv_create_cq(cqe=256) failed: Connection timed out
[1741608462.189936] [ohm:3228356:0]        ib_iface.c:1059 UCX  ERROR ibv_create_cq(cqe=256) failed: Connection timed out
[1741608462.198627] [ohm:3228432:0]        ib_iface.c:1059 UCX  ERROR ibv_create_cq(cqe=256) failed: Connection timed out
[1741608462.201722] [ohm:3228367:0]        ib_iface.c:1059 UCX  ERROR ibv_create_cq(cqe=256) failed: Connection timed out
[1741608462.209498] [ohm:3228390:0]        ib_iface.c:1059 UCX  ERROR ibv_create_cq(cqe=256) failed: Connection timed out
[1741608462.210418] [ohm:3228428:0]        ib_iface.c:1059 UCX  ERROR ibv_create_cq(cqe=256) failed: Connection timed out
[1741608462.212134] [ohm:3228354:0]        ib_iface.c:1059 UCX  ERROR ibv_create_cq(cqe=256) failed: Connection timed out
[1741608462.216092] [ohm:3228349:0]        ib_iface.c:1059 UCX  ERROR ibv_create_cq(cqe=256) failed: Connection timed out
[1741608462.229705] [ohm:3228369:0]        ib_iface.c:1059 UCX  ERROR ibv_create_cq(cqe=256) failed: Connection timed out
[1741608462.231251] [ohm:3228360:0]        ib_iface.c:1059 UCX  ERROR ibv_create_cq(cqe=256) failed: Connection timed out
[1741608462.244523] [ohm:3228476:0]        ib_iface.c:1059 UCX  ERROR ibv_create_cq(cqe=256) failed: Connection timed out
[1741608462.245889] [ohm:3228364:0]        ib_iface.c:1059 UCX  ERROR ibv_create_cq(cqe=256) failed: Connection timed out
[1741608462.246716] [ohm:3228385:0]        ib_iface.c:1059 UCX  ERROR ibv_create_cq(cqe=256) failed: Connection timed out
[1741608462.251857] [ohm:3228481:0]        ib_iface.c:1059 UCX  ERROR ibv_create_cq(cqe=256) failed: Connection timed out
[1741608462.254283] [ohm:3228461:0]        ib_iface.c:1059 UCX  ERROR ibv_create_cq(cqe=256) failed: Connection timed out
[1741608462.255112] [ohm:3228350:0]        ib_iface.c:1059 UCX  ERROR ibv_create_cq(cqe=256) failed: Connection timed out
[1741608462.257172] [ohm:3228455:0]        ib_iface.c:1059 UCX  ERROR ibv_create_cq(cqe=256) failed: Connection timed out
[1741608462.262016] [ohm:3228365:0]        ib_iface.c:1059 UCX  ERROR ibv_create_cq(cqe=256) failed: Connection timed out
[1741608462.263860] [ohm:3228419:0]        ib_iface.c:1059 UCX  ERROR ibv_create_cq(cqe=256) failed: Connection timed out
[1741608462.268694] [ohm:3228462:0]        ib_iface.c:1059 UCX  ERROR ibv_create_cq(cqe=256) failed: Connection timed out
[1741608462.271146] [ohm:3228443:0]        ib_iface.c:1059 UCX  ERROR ibv_create_cq(cqe=256) failed: Connection timed out
[1741608462.276545] [ohm:3228388:0]        ib_iface.c:1059 UCX  ERROR ibv_create_cq(cqe=256) failed: Connection timed out
[1741608462.279399] [ohm:3228471:0]        ib_iface.c:1059 UCX  ERROR ibv_create_cq(cqe=256) failed: Connection timed out
[1741608462.290037] [ohm:3228382:0]        ib_iface.c:1059 UCX  ERROR ibv_create_cq(cqe=256) failed: Connection timed out
[1741608462.294817] [ohm:3228445:0]        ib_iface.c:1059 UCX  ERROR ibv_create_cq(cqe=256) failed: Connection timed out
[1741608462.297131] [ohm:3228361:0]        ib_iface.c:1059 UCX  ERROR ibv_create_cq(cqe=256) failed: Connection timed out
[1741608462.297345] [ohm:3228377:0]        ib_iface.c:1059 UCX  ERROR ibv_create_cq(cqe=256) failed: Connection timed out
[1741608462.299151] [ohm:3228422:0]        ib_iface.c:1059 UCX  ERROR ibv_create_cq(cqe=256) failed: Connection timed out
[1741608462.299451] [ohm:3228459:0]        ib_iface.c:1059 UCX  ERROR ibv_create_cq(cqe=256) failed: Connection timed out
[1741608462.305916] [ohm:3228435:0]        ib_iface.c:1059 UCX  ERROR ibv_create_cq(cqe=256) failed: Connection timed out
[1741608462.306607] [ohm:3228417:0]        ib_iface.c:1059 UCX  ERROR ibv_create_cq(cqe=256) failed: Connection timed out
[1741608462.307520] [ohm:3228438:0]        ib_iface.c:1059 UCX  ERROR ibv_create_cq(cqe=256) failed: Connection timed out
[1741608462.308587] [ohm:3228368:0]        ib_iface.c:1059 UCX  ERROR ibv_create_cq(cqe=256) failed: Connection timed out
[1741608462.313396] [ohm:3228454:0]        ib_iface.c:1059 UCX  ERROR ibv_create_cq(cqe=256) failed: Connection timed out
[1741608462.314004] [ohm:3228401:0]        ib_iface.c:1059 UCX  ERROR ibv_create_cq(cqe=256) failed: Connection timed out
[1741608462.314528] [ohm:3228372:0]        ib_iface.c:1059 UCX  ERROR ibv_create_cq(cqe=256) failed: Connection timed out
[1741608462.314621] [ohm:3228475:0]        ib_iface.c:1059 UCX  ERROR ibv_create_cq(cqe=256) failed: Connection timed out
[1741608462.315135] [ohm:3228357:0]        ib_iface.c:1059 UCX  ERROR ibv_create_cq(cqe=256) failed: Connection timed out
[1741608462.317472] [ohm:3228363:0]        ib_iface.c:1059 UCX  ERROR ibv_create_cq(cqe=256) failed: Connection timed out
[1741608462.318246] [ohm:3228485:0]        ib_iface.c:1059 UCX  ERROR ibv_create_cq(cqe=256) failed: Connection timed out
[1741608462.318655] [ohm:3228425:0]        ib_iface.c:1059 UCX  ERROR ibv_create_cq(cqe=256) failed: Connection timed out

--------------------------------
SUGGESTED CITATIONS FOR THIS RUN
--------------------------------

Below you find a list of papers that are relevant to this ORCA run
We neither can nor want to force you to cite these papers, but we appreciate if you do
You receive ORCA, which is the product of decades of hard work by many enthusiastic individuals, for free
The only thing we kindly ask in return is that you cite our papers,
We deeply appreciate it, if you show your appreciation for ORCA by not just citing the generic ORCA reference.

Please note that relegating all ORCA citations to the supporting information does *not* help us.
SI sections are not indexed - citations you put there will not count into any citation statistics
But we need these citations in order to attract the funding resources that allow us to do what we are doing

Therefore, if you are a happy ORCA user, please consider citing a few of the papers listed below in the main body of your paper

In addition to the list printed below, the program has created the file orca.bibtex that contains the list in bibtex format
You can import this file easily into all common literature databanks and citation aid programs


List of essential papers. We consider these as the minimum necessary citations

  1. Neese,F.
     Software update: the ORCA program system, version 5.0
     WIRES Comput. Molec. Sci., 2022 12(1)e1606
     doi.org/10.1002/wcms.1606

List of papers to cite with high priority. The work reported in these papers was absolutely
necessary for this run to complete.
Our perspective: the developers of density functionals and basis sets usually get cited in chemistry papers
Good! But without the algorithms to do something with them, the functionals or basis sets would not do anything.
Hence, in our opinion, the algorithm design and method developments papers are equally worthy of getting cited

  1. Neese,F.; Olbrich,G.
     Efficient use of the resolution of the identity approximation in time-dependent density functional calculations with hybrid density functionals
     Chem. Phys. Lett., 2002 362 170-178
     doi.org/10.1016/s0009-2614(02)01053-9
  2. Neese,F.
     An improvement of the resolution of the identity approximation for the formation of the Coulomb matrix
     J. Comp. Chem., 2003 24(14)1740-1747
     doi.org/10.1002/jcc.10318
  3. Neese,F.; Wennmohs,F.; Hansen,A.; Becker,U.
     Efficient, approximate and parallel Hartree-Fock and hybrid DFT calculations. A 'chain-of-spheres' algorithm for the Hartree-Fock exchange
     Chem. Phys., 2009 356(1-3)98-109
     doi.org/10.1016/j.chemphys.2008.10.036
  4. Petrenko,T.; Kossmann,S.; Neese,F.
     Efficient time-dependent density functional theory approximations for hybrid density functionals: Analytical gradients and parallelization
     J. Chem. Phys., 2011 134 054116
     doi.org/10.1063/1.3533441
  5. Helmich-Paris,B.; de Souza,B.; Neese,F.; Izsák,R.
     An improved chain of spheres for exchange algorithm
     J. Chem. Phys., 2021 155 104109
     doi.org/doi: 10.1063/5.0058766.
  6. Neese,F.
     The SHARK Integral Generation and Digestion System
     J. Comp. Chem., 2022  1-16
     doi.org/10.1002/jcc.26942
  7. Lehtola,S.; Steigemann,C.; Oliveira,M.; Marques,M.
     Recent developments in Libxc - A comprehensive library of functionals for density functional theory
     Software X, 2018 7 
     doi.org/10.1016/j.softx.2017.11.002
  8. Grimme,S.; Antony,J.; Ehrlich,S.; Krieg,H.
     A consistent and accurate ab initio parametrization of density functional dispersion correction (DFT-D) for the 94 elements H-Pu
     J. Chem. Phys., 2010 132 154104-XXXX
     doi.org/10.1063/1.3382344
  9. Grimme,S.; Ehrlich,S.; Goerigk,L.
     Effect of the damping function in dispersion corrected density functional theory
     J. Comput. Chem., 2011 32(7)1456-1465
     doi.org/10.1002/jcc.21759

List of suggested additional citations. These are papers that are important in the 'surrounding' of 
of this run, or papers that preceded the highly important papers. If you like your results we are grateful for a citation.

  1. Izsak,R.; Neese,F.
     An overlap fitted chain of spheres exchange method
     J. Chem. Phys., 2011 135 144105
     doi.org/10.1063/1.3646921
  2. Izsak,R.; Hansen,A.; Neese,F.
     The resolution of identity and chain of spheres approximations for the LPNO-CCSD singles Fock term
     Molec. Phys., 2012 110 2413-2417
     doi.org/10.1080/00268976.2012.687466
  3. Neese,F.
     The ORCA program system
     WIRES Comput. Molec. Sci., 2012 2(1)73-78
     doi.org/10.1002/wcms.81
  4. Izsak,R.; Neese,F.; Klopper,W.
     Robust fitting techniques in the chain of spheres approximation to the Fock exchange: The role of the complementary space
     J. Chem. Phys., 2013 139 
     doi.org/10.1063/1.4819264
  5. Neese,F.
     Software update: the ORCA program system, version 4.0
     WIRES Comput. Molec. Sci., 2018 8(1)1-6
     doi.org/10.1002/wcms.1327
  6. Neese,F.; Wennmohs,F.; Becker,U.; Riplinger,C.
     The ORCA quantum chemistry program package
     J. Chem. Phys., 2020 152 Art. No. L224108
     doi.org/10.1063/5.0004608

List of optional additional citations

  1. Neese,F.
     Approximate second-order SCF convergence for spin unrestricted wavefunctions
     Chem. Phys. Lett., 2000 325(1-3)93-98
     doi.org/10.1016/s0009-2614(00)00662-x

Timings for individual modules:

Sum of individual times          ...       24.366 sec (=   0.406 min)
Startup calculation              ...        2.377 sec (=   0.040 min)   9.8 %
SCF iterations                   ...        9.644 sec (=   0.161 min)  39.6 %
Property integrals               ...        2.145 sec (=   0.036 min)   8.8 %
Property calculations            ...        2.110 sec (=   0.035 min)   8.7 %
CIS module                       ...        8.090 sec (=   0.135 min)  33.2 %
                             ****ORCA TERMINATED NORMALLY****
TOTAL RUN TIME: 0 days 0 hours 0 minutes 26 seconds 403 msec
