7
Properties=species:S:1:pos:R:3:momenta:R:3:forces:R:3 Coordinates=T from=T ORCA-job=T orca=T E=T -153.889589183604=T energy=-4180.373705402512 free_energy=-4180.373705402512 stress="-6.236836822816232e-06 -5.478589991998051e-07 -5.873310995535646e-07 -5.478589991998051e-07 -1.5963739628134972e-05 -3.269981248491844e-07 -5.873310995535646e-07 -3.269981248491844e-07 -2.346467829590752e-06" pbc="F F F"
O        0.01052629       0.79389862       0.00039332       0.28394061       0.75556623       0.11867924       0.13535114       2.63181476      -0.01385809
C        0.72487673      -0.44245325      -0.00180894      -0.07912492      -0.76341164      -0.00823837       0.39225874      -2.00132700       0.25821382
C       -0.72889499      -0.45130557      -0.00073130       0.00477143      -0.46717791      -0.07159859      -0.89334515      -2.31440091       0.14350788
H        1.24396678      -0.64606607       0.93654582      -0.10373320       0.08547971       0.10120655       0.12067575       0.39819151       0.06355907
H        1.26259129      -0.64461486      -0.92209685       0.01229765       0.11735173      -0.09961899       0.14602053       0.38500268      -0.24746292
H       -1.26822872      -0.64469804      -0.92637326      -0.03905147       0.12828326      -0.07933174      -0.02004876       0.43227843      -0.17960977
H       -1.27349976      -0.64918613       0.93123815      -0.07910009       0.14390863       0.03890191       0.11908776       0.46844052      -0.02434999
