
                                 *****************
                                 * O   R   C   A *
                                 *****************

                                            #,                                       
                                            ###                                      
                                            ####                                     
                                            #####                                    
                                            ######                                   
                                           ########,                                 
                                     ,,################,,,,,                         
                               ,,#################################,,                 
                          ,,##########################################,,             
                       ,#########################################, ''#####,          
                    ,#############################################,,   '####,        
                  ,##################################################,,,,####,       
                ,###########''''           ''''###############################       
              ,#####''   ,,,,##########,,,,          '''####'''          '####       
            ,##' ,,,,###########################,,,                        '##       
           ' ,,###''''                  '''############,,,                           
         ,,##''                                '''############,,,,        ,,,,,,###''
      ,#''                                            '''#######################'''  
     '                                                          ''''####''''         
             ,#######,   #######,   ,#######,      ##                                
            ,#'     '#,  ##    ##  ,#'     '#,    #''#        ,####,   ,####,        
            ##       ##  ##   ,#'  ##            #'  '#       #'       #'  '#        
            ##       ##  #######   ##           ,######,      #####,   #    #        
            '#,     ,#'  ##    ##  '#,     ,#' ,#      #,     #,   #   #,  ,#        
             '#######'   ##     ##  '#######'  #'      '#     '####' # '####'        



                #########################################################
                #                        -***-                          #
                #          Department of theory and spectroscopy        #
                #                                                       #
                #                      Frank Neese                      #
                #                                                       #
                #     Directorship, Architecture, Infrastructure        #
                #                    SHARK, DRIVERS                     #
                #        Core code/Algorithms in most modules           #
                #                                                       #
                #        Max Planck Institute fuer Kohlenforschung      #
                #                Kaiser Wilhelm Platz 1                 #
                #                 D-45470 Muelheim/Ruhr                 #
                #                      Germany                          #
                #                                                       #
                #                  All rights reserved                  #
                #                        -***-                          #
                #########################################################


                         Program Version 6.0.0  -   RELEASE  -


 With contributions from (in alphabetic order):
   Daniel Aravena         : Magnetic Suceptibility
   Michael Atanasov       : Ab Initio Ligand Field Theory (pilot matlab implementation)
   Alexander A. Auer      : GIAO ZORA, VPT2 properties, NMR spectrum
   Ute Becker             : All parallelization in ORCA, NUMFREQ, NUMCALC
   Giovanni Bistoni       : ED, misc. LED, open-shell LED, HFLD
   Martin Brehm           : Molecular dynamics
   Dmytro Bykov           : pre 5.0 version of the SCF Hessian
   Marcos Casanova-Páez   : Triplet and SCS-CIS(D). UHF-(DLPNO)-IP/EA/STEOM-CCSD. UHF-CVS-IP/STEOM-CCSD
   Vijay G. Chilkuri      : MRCI spin determinant printing, contributions to CSF-ICE
   Pauline Colinet        : FMM embedding
   Dipayan Datta          : RHF DLPNO-CCSD density
   Achintya Kumar Dutta   : EOM-CC, STEOM-CC
   Nicolas Foglia         : Exact transition moments, OPA infrastructure, MCD improvements
   Dmitry Ganyushin       : Spin-Orbit,Spin-Spin,Magnetic field MRCI
   Miquel Garcia          : C-PCM and meta-GGA Hessian, CCSD/C-PCM, Gaussian charge scheme
   Tiago L. C. Gouveia    : GS-ROHF, GS-ROCIS
   Yang Guo               : DLPNO-NEVPT2, F12-NEVPT2, CIM, IAO-localization
   Andreas Hansen         : Spin unrestricted coupled pair/coupled cluster methods
   Ingolf Harden          : AUTO-CI MPn and infrastructure 
   Benjamin Helmich-Paris : MC-RPA, TRAH-(SCF,CASSCF), AVAS, COSX integrals, SCF dyn. polar.
   Lee Huntington         : MR-EOM, pCC
   Robert Izsak           : Overlap fitted RIJCOSX, COSX-SCS-MP3, EOM
   Riya Kayal             : Wick's Theorem for AUTO-CI, AUTO-CI UHF-CCSDT
   Emily Kempfer          : AUTO-CI, RHF CISDT and CCSDT
   Christian Kollmar      : KDIIS, OOCD, Brueckner-CCSD(T), CCSD density, CASPT2, CASPT2-K, improved NEVPT2
   Axel Koslowski         : Symmetry handling
   Simone Kossmann        : Meta GGA functionals, TD-DFT gradient, OOMP2, (MP2 Hessian; deprecated post 5.0)
   Lucas Lang             : DCDCAS
   Marvin Lechner         : AUTO-CI (C++ implementation), FIC-MRCC
   Spencer Leger          : CASSCF response
   Dagmar Lenk            : GEPOL surface, SMD, ORCA-2-JSON
   Dimitrios Liakos       : Extrapolation schemes; Compound Job, initial MDCI parallelization
   Dimitrios Manganas     : Further ROCIS development; embedding schemes. LFT, Crystal Embedding
   Dimitrios Pantazis     : SARC Basis sets
   Anastasios Papadopoulos: AUTO-CI, single reference methods and gradients
   Taras Petrenko         : pre 6.0 DFT Hessian and TD-DFT gradient, (ASA, deprecated), ECA, 1-Electron XAS/XES, NRVS
   Peter Pinski           : DLPNO-MP2, DLPNO-MP2 Gradient
   Christoph Reimann      : Effective Core Potentials
   Marius Retegan         : Local ZFS, SOC
   Christoph Riplinger    : Optimizer, TS searches, QM/MM, DLPNO-CCSD(T), (RO)-DLPNO pert. Triples
   Michael Roemelt        : Original ROCIS implementation
   Masaaki Saitow         : Open-shell DLPNO-CCSD energy and density
   Barbara Sandhoefer     : DKH picture change effects
   Kantharuban Sivalingam : CASSCF convergence/infrastructure, NEVPT2 and variants, FIC-MRCI
   Bernardo de Souza      : ESD, SOC TD-DFT
   Georgi Stoychev        : AutoAux, RI-MP2 NMR, DLPNO-MP2 response, X2C
   Van Anh Tran           : RI-MP2 g-tensors
   Willem Van den Heuvel  : Paramagnetic NMR
   Zikuan Wang            : NOTCH, Electric field optimization 
   Frank Wennmohs         : Technical directorship and infrastructure
   Hang Xu                : AUTO-CI-Response properties 


 We gratefully acknowledge several colleagues who have allowed us to
 interface, adapt or use parts of their codes:
   Stefan Grimme, W. Hujo, H. Kruse, P. Pracht,  : VdW corrections, initial TS optimization,
                  C. Bannwarth, S. Ehlert,         DFT functionals, gCP, sTDA/sTD-DF
                  L. Wittmann, M. Mueller
   Ed Valeev, F. Pavosevic, A. Kumar             : LibInt (2-el integral package), F12 methods
   Garnet Chan, S. Sharma, J. Yang, R. Olivares  : DMRG
   Ulf Ekstrom                                   : XCFun DFT Library
   Mihaly Kallay                                 : mrcc  (arbitrary order and MRCC methods)
   Frank Weinhold                                : gennbo (NPA and NBO analysis)
   Simon Mueller                                 : openCOSMO-RS
   Christopher J. Cramer and Donald G. Truhlar   : smd solvation model
   Lars Goerigk                                  : TD-DFT with DH, B97 family of functionals
   V. Asgeirsson, H. Jonsson                     : NEB implementation
   FAccTs GmbH                                   : IRC, NEB, NEB-TS, DLPNO-Multilevel, CI-OPT
                                                   MM, QMMM, 2- and 3-layer-ONIOM, Crystal-QMMM,
                                                   LR-CPCM, SF, NACMEs, symmetry and pop. for TD-DFT,
                                                   nearIR, NL-DFT gradient (VV10), updates on ESD,
                                                   ML-optimized integration grids, MBIS, APM,
                                                   GOAT, DOCKER, SOLVATOR, interface openCOSMO-RS
   S Lehtola, MJT Oliveira, MAL Marques          : LibXC Library
   Liviu Ungur et al                             : ANISO software


 Your calculation uses the libint2 library for the computation of 2-el integrals
 For citations please refer to: http://libint.valeyev.net

 Your ORCA version has been built with support for libXC version: 6.2.2
 For citations please refer to: https://libxc.gitlab.io

 This ORCA versions uses:
   CBLAS   interface :  Fast vector & matrix operations
   LAPACKE interface :  Fast linear algebra routines
   SCALAPACK package :  Parallel linear algebra routines
   Shared memory     :  Shared parallel matrices
   BLAS/LAPACK       :  OpenBLAS 0.3.27  USE64BITINT DYNAMIC_ARCH NO_AFFINITY Zen SINGLE_THREADED
        Core in use  :  Zen
   Copyright (c) 2011-2014, The OpenBLAS Project


Your calculation utilizes the atom-pairwise dispersion correction
with the Becke-Johnson damping scheme (D3BJ)


Warning: RI is on but no J-basis has been assigned. Assigning Def2/J (nothing to worry about!)
================================================================================

----- Orbital basis set information -----
Your calculation utilizes the basis: def2-TZVPPD
   F. Weigend and R. Ahlrichs, Phys. Chem. Chem. Phys. 7, 3297 (2005).
   D. Rappoport and F. Furche, J. Chem. Phys. 133, 134105 (2010)
   D. Rappoport, J. Chem. Phys. 155, 124102 (2021).

----- AuxJ basis set information -----
Your calculation utilizes the auxiliary basis: def2/J
   F. Weigend, Phys. Chem. Chem. Phys. 8, 1057 (2006).

================================================================================
                                        WARNINGS
                       Please study these warnings very carefully!
================================================================================

Using LibXC functional ID 531 : wB97M-V exchange-correlation functional
[ 1]  N. Mardirossian and M. Head-Gordon.,  J. Chem. Phys. 144, 214110 (2016)
Using LibXC functional ID 531 : wB97M-V exchange-correlation functional
[ 1]  N. Mardirossian and M. Head-Gordon.,  J. Chem. Phys. 144, 214110 (2016)

WARNING: B97M-V or wB97M-V functional requested.
  ===> : libXC variant has now been activated.
         Any manually given DFX/HFX/RangeSep scaling parameters are IGNORED!

Your calculation utilizes LibXC
 by S Lehtola, C Steigemann, MJT Oliveira & MAL Marques
Please cite in your paper:
 S Lehtola, C Steigemann, MJT Oliveira & MAL Marques, SoftwareX, 7, (2018), 1.
   


WARNING: your system is open-shell and RHF/RKS was chosen
  ===> : WILL SWITCH to UHF/UKS

INFO   : Checking CIS options ...

WARNING: CIS/ROCIS methods need fully converged wavefunctions
  ===> : Setting SCFConvForced true
         You can overwrite this default with %scf ConvForced false 


================================================================================
                                       INPUT FILE
================================================================================
NAME = orca.inp
|  1> ! Engrad def2-TZVPPD wB97M-D3BJ 
|  2> %pal nprocs 8 end%pal nprocs 64 end 
|  3> %tddft Nroots 2 Iroot 2 
|  4> sf true 
|  5> end 
|  6> *xyz 0 3 
|  7> O   2.87650763 1.33007983 0.06978899
|  8> O   -0.77020784 0.32777298 -2.26850222
|  9> O   1.64043179 -2.75463524 -1.55623223
| 10> O   -3.32785879 -1.12873282 1.17753669
| 11> N   0.65133591 -1.92697906 0.35151922
| 12> N   -2.08208654 0.7259793 1.49438367
| 13> N   2.11953407 -0.61739125 -0.91119059
| 14> N   -2.33030062 -0.12668627 -0.66840757
| 15> C   1.57137791 -0.03428196 1.39061547
| 16> C   -0.84816318 1.69967824 -0.3132995
| 17> C   0.67705162 -1.13020419 1.41288184
| 18> C   -1.15245875 1.70143789 1.01589882
| 19> C   1.6275447 0.91004542 2.46380801
| 20> C   0.13969112 2.64641201 -0.90568248
| 21> C   2.25885773 0.26457596 0.17398968
| 22> C   -1.21667306 0.63191543 -1.17222158
| 23> C   1.48815206 -1.88751661 -0.75334421
| 24> C   -2.54175769 -0.31578052 0.71698089
| 25> H   -0.06746265 -1.37205003 2.18049943
| 26> H   -0.87557229 2.44482529 1.74152661
| 27> H   1.79852776 1.98884358 2.11325065
| 28> H   0.64670394 0.90068204 3.06113267
| 29> H   2.48147476 0.68696584 3.10189598
| 30> H   0.6102913 2.15298854 -1.74952473
| 31> H   -0.32426031 3.62835271 -1.17260103
| 32> H   0.89832673 2.81645546 -0.17071948
| 33> H   0.21379272 -2.87233968 0.35747946
| 34> H   -2.35502079 0.81924835 2.45699801
| 35> H   2.50533996 -0.29966714 -1.75195744
| 36> H   -2.7890605 -0.80859202 -1.24182324
| 37> *
| 38> 
| 39>                          ****END OF INPUT****
================================================================================

                     *******************************
                     * Energy+Gradient Calculation *
                     *******************************

---------------------------------
CARTESIAN COORDINATES (ANGSTROEM)
---------------------------------
  O      2.876508    1.330080    0.069789
  O     -0.770208    0.327773   -2.268502
  O      1.640432   -2.754635   -1.556232
  O     -3.327859   -1.128733    1.177537
  N      0.651336   -1.926979    0.351519
  N     -2.082087    0.725979    1.494384
  N      2.119534   -0.617391   -0.911191
  N     -2.330301   -0.126686   -0.668408
  C      1.571378   -0.034282    1.390615
  C     -0.848163    1.699678   -0.313300
  C      0.677052   -1.130204    1.412882
  C     -1.152459    1.701438    1.015899
  C      1.627545    0.910045    2.463808
  C      0.139691    2.646412   -0.905682
  C      2.258858    0.264576    0.173990
  C     -1.216673    0.631915   -1.172222
  C      1.488152   -1.887517   -0.753344
  C     -2.541758   -0.315781    0.716981
  H     -0.067463   -1.372050    2.180499
  H     -0.875572    2.444825    1.741527
  H      1.798528    1.988844    2.113251
  H      0.646704    0.900682    3.061133
  H      2.481475    0.686966    3.101896
  H      0.610291    2.152989   -1.749525
  H     -0.324260    3.628353   -1.172601
  H      0.898327    2.816455   -0.170719
  H      0.213793   -2.872340    0.357479
  H     -2.355021    0.819248    2.456998
  H      2.505340   -0.299667   -1.751957
  H     -2.789061   -0.808592   -1.241823

----------------------------
CARTESIAN COORDINATES (A.U.)
----------------------------
  NO LB      ZA    FRAG     MASS         X           Y           Z
   0 O     8.0000    0    15.999    5.435812    2.513487    0.131882
   1 O     8.0000    0    15.999   -1.455482    0.619401   -4.286848
   2 O     8.0000    0    15.999    3.099967   -5.205506   -2.940853
   3 O     8.0000    0    15.999   -6.288742   -2.132996    2.225222
   4 N     7.0000    0    14.007    1.230846   -3.641463    0.664275
   5 N     7.0000    0    14.007   -3.934573    1.371902    2.823976
   6 N     7.0000    0    14.007    4.005339   -1.166700   -1.721901
   7 N     7.0000    0    14.007   -4.403630   -0.239402   -1.263107
   8 C     6.0000    0    12.011    2.969474   -0.064784    2.627882
   9 C     6.0000    0    12.011   -1.602796    3.211926   -0.592050
  10 C     6.0000    0    12.011    1.279442   -2.135776    2.669960
  11 C     6.0000    0    12.011   -2.177831    3.215252    1.919771
  12 C     6.0000    0    12.011    3.075614    1.719737    4.655922
  13 C     6.0000    0    12.011    0.263978    5.000994   -1.711492
  14 C     6.0000    0    12.011    4.268622    0.499976    0.328793
  15 C     6.0000    0    12.011   -2.299179    1.194147   -2.215178
  16 C     6.0000    0    12.011    2.812200   -3.566889   -1.423614
  17 C     6.0000    0    12.011   -4.803226   -0.596739    1.354898
  18 H     1.0000    0     1.008   -0.127486   -2.592799    4.120547
  19 H     1.0000    0     1.008   -1.654592    4.620050    3.291008
  20 H     1.0000    0     1.008    3.398725    3.758370    3.993465
  21 H     1.0000    0     1.008    1.222093    1.702042    5.784702
  22 H     1.0000    0     1.008    4.689308    1.298177    5.861734
  23 H     1.0000    0     1.008    1.153283    4.068559   -3.306123
  24 H     1.0000    0     1.008   -0.612763    6.856593   -2.215895
  25 H     1.0000    0     1.008    1.697591    5.322329   -0.322613
  26 H     1.0000    0     1.008    0.404010   -5.427935    0.675538
  27 H     1.0000    0     1.008   -4.450344    1.548155    4.643053
  28 H     1.0000    0     1.008    4.734406   -0.566289   -3.310720
  29 H     1.0000    0     1.008   -5.270561   -1.528017   -2.346706

--------------------------------
INTERNAL COORDINATES (ANGSTROEM)
--------------------------------
 O      0   0   0     0.000000000000     0.00000000     0.00000000
 O      1   0   0     4.446432111644     0.00000000     0.00000000
 O      2   1   0     3.977405234459    65.38269047     0.00000000
 O      2   1   3     4.531905967328    97.78355441    83.65126208
 N      3   2   1     2.302789831292    67.01401713    66.99477442
 N      4   2   1     2.256611963914    62.03417845    42.19093000
 N      3   2   1     2.283293582706    56.79449300   357.23497511
 N      2   1   3     2.280509938824   103.70968145    92.32368032
 C      1   2   3     2.304219883238    72.74862235   293.18191532
 C      8   2   1     2.378747665436    61.67288657    40.51536856
 C      5   3   2     1.327404272382   150.43882589   266.28589005
 C     10   8   2     1.363586104425    90.42773954   197.41249394
 C      9   1   2     1.430612154579    90.96977133   232.55907853
 C     10   8   2     1.490999176486   147.24804902    15.23706662
 C      1   2   3     1.235980452819    55.95540186   324.53258526
 C      2   1   3     1.222155908303    76.80840447   113.20053344
 C      3   2   1     1.191517103243    58.61570398    35.66713845
 C      4   2   1     1.221047921422    30.21811165    43.33460708
 H     11   5   3     1.096370226263   114.47249240   195.78484410
 H     12  10   8     1.075093776296   126.96601849   189.66332845
 H     13   9   1     1.147140418378   113.41377515    26.21407643
 H     13   9   1     1.148448091472   110.56429396   146.51450978
 H     13   9   1     1.089090126593   109.57806598   269.55301373
 H     14  10   8     1.084896766079   107.91666012   331.82291830
 H     14  10   8     1.118348773885   112.17790912    97.17230073
 H     14  10   8     1.069866054708   107.32499854   216.35145527
 H      5   3   2     1.041722741147    81.89307108   115.66118000
 H      6   4   2     1.004897302258    93.48828588   182.99481655
 H      7   3   2     0.978102086131    98.27860911   276.08413344
 H      8   2   1     1.002128539651    92.71083299   212.49005693

---------------------------
INTERNAL COORDINATES (A.U.)
---------------------------
 O      0   0   0     0.000000000000     0.00000000     0.00000000
 O      1   0   0     8.402538964080     0.00000000     0.00000000
 O      2   1   0     7.516206616753    65.38269047     0.00000000
 O      2   1   3     8.564061142933    97.78355441    83.65126208
 N      3   2   1     4.351642125121    67.01401713    66.99477442
 N      4   2   1     4.264378602328    62.03417845    42.19093000
 N      3   2   1     4.314799554654    56.79449300   357.23497511
 N      2   1   3     4.309539230064   103.70968145    92.32368032
 C      1   2   3     4.354344531655    72.74862235   293.18191532
 C      8   2   1     4.495181629378    61.67288657    40.51536856
 C      5   3   2     2.508430543799   150.43882589   266.28589005
 C     10   8   2     2.576804297384    90.42773954   197.41249394
 C      9   1   2     2.703465176013    90.96977133   232.55907853
 C     10   8   2     2.817580109460   147.24804902    15.23706662
 C      1   2   3     2.335664562709    55.95540186   324.53258526
 C      2   1   3     2.309539959647    76.80840447   113.20053344
 C      3   2   1     2.251641009013    58.61570398    35.66713845
 C      4   2   1     2.307446167882    30.21811165    43.33460708
 H     11   5   3     2.071839469023   114.47249240   195.78484410
 H     12  10   8     2.031632805483   126.96601849   189.66332845
 H     13   9   1     2.167781227886   113.41377515    26.21407643
 H     13   9   1     2.170252371907   110.56429396   146.51450978
 H     13   9   1     2.058082074419   109.57806598   269.55301373
 H     14  10   8     2.050157771465   107.91666012   331.82291830
 H     14  10   8     2.113372904849   112.17790912    97.17230073
 H     14  10   8     2.021753843377   107.32499854   216.35145527
 H      5   3   2     1.968570688246    81.89307108   115.66118000
 H      6   4   2     1.898980693983    93.48828588   182.99481655
 H      7   3   2     1.848345073804    98.27860911   276.08413344
 H      8   2   1     1.893748490926    92.71083299   212.49005693

---------------------
BASIS SET INFORMATION
---------------------
There are 4 groups of distinct atoms

 Group   1 Type O   : 12s7p3d1f contracted to 6s4p3d1f pattern {621111/4111/111/1}
 Group   2 Type N   : 12s6p3d1f contracted to 6s3p3d1f pattern {621111/411/111/1}
 Group   3 Type C   : 12s6p3d1f contracted to 6s3p3d1f pattern {621111/411/111/1}
 Group   4 Type H   : 5s3p1d contracted to 3s3p1d pattern {311/111/1}

Atom   0O    basis set group =>   1
Atom   1O    basis set group =>   1
Atom   2O    basis set group =>   1
Atom   3O    basis set group =>   1
Atom   4N    basis set group =>   2
Atom   5N    basis set group =>   2
Atom   6N    basis set group =>   2
Atom   7N    basis set group =>   2
Atom   8C    basis set group =>   3
Atom   9C    basis set group =>   3
Atom  10C    basis set group =>   3
Atom  11C    basis set group =>   3
Atom  12C    basis set group =>   3
Atom  13C    basis set group =>   3
Atom  14C    basis set group =>   3
Atom  15C    basis set group =>   3
Atom  16C    basis set group =>   3
Atom  17C    basis set group =>   3
Atom  18H    basis set group =>   4
Atom  19H    basis set group =>   4
Atom  20H    basis set group =>   4
Atom  21H    basis set group =>   4
Atom  22H    basis set group =>   4
Atom  23H    basis set group =>   4
Atom  24H    basis set group =>   4
Atom  25H    basis set group =>   4
Atom  26H    basis set group =>   4
Atom  27H    basis set group =>   4
Atom  28H    basis set group =>   4
Atom  29H    basis set group =>   4
---------------------------------
AUXILIARY/J BASIS SET INFORMATION
---------------------------------
There are 4 groups of distinct atoms

 Group   1 Type O   : 12s5p4d2f1g contracted to 6s4p3d1f1g pattern {711111/2111/211/2/1}
 Group   2 Type N   : 12s5p4d2f1g contracted to 6s4p3d1f1g pattern {711111/2111/211/2/1}
 Group   3 Type C   : 12s5p4d2f1g contracted to 6s4p3d1f1g pattern {711111/2111/211/2/1}
 Group   4 Type H   : 5s2p1d contracted to 3s1p1d pattern {311/2/1}

Atom   0O    basis set group =>   1
Atom   1O    basis set group =>   1
Atom   2O    basis set group =>   1
Atom   3O    basis set group =>   1
Atom   4N    basis set group =>   2
Atom   5N    basis set group =>   2
Atom   6N    basis set group =>   2
Atom   7N    basis set group =>   2
Atom   8C    basis set group =>   3
Atom   9C    basis set group =>   3
Atom  10C    basis set group =>   3
Atom  11C    basis set group =>   3
Atom  12C    basis set group =>   3
Atom  13C    basis set group =>   3
Atom  14C    basis set group =>   3
Atom  15C    basis set group =>   3
Atom  16C    basis set group =>   3
Atom  17C    basis set group =>   3
Atom  18H    basis set group =>   4
Atom  19H    basis set group =>   4
Atom  20H    basis set group =>   4
Atom  21H    basis set group =>   4
Atom  22H    basis set group =>   4
Atom  23H    basis set group =>   4
Atom  24H    basis set group =>   4
Atom  25H    basis set group =>   4
Atom  26H    basis set group =>   4
Atom  27H    basis set group =>   4
Atom  28H    basis set group =>   4
Atom  29H    basis set group =>   4
[1739914206.939895] [ohm:496815:0]        ib_iface.c:1059 UCX  ERROR ibv_create_cq(cqe=256) failed: Connection timed out
[1739914206.946657] [ohm:496818:0]        ib_iface.c:1059 UCX  ERROR ibv_create_cq(cqe=256) failed: Connection timed out
[1739914206.947919] [ohm:496819:0]        ib_iface.c:1059 UCX  ERROR ibv_create_cq(cqe=256) failed: Connection timed out
[1739914207.029742] [ohm:496831:0]        ib_iface.c:1059 UCX  ERROR ibv_create_cq(cqe=256) failed: Connection timed out
[1739914207.042270] [ohm:496820:0]        ib_iface.c:1059 UCX  ERROR ibv_create_cq(cqe=256) failed: Connection timed out
[1739914207.044836] [ohm:496828:0]        ib_iface.c:1059 UCX  ERROR ibv_create_cq(cqe=256) failed: Connection timed out
[1739914207.054448] [ohm:496816:0]        ib_iface.c:1059 UCX  ERROR ibv_create_cq(cqe=256) failed: Connection timed out
[1739914207.055034] [ohm:496822:0]        ib_iface.c:1059 UCX  ERROR ibv_create_cq(cqe=256) failed: Connection timed out
[1739914207.060111] [ohm:496835:0]        ib_iface.c:1059 UCX  ERROR ibv_create_cq(cqe=256) failed: Connection timed out
[1739914207.060150] [ohm:496814:0]        ib_iface.c:1059 UCX  ERROR ibv_create_cq(cqe=256) failed: Connection timed out
[1739914207.085303] [ohm:496813:0]        ib_iface.c:1059 UCX  ERROR ibv_create_cq(cqe=256) failed: Connection timed out
[1739914207.095548] [ohm:496838:0]        ib_iface.c:1059 UCX  ERROR ibv_create_cq(cqe=256) failed: Connection timed out
[1739914207.109863] [ohm:496951:0]        ib_iface.c:1059 UCX  ERROR ibv_create_cq(cqe=256) failed: Connection timed out
[1739914207.123656] [ohm:496833:0]        ib_iface.c:1059 UCX  ERROR ibv_create_cq(cqe=256) failed: Connection timed out
[1739914207.131776] [ohm:496915:0]        ib_iface.c:1059 UCX  ERROR ibv_create_cq(cqe=256) failed: Connection timed out
[1739914207.138315] [ohm:496840:0]        ib_iface.c:1059 UCX  ERROR ibv_create_cq(cqe=256) failed: Connection timed out
[1739914207.143262] [ohm:496827:0]        ib_iface.c:1059 UCX  ERROR ibv_create_cq(cqe=256) failed: Connection timed out
[1739914207.159075] [ohm:496863:0]        ib_iface.c:1059 UCX  ERROR ibv_create_cq(cqe=256) failed: Connection timed out
[1739914207.164859] [ohm:496927:0]        ib_iface.c:1059 UCX  ERROR ibv_create_cq(cqe=256) failed: Connection timed out
[1739914207.168077] [ohm:496821:0]        ib_iface.c:1059 UCX  ERROR ibv_create_cq(cqe=256) failed: Connection timed out
[1739914207.181100] [ohm:496824:0]        ib_iface.c:1059 UCX  ERROR ibv_create_cq(cqe=256) failed: Connection timed out
[1739914207.181402] [ohm:496940:0]        ib_iface.c:1059 UCX  ERROR ibv_create_cq(cqe=256) failed: Connection timed out
[1739914207.184165] [ohm:496881:0]        ib_iface.c:1059 UCX  ERROR ibv_create_cq(cqe=256) failed: Connection timed out
[1739914207.204152] [ohm:496882:0]        ib_iface.c:1059 UCX  ERROR ibv_create_cq(cqe=256) failed: Connection timed out
[1739914207.204492] [ohm:496823:0]        ib_iface.c:1059 UCX  ERROR ibv_create_cq(cqe=256) failed: Connection timed out
[1739914207.204556] [ohm:496836:0]        ib_iface.c:1059 UCX  ERROR ibv_create_cq(cqe=256) failed: Connection timed out
[1739914207.217024] [ohm:496834:0]        ib_iface.c:1059 UCX  ERROR ibv_create_cq(cqe=256) failed: Connection timed out
[1739914207.218290] [ohm:496837:0]        ib_iface.c:1059 UCX  ERROR ibv_create_cq(cqe=256) failed: Connection timed out
[1739914207.222202] [ohm:496939:0]        ib_iface.c:1059 UCX  ERROR ibv_create_cq(cqe=256) failed: Connection timed out
[1739914207.227046] [ohm:496871:0]        ib_iface.c:1059 UCX  ERROR ibv_create_cq(cqe=256) failed: Connection timed out
[1739914207.232756] [ohm:496945:0]        ib_iface.c:1059 UCX  ERROR ibv_create_cq(cqe=256) failed: Connection timed out
[1739914207.235638] [ohm:496897:0]        ib_iface.c:1059 UCX  ERROR ibv_create_cq(cqe=256) failed: Connection timed out
[1739914207.240644] [ohm:496954:0]        ib_iface.c:1059 UCX  ERROR ibv_create_cq(cqe=256) failed: Connection timed out
[1739914207.249933] [ohm:496957:0]        ib_iface.c:1059 UCX  ERROR ibv_create_cq(cqe=256) failed: Connection timed out
[1739914207.253260] [ohm:496921:0]        ib_iface.c:1059 UCX  ERROR ibv_create_cq(cqe=256) failed: Connection timed out
[1739914207.255285] [ohm:496870:0]        ib_iface.c:1059 UCX  ERROR ibv_create_cq(cqe=256) failed: Connection timed out
[1739914207.258348] [ohm:496825:0]        ib_iface.c:1059 UCX  ERROR ibv_create_cq(cqe=256) failed: Connection timed out
[1739914207.263342] [ohm:496900:0]        ib_iface.c:1059 UCX  ERROR ibv_create_cq(cqe=256) failed: Connection timed out
[1739914207.264310] [ohm:496873:0]        ib_iface.c:1059 UCX  ERROR ibv_create_cq(cqe=256) failed: Connection timed out
[1739914207.266258] [ohm:496930:0]        ib_iface.c:1059 UCX  ERROR ibv_create_cq(cqe=256) failed: Connection timed out
[1739914207.268065] [ohm:496961:0]        ib_iface.c:1059 UCX  ERROR ibv_create_cq(cqe=256) failed: Connection timed out
[1739914207.271247] [ohm:496830:0]        ib_iface.c:1059 UCX  ERROR ibv_create_cq(cqe=256) failed: Connection timed out
[1739914207.271597] [ohm:496826:0]        ib_iface.c:1059 UCX  ERROR ibv_create_cq(cqe=256) failed: Connection timed out
[1739914207.285864] [ohm:496839:0]        ib_iface.c:1059 UCX  ERROR ibv_create_cq(cqe=256) failed: Connection timed out
[1739914207.294924] [ohm:496933:0]        ib_iface.c:1059 UCX  ERROR ibv_create_cq(cqe=256) failed: Connection timed out
[1739914207.297073] [ohm:496842:0]        ib_iface.c:1059 UCX  ERROR ibv_create_cq(cqe=256) failed: Connection timed out
[1739914207.300456] [ohm:496891:0]        ib_iface.c:1059 UCX  ERROR ibv_create_cq(cqe=256) failed: Connection timed out
[1739914207.301278] [ohm:496894:0]        ib_iface.c:1059 UCX  ERROR ibv_create_cq(cqe=256) failed: Connection timed out
[1739914207.302599] [ohm:496845:0]        ib_iface.c:1059 UCX  ERROR ibv_create_cq(cqe=256) failed: Connection timed out
[1739914207.304683] [ohm:496858:0]        ib_iface.c:1059 UCX  ERROR ibv_create_cq(cqe=256) failed: Connection timed out
[1739914207.304926] [ohm:496889:0]        ib_iface.c:1059 UCX  ERROR ibv_create_cq(cqe=256) failed: Connection timed out
[1739914207.307341] [ohm:496922:0]        ib_iface.c:1059 UCX  ERROR ibv_create_cq(cqe=256) failed: Connection timed out
[1739914207.313324] [ohm:496949:0]        ib_iface.c:1059 UCX  ERROR ibv_create_cq(cqe=256) failed: Connection timed out
[1739914207.313687] [ohm:496829:0]        ib_iface.c:1059 UCX  ERROR ibv_create_cq(cqe=256) failed: Connection timed out
[1739914207.318953] [ohm:496908:0]        ib_iface.c:1059 UCX  ERROR ibv_create_cq(cqe=256) failed: Connection timed out
[1739914207.319485] [ohm:496860:0]        ib_iface.c:1059 UCX  ERROR ibv_create_cq(cqe=256) failed: Connection timed out
[1739914207.320431] [ohm:496918:0]        ib_iface.c:1059 UCX  ERROR ibv_create_cq(cqe=256) failed: Connection timed out
[1739914207.321593] [ohm:496910:0]        ib_iface.c:1059 UCX  ERROR ibv_create_cq(cqe=256) failed: Connection timed out
[1739914207.322167] [ohm:496849:0]        ib_iface.c:1059 UCX  ERROR ibv_create_cq(cqe=256) failed: Connection timed out
[1739914207.323276] [ohm:496817:0]        ib_iface.c:1059 UCX  ERROR ibv_create_cq(cqe=256) failed: Connection timed out
[1739914207.324820] [ohm:496832:0]        ib_iface.c:1059 UCX  ERROR ibv_create_cq(cqe=256) failed: Connection timed out
[1739914207.326214] [ohm:496903:0]        ib_iface.c:1059 UCX  ERROR ibv_create_cq(cqe=256) failed: Connection timed out
[1739914207.326463] [ohm:496852:0]        ib_iface.c:1059 UCX  ERROR ibv_create_cq(cqe=256) failed: Connection timed out
[1739914207.327158] [ohm:496936:0]        ib_iface.c:1059 UCX  ERROR ibv_create_cq(cqe=256) failed: Connection timed out


           ************************************************************
           *        Program running with 64 parallel MPI-processes    *
           *              working on a common directory               *
           ************************************************************
------------------------------------------------------------------------------
                             ORCA STARTUP CALCULATIONS
                           -- RI-GTO INTEGRALS CHOSEN --
------------------------------------------------------------------------------
------------------------------------------------------------------------------
                   ___                                                        
                  /   \      - P O W E R E D   B Y -                         
                 /     \                                                     
                 |  |  |   _    _      __       _____    __    __             
                 |  |  |  | |  | |    /  \     |  _  \  |  |  /  |          
                  \  \/   | |  | |   /    \    | | | |  |  | /  /          
                 / \  \   | |__| |  /  /\  \   | |_| |  |  |/  /          
                |  |  |   |  __  | /  /__\  \  |    /   |      \           
                |  |  |   | |  | | |   __   |  |    \   |  |\   \          
                \     /   | |  | | |  |  |  |  | |\  \  |  | \   \       
                 \___/    |_|  |_| |__|  |__|  |_| \__\ |__|  \__/        
                                                                              
                      - O R C A' S   B I G   F R I E N D -                    
                                      &                                       
                       - I N T E G R A L  F E E D E R -                       
                                                                              
 v1 FN, 2020, v2 2021, v3 2022-2024                                           
------------------------------------------------------------------------------


----------------------
SHARK INTEGRAL PACKAGE
----------------------

Number of atoms                             ...     30
Number of basis functions                   ...    882
Number of shells                            ...    322
Maximum angular momentum                    ...      3
Integral batch strategy                     ... SHARK/LIBINT Hybrid
RI-J (if used) integral strategy            ... SPLIT-RIJ (Revised 2003 algorithm where possible)
Printlevel                                  ...      1
Contraction scheme used                     ... SEGMENTED contraction
Prescreening option                         ... SCHWARTZ
   Thresh                                   ... 2.500e-11
   Tcut                                     ... 2.500e-12
   Tpresel                                  ... 2.500e-12 
Coulomb Range Separation                    ... NOT USED
Exchange Range Separation                   ... Long Range
   Mu parameter                             ... 3.000e-01
   Scaling (regular/separated)              ... 1.500e-01 8.500e-01
Multipole approximations                    ... NOT USED
Finite Nucleus Model                        ... NOT USED
CABS basis                                  ... NOT available
Auxiliary Coulomb fitting basis             ... AVAILABLE
   # of basis functions in Aux-J            ...   1014
   # of shells in Aux-J                     ...    330
   Maximum angular momentum in Aux-J        ...      4
Auxiliary J/K fitting basis                 ... NOT available
Auxiliary Correlation fitting basis         ... NOT available
Auxiliary 'external' fitting basis          ... NOT available

Checking pre-screening integrals            ... done (  0.0 sec) Dimension = 322
Check shell pair data                       ... done (  0.0 sec)
Shell pair information
Shell pair cut-off parameter TPreSel        ...   2.5e-12
Total number of shell pairs                 ...     52003
Shell pairs after pre-screening             ...     44878
Total number of primitive shell pairs       ...    129718
Primitive shell pairs kept                  ...     83276
          la=0 lb=0:   8683 shell pairs
          la=1 lb=0:  11892 shell pairs
          la=1 lb=1:   4113 shell pairs
          la=2 lb=0:   8044 shell pairs
          la=2 lb=1:   5589 shell pairs
          la=2 lb=2:   1918 shell pairs
          la=3 lb=0:   2039 shell pairs
          la=3 lb=1:   1471 shell pairs
          la=3 lb=2:    988 shell pairs
          la=3 lb=3:    141 shell pairs

Calculating one electron integrals          ... done (  0.2 sec)
Calculating RI/J V-Matrix + Cholesky decomp.... done (  0.1 sec)
Calculating Nuclear repulsion               ... done (  0.0 sec) ENN=   1416.092695593394 Eh

Diagonalization of the overlap matrix:
Smallest eigenvalue                        ... 5.812e-07
Time for diagonalization                   ...    0.124 sec
Threshold for overlap eigenvalues          ... 1.000e-07
Number of eigenvalues below threshold      ... 0

IMPORTANT:
Smallest eigenvalue of S below the DiffSThresh (1.000e-06) while
Thresh>1e-12 and/or TCut>1e-13! In order to avoid SCF convergence issues,
Thresh will be set to at least 1e-12 and TCut to at least 1e-13.
This can be turned off by adding %SCF DiffSThresh -1 END to the input.

Time for construction of square roots      ...    0.136 sec
Total time needed                          ...    0.276 sec

-------------------
DFT GRID GENERATION
-------------------

General Integration Accuracy     IntAcc      ... 4.388
Radial Grid Type                 RadialGrid  ... OptM3 with GC (2021)
Angular Grid (max. ang.)         AngularGrid ... 4 (Lebedev-302)
Angular grid pruning method      GridPruning ... 4 (adaptive)
Weight generation scheme         WeightScheme... mBecke (2022)
Basis function cutoff            BFCut       ... 1.0000e-11
Integration weight cutoff        WCut        ... 1.0000e-14
Partially contracted basis set               ... off
Rotationally invariant grid construction     ... off
Angular grids for H and He will be reduced by one unit
Diffuse basis detected: some atoms will have their outermost
                        angular grid increased by 1.

Total number of grid points                  ...   152359
Total number of batches                      ...     2393
Average number of points per batch           ...       63
Average number of grid points per atom       ...     5079

--------------------
COSX GRID GENERATION
--------------------

GRIDX 1
-------
General Integration Accuracy     IntAcc      ... 3.816
Radial Grid Type                 RadialGrid  ... OptM3 with GC (2021)
Angular Grid (max. ang.)         AngularGrid ... 1 (Lebedev-50)
Angular grid pruning method      GridPruning ... 4 (adaptive)
Weight generation scheme         WeightScheme... mBecke (2022)
Basis function cutoff            BFCut       ... 1.0000e-11
Integration weight cutoff        WCut        ... 1.0000e-14
Partially contracted basis set               ... on
Rotationally invariant grid construction     ... off
Angular grids for H and He will be reduced by one unit
Diffuse basis detected: some atoms will have their outermost
                        angular grid increased by 1.

Total number of grid points                  ...    19087
Total number of batches                      ...      166
Average number of points per batch           ...      114
Average number of grid points per atom       ...      636
UseSFitting                                  ... on

GRIDX 2
-------
General Integration Accuracy     IntAcc      ... 4.020
Radial Grid Type                 RadialGrid  ... OptM3 with GC (2021)
Angular Grid (max. ang.)         AngularGrid ... 2 (Lebedev-110)
Angular grid pruning method      GridPruning ... 4 (adaptive)
Weight generation scheme         WeightScheme... mBecke (2022)
Basis function cutoff            BFCut       ... 1.0000e-11
Integration weight cutoff        WCut        ... 1.0000e-14
Partially contracted basis set               ... on
Rotationally invariant grid construction     ... off
Angular grids for H and He will be reduced by one unit
Diffuse basis detected: some atoms will have their outermost
                        angular grid increased by 1.

Total number of grid points                  ...    46039
Total number of batches                      ...      375
Average number of points per batch           ...      122
Average number of grid points per atom       ...     1535
UseSFitting                                  ... on

GRIDX 3
-------
General Integration Accuracy     IntAcc      ... 4.338
Radial Grid Type                 RadialGrid  ... OptM3 with GC (2021)
Angular Grid (max. ang.)         AngularGrid ... 3 (Lebedev-194)
Angular grid pruning method      GridPruning ... 4 (adaptive)
Weight generation scheme         WeightScheme... mBecke (2022)
Basis function cutoff            BFCut       ... 1.0000e-11
Integration weight cutoff        WCut        ... 1.0000e-14
Partially contracted basis set               ... on
Rotationally invariant grid construction     ... off
Angular grids for H and He will be reduced by one unit
Diffuse basis detected: some atoms will have their outermost
                        angular grid increased by 1.

Total number of grid points                  ...   101332
Total number of batches                      ...      807
Average number of points per batch           ...      125
Average number of grid points per atom       ...     3378
UseSFitting                                  ... on
Initializing property integral containers    ... done (  0.0 sec)

SHARK setup successfully completed in   4.2 seconds

Maximum memory used throughout the entire STARTUP-calculation: 79.8 MB
[1739914213.326745] [ohm:497178:0]        ib_iface.c:1059 UCX  ERROR ibv_create_cq(cqe=256) failed: Connection timed out
[1739914213.330929] [ohm:497176:0]        ib_iface.c:1059 UCX  ERROR ibv_create_cq(cqe=256) failed: Connection timed out
[1739914213.338859] [ohm:497174:0]        ib_iface.c:1059 UCX  ERROR ibv_create_cq(cqe=256) failed: Connection timed out
[1739914213.364278] [ohm:497187:0]        ib_iface.c:1059 UCX  ERROR ibv_create_cq(cqe=256) failed: Connection timed out
[1739914213.408170] [ohm:497191:0]        ib_iface.c:1059 UCX  ERROR ibv_create_cq(cqe=256) failed: Connection timed out
[1739914213.408640] [ohm:497183:0]        ib_iface.c:1059 UCX  ERROR ibv_create_cq(cqe=256) failed: Connection timed out
[1739914213.414979] [ohm:497179:0]        ib_iface.c:1059 UCX  ERROR ibv_create_cq(cqe=256) failed: Connection timed out
[1739914213.417005] [ohm:497192:0]        ib_iface.c:1059 UCX  ERROR ibv_create_cq(cqe=256) failed: Connection timed out
[1739914213.421103] [ohm:497177:0]        ib_iface.c:1059 UCX  ERROR ibv_create_cq(cqe=256) failed: Connection timed out
[1739914213.422221] [ohm:497193:0]        ib_iface.c:1059 UCX  ERROR ibv_create_cq(cqe=256) failed: Connection timed out
[1739914213.435895] [ohm:497205:0]        ib_iface.c:1059 UCX  ERROR ibv_create_cq(cqe=256) failed: Connection timed out
[1739914213.442132] [ohm:497182:0]        ib_iface.c:1059 UCX  ERROR ibv_create_cq(cqe=256) failed: Connection timed out
[1739914213.449089] [ohm:497195:0]        ib_iface.c:1059 UCX  ERROR ibv_create_cq(cqe=256) failed: Connection timed out
[1739914213.452209] [ohm:497200:0]        ib_iface.c:1059 UCX  ERROR ibv_create_cq(cqe=256) failed: Connection timed out
[1739914213.453608] [ohm:497185:0]        ib_iface.c:1059 UCX  ERROR ibv_create_cq(cqe=256) failed: Connection timed out
[1739914213.453651] [ohm:497232:0]        ib_iface.c:1059 UCX  ERROR ibv_create_cq(cqe=256) failed: Connection timed out
[1739914213.458981] [ohm:497175:0]        ib_iface.c:1059 UCX  ERROR ibv_create_cq(cqe=256) failed: Connection timed out
[1739914213.477314] [ohm:497203:0]        ib_iface.c:1059 UCX  ERROR ibv_create_cq(cqe=256) failed: Connection timed out
[1739914213.497600] [ohm:497219:0]        ib_iface.c:1059 UCX  ERROR ibv_create_cq(cqe=256) failed: Connection timed out
[1739914213.497964] [ohm:497201:0]        ib_iface.c:1059 UCX  ERROR ibv_create_cq(cqe=256) failed: Connection timed out
[1739914213.505462] [ohm:497188:0]        ib_iface.c:1059 UCX  ERROR ibv_create_cq(cqe=256) failed: Connection timed out
[1739914213.562410] [ohm:497197:0]        ib_iface.c:1059 UCX  ERROR ibv_create_cq(cqe=256) failed: Connection timed out
[1739914213.563162] [ohm:497247:0]        ib_iface.c:1059 UCX  ERROR ibv_create_cq(cqe=256) failed: Connection timed out
[1739914213.568681] [ohm:497302:0]        ib_iface.c:1059 UCX  ERROR ibv_create_cq(cqe=256) failed: Connection timed out
[1739914213.573127] [ohm:497213:0]        ib_iface.c:1059 UCX  ERROR ibv_create_cq(cqe=256) failed: Connection timed out
[1739914213.578000] [ohm:497226:0]        ib_iface.c:1059 UCX  ERROR ibv_create_cq(cqe=256) failed: Connection timed out
[1739914213.588552] [ohm:497235:0]        ib_iface.c:1059 UCX  ERROR ibv_create_cq(cqe=256) failed: Connection timed out
[1739914213.599704] [ohm:497308:0]        ib_iface.c:1059 UCX  ERROR ibv_create_cq(cqe=256) failed: Connection timed out
[1739914213.606077] [ohm:497285:0]        ib_iface.c:1059 UCX  ERROR ibv_create_cq(cqe=256) failed: Connection timed out
[1739914213.609840] [ohm:497318:0]        ib_iface.c:1059 UCX  ERROR ibv_create_cq(cqe=256) failed: Connection timed out
[1739914213.613264] [ohm:497268:0]        ib_iface.c:1059 UCX  ERROR ibv_create_cq(cqe=256) failed: Connection timed out
[1739914213.615395] [ohm:497306:0]        ib_iface.c:1059 UCX  ERROR ibv_create_cq(cqe=256) failed: Connection timed out
[1739914213.616685] [ohm:497322:0]        ib_iface.c:1059 UCX  ERROR ibv_create_cq(cqe=256) failed: Connection timed out
[1739914213.627351] [ohm:497297:0]        ib_iface.c:1059 UCX  ERROR ibv_create_cq(cqe=256) failed: Connection timed out
[1739914213.630558] [ohm:497194:0]        ib_iface.c:1059 UCX  ERROR ibv_create_cq(cqe=256) failed: Connection timed out
[1739914213.630545] [ohm:497300:0]        ib_iface.c:1059 UCX  ERROR ibv_create_cq(cqe=256) failed: Connection timed out
[1739914213.634232] [ohm:497196:0]        ib_iface.c:1059 UCX  ERROR ibv_create_cq(cqe=256) failed: Connection timed out
[1739914213.642768] [ohm:497221:0]        ib_iface.c:1059 UCX  ERROR ibv_create_cq(cqe=256) failed: Connection timed out
[1739914213.643345] [ohm:497190:0]        ib_iface.c:1059 UCX  ERROR ibv_create_cq(cqe=256) failed: Connection timed out
[1739914213.647161] [ohm:497290:0]        ib_iface.c:1059 UCX  ERROR ibv_create_cq(cqe=256) failed: Connection timed out
[1739914213.654547] [ohm:497295:0]        ib_iface.c:1059 UCX  ERROR ibv_create_cq(cqe=256) failed: Connection timed out
[1739914213.658557] [ohm:497198:0]        ib_iface.c:1059 UCX  ERROR ibv_create_cq(cqe=256) failed: Connection timed out
[1739914213.660634] [ohm:497272:0]        ib_iface.c:1059 UCX  ERROR ibv_create_cq(cqe=256) failed: Connection timed out
[1739914213.671733] [ohm:497181:0]        ib_iface.c:1059 UCX  ERROR ibv_create_cq(cqe=256) failed: Connection timed out
[1739914213.672961] [ohm:497199:0]        ib_iface.c:1059 UCX  ERROR ibv_create_cq(cqe=256) failed: Connection timed out
[1739914213.676827] [ohm:497273:0]        ib_iface.c:1059 UCX  ERROR ibv_create_cq(cqe=256) failed: Connection timed out
[1739914213.680946] [ohm:497207:0]        ib_iface.c:1059 UCX  ERROR ibv_create_cq(cqe=256) failed: Connection timed out
[1739914213.681321] [ohm:497312:0]        ib_iface.c:1059 UCX  ERROR ibv_create_cq(cqe=256) failed: Connection timed out
[1739914213.684244] [ohm:497237:0]        ib_iface.c:1059 UCX  ERROR ibv_create_cq(cqe=256) failed: Connection timed out
[1739914213.687941] [ohm:497252:0]        ib_iface.c:1059 UCX  ERROR ibv_create_cq(cqe=256) failed: Connection timed out
[1739914213.688197] [ohm:497229:0]        ib_iface.c:1059 UCX  ERROR ibv_create_cq(cqe=256) failed: Connection timed out
[1739914213.688417] [ohm:497262:0]        ib_iface.c:1059 UCX  ERROR ibv_create_cq(cqe=256) failed: Connection timed out
[1739914213.689991] [ohm:497314:0]        ib_iface.c:1059 UCX  ERROR ibv_create_cq(cqe=256) failed: Connection timed out
[1739914213.692515] [ohm:497189:0]        ib_iface.c:1059 UCX  ERROR ibv_create_cq(cqe=256) failed: Connection timed out
[1739914213.692636] [ohm:497184:0]        ib_iface.c:1059 UCX  ERROR ibv_create_cq(cqe=256) failed: Connection timed out
[1739914213.694811] [ohm:497242:0]        ib_iface.c:1059 UCX  ERROR ibv_create_cq(cqe=256) failed: Connection timed out
[1739914213.695054] [ohm:497264:0]        ib_iface.c:1059 UCX  ERROR ibv_create_cq(cqe=256) failed: Connection timed out
[1739914213.696466] [ohm:497278:0]        ib_iface.c:1059 UCX  ERROR ibv_create_cq(cqe=256) failed: Connection timed out
[1739914213.697360] [ohm:497281:0]        ib_iface.c:1059 UCX  ERROR ibv_create_cq(cqe=256) failed: Connection timed out
[1739914213.698858] [ohm:497186:0]        ib_iface.c:1059 UCX  ERROR ibv_create_cq(cqe=256) failed: Connection timed out
[1739914213.699223] [ohm:497292:0]        ib_iface.c:1059 UCX  ERROR ibv_create_cq(cqe=256) failed: Connection timed out
[1739914213.699825] [ohm:497257:0]        ib_iface.c:1059 UCX  ERROR ibv_create_cq(cqe=256) failed: Connection timed out
[1739914213.700560] [ohm:497286:0]        ib_iface.c:1059 UCX  ERROR ibv_create_cq(cqe=256) failed: Connection timed out
[1739914213.707360] [ohm:497180:0]        ib_iface.c:1059 UCX  ERROR ibv_create_cq(cqe=256) failed: Connection timed out


           ************************************************************
           *        Program running with 64 parallel MPI-processes    *
           *              working on a common directory               *
           ************************************************************
-------------------------------------------------------------------------------
                                 ORCA GUESS
                   Start orbitals & Density for SCF / CASSCF
-------------------------------------------------------------------------------

------------
SCF SETTINGS
------------
Hamiltonian:
 Density Functional     Method          .... DFT(GTOs)
  Functional kind                       .... Exchange-Correlation
  Functional name                       .... wB97M-V exchange-correlation functional
  Functional family                     .... Hybrid MGGA
  Functional refs                              
    [ 0] N. Mardirossian and M. Head-Gordon.,  J. Chem. Phys. 144, 214110 (2016), doi: 10.1063/1.4952647
  Fraction of HF Exchange (short range) .... 0.1500
  Fraction of HF Exchange (long range)  .... 1.0000
  Range separation parameter mu         .... 0.3000
  Functional external parameters        .... 17
    Parameter  0 _cx00      =  8.500000e-01 : u^00 coefficient for exchange
    Parameter  1 _cx01      =  1.007000e+00 : u^01 coefficient for exchange
    Parameter  2 _cx10      =  2.590000e-01 : u^10 coefficient for exchange
    Parameter  3 _css00     =  4.430000e-01 : u^00 coefficient for same-spin correlation
    Parameter  4 _css04     = -1.437000e+00 : u^04 coefficient for same-spin correlation
    Parameter  5 _css10     = -4.535000e+00 : u^10 coefficient for same-spin correlation
    Parameter  6 _css20     = -3.390000e+00 : u^20 coefficient for same-spin correlation
    Parameter  7 _css43     =  4.278000e+00 : u^43 coefficient for same-spin correlation
    Parameter  8 _cos00     =  1.000000e+00 : u^00 coefficient for opposite-spin correlation
    Parameter  9 _cos10     =  1.358000e+00 : u^10 coefficient for opposite-spin correlation
    Parameter 10 _cos20     =  2.924000e+00 : u^20 coefficient for opposite-spin correlation
    Parameter 11 _cos21     = -8.812000e+00 : u^21 coefficient for opposite-spin correlation
    Parameter 12 _cos60     = -1.390000e+00 : u^60 coefficient for opposite-spin correlation
    Parameter 13 _cos61     =  9.142000e+00 : u^61 coefficient for opposite-spin correlation
    Parameter 14 _alpha     =  1.000000e+00 : fraction of HF exchange
    Parameter 15 _beta      = -8.500000e-01 : fraction of short-range exchange
    Parameter 16 _omega     =  3.000000e-01 : range-separation constant
 Long-range corrected/Screened/Range-Separated Hybrid DFT is turned on
   Amount of maximum screened exact exchange              ....  0.850000
   Range separation parameter mu (erf(mu*r12)/r12)        ....  0.300000
 RI-approximation to the Coulomb term is turned on
   Number of AuxJ basis functions       .... 1014
   RIJ-COSX (HFX calculated with COS-X)).... on


General Settings:
 Integral files         IntName         .... orca
 Hartree-Fock type      HFTyp           .... UHF
 Total Charge           Charge          ....    0
 Multiplicity           Mult            ....    3
 Number of Electrons    NEL             ....  132
 Basis Dimension        Dim             ....  882
 Nuclear Repulsion      ENuc            ....   1416.0926955934 Eh

Convergence Acceleration:
 AO-DIIS                CNVDIIS         .... on
   Start iteration      DIISMaxIt       ....    12
   Startup error        DIISStart       ....  0.200000
   # of expansion vecs  DIISMaxEq       ....     5
   Bias factor          DIISBfac        ....   1.050
   Max. coefficient     DIISMaxC        ....  10.000
 MO-DIIS                CNVKDIIS        .... off
 Trust-Rad. Augm. Hess. CNVTRAH         .... auto
   Auto Start mean grad. ratio tolernc. ....  1.125000
   Auto Start start iteration           ....    50
   Auto Start num. interpolation iter.  ....    10
   Max. Number of Micro iterations      ....    24
   Max. Number of Macro iterations      .... Maxiter - #DIIS iter
   Number of Davidson start vectors     ....     2
   Converg. threshold    (grad. norm)   ....   1.000e-05
   Grad. Scal. Fac. for Micro threshold ....   0.100
   Minimum threshold for Micro iter.    ....   1.000e-02
   NR start threshold (gradient norm)   ....   1.000e-04
   Initial trust radius                 ....   0.400
   Minimum AH scaling param. (alpha)    ....   1.000
   Maximum AH scaling param. (alpha)    .... 1000.000
   Quad. conv. algorithm                .... NR
   White noise on init. David. guess    .... on
   Maximum white noise                  ....   0.010
   Pseudo random numbers                .... off
   Inactive MOs                         .... canonical
   Orbital update algorithm             .... Taylor
   Preconditioner                       .... Diag
   Full preconditioner red. dimension   ....   250
 SOSCF                  CNVSOSCF        .... on
   Start iteration      SOSCFMaxIt      ....   150
   Startup grad/error   SOSCFStart      ....  0.003300
   Hessian update       SOSCFHessUp     .... L-BFGS
 Level Shifting         CNVShift        .... on
   Level shift para.    LevelShift      ....    0.2500
   Turn off err/grad.   ShiftErr        ....    0.0010
 Zerner damping         CNVZerner       .... off
 Static damping         CNVDamp         .... on
   Fraction old density DampFac         ....    0.7000
   Max. Damping (<1)    DampMax         ....    0.9800
   Min. Damping (>=0)   DampMin         ....    0.0000
   Turn off err/grad.   DampErr         ....    0.1000

SCF Procedure:
 Maximum # iterations   MaxIter         ....   125
 SCF integral mode      SCFMode         .... Direct
   Integral package                     .... SHARK and LIBINT hybrid scheme
 Reset frequency        DirectResetFreq ....    20
 Integral Threshold     Thresh          ....  1.000e-12 Eh
 Primitive CutOff       TCut            ....  1.000e-13 Eh

Convergence Tolerance:
 Convergence Check Mode ConvCheckMode   .... Total+1el-Energy
 Convergence forced     ConvForced      .... 1
 Energy Change          TolE            ....  1.000e-08 Eh
 1-El. energy change                    ....  1.000e-05 Eh
 Orbital Gradient       TolG            ....  1.000e-05
 Orbital Rotation angle TolX            ....  1.000e-05
 DIIS Error             TolErr          ....  5.000e-07

------------------------------
INITIAL GUESS: MODEL POTENTIAL
------------------------------
Loading Hartree-Fock densities                     ... done
Calculating cut-offs                               ... done
Initializing the effective Hamiltonian             ... done
Setting up the integral package (SHARK)            ... done
Starting the Coulomb interaction                   ... done (   0.1 sec)
Making the grid                                    ... done (   0.3 sec)
Mapping shells                                     ... done
Starting the XC term evaluation                    ... done (   0.1 sec)
  promolecular density results
     # of electrons  =    131.984258889
     EX              =   -113.517179317
     EC              =     -4.466885886
     EX+EC           =   -117.984065202
Transforming the Hamiltonian                       ... done (   0.1 sec)
Diagonalizing the Hamiltonian                      ... done (   0.1 sec)
Back transforming the eigenvectors                 ... done (   0.1 sec)
Now organizing SCF variables                       ... done
                      ------------------
                      INITIAL GUESS DONE (   1.1 sec)
                      ------------------
             **** ENERGY FILE WAS UPDATED (orca.en.tmp) ****
Finished Guess after   3.5 sec
Maximum memory used throughout the entire GUESS-calculation: 72.2 MB
[1739914217.631229] [ohm:497528:0]        ib_iface.c:1059 UCX  ERROR ibv_create_cq(cqe=256) failed: Connection timed out
[1739914217.652907] [ohm:497530:0]        ib_iface.c:1059 UCX  ERROR ibv_create_cq(cqe=256) failed: Connection timed out
[1739914217.657952] [ohm:497559:0]        ib_iface.c:1059 UCX  ERROR ibv_create_cq(cqe=256) failed: Connection timed out
[1739914217.664030] [ohm:497529:0]        ib_iface.c:1059 UCX  ERROR ibv_create_cq(cqe=256) failed: Connection timed out
[1739914217.666586] [ohm:497535:0]        ib_iface.c:1059 UCX  ERROR ibv_create_cq(cqe=256) failed: Connection timed out
[1739914217.671545] [ohm:497577:0]        ib_iface.c:1059 UCX  ERROR ibv_create_cq(cqe=256) failed: Connection timed out
[1739914217.703242] [ohm:497536:0]        ib_iface.c:1059 UCX  ERROR ibv_create_cq(cqe=256) failed: Connection timed out
[1739914217.729346] [ohm:497542:0]        ib_iface.c:1059 UCX  ERROR ibv_create_cq(cqe=256) failed: Connection timed out
[1739914217.729347] [ohm:497532:0]        ib_iface.c:1059 UCX  ERROR ibv_create_cq(cqe=256) failed: Connection timed out
[1739914217.730073] [ohm:497539:0]        ib_iface.c:1059 UCX  ERROR ibv_create_cq(cqe=256) failed: Connection timed out
[1739914217.730044] [ohm:497576:0]        ib_iface.c:1059 UCX  ERROR ibv_create_cq(cqe=256) failed: Connection timed out
[1739914217.745627] [ohm:497543:0]        ib_iface.c:1059 UCX  ERROR ibv_create_cq(cqe=256) failed: Connection timed out
[1739914217.774342] [ohm:497537:0]        ib_iface.c:1059 UCX  ERROR ibv_create_cq(cqe=256) failed: Connection timed out
[1739914217.796096] [ohm:497538:0]        ib_iface.c:1059 UCX  ERROR ibv_create_cq(cqe=256) failed: Connection timed out
[1739914217.796938] [ohm:497630:0]        ib_iface.c:1059 UCX  ERROR ibv_create_cq(cqe=256) failed: Connection timed out
[1739914217.798671] [ohm:497585:0]        ib_iface.c:1059 UCX  ERROR ibv_create_cq(cqe=256) failed: Connection timed out
[1739914217.804525] [ohm:497534:0]        ib_iface.c:1059 UCX  ERROR ibv_create_cq(cqe=256) failed: Connection timed out
[1739914217.848689] [ohm:497549:0]        ib_iface.c:1059 UCX  ERROR ibv_create_cq(cqe=256) failed: Connection timed out
[1739914217.850259] [ohm:497533:0]        ib_iface.c:1059 UCX  ERROR ibv_create_cq(cqe=256) failed: Connection timed out
[1739914217.858785] [ohm:497547:0]        ib_iface.c:1059 UCX  ERROR ibv_create_cq(cqe=256) failed: Connection timed out
[1739914217.860205] [ohm:497678:0]        ib_iface.c:1059 UCX  ERROR ibv_create_cq(cqe=256) failed: Connection timed out
[1739914217.862865] [ohm:497590:0]        ib_iface.c:1059 UCX  ERROR ibv_create_cq(cqe=256) failed: Connection timed out
[1739914217.865090] [ohm:497616:0]        ib_iface.c:1059 UCX  ERROR ibv_create_cq(cqe=256) failed: Connection timed out
[1739914217.867933] [ohm:497601:0]        ib_iface.c:1059 UCX  ERROR ibv_create_cq(cqe=256) failed: Connection timed out
[1739914217.868565] [ohm:497634:0]        ib_iface.c:1059 UCX  ERROR ibv_create_cq(cqe=256) failed: Connection timed out
[1739914217.873845] [ohm:497638:0]        ib_iface.c:1059 UCX  ERROR ibv_create_cq(cqe=256) failed: Connection timed out
[1739914217.874331] [ohm:497605:0]        ib_iface.c:1059 UCX  ERROR ibv_create_cq(cqe=256) failed: Connection timed out
[1739914217.897615] [ohm:497641:0]        ib_iface.c:1059 UCX  ERROR ibv_create_cq(cqe=256) failed: Connection timed out
[1739914217.903329] [ohm:497650:0]        ib_iface.c:1059 UCX  ERROR ibv_create_cq(cqe=256) failed: Connection timed out
[1739914217.909817] [ohm:497657:0]        ib_iface.c:1059 UCX  ERROR ibv_create_cq(cqe=256) failed: Connection timed out
[1739914217.917058] [ohm:497566:0]        ib_iface.c:1059 UCX  ERROR ibv_create_cq(cqe=256) failed: Connection timed out
[1739914217.919232] [ohm:497562:0]        ib_iface.c:1059 UCX  ERROR ibv_create_cq(cqe=256) failed: Connection timed out
[1739914217.927693] [ohm:497648:0]        ib_iface.c:1059 UCX  ERROR ibv_create_cq(cqe=256) failed: Connection timed out
[1739914217.935570] [ohm:497582:0]        ib_iface.c:1059 UCX  ERROR ibv_create_cq(cqe=256) failed: Connection timed out
[1739914217.939472] [ohm:497671:0]        ib_iface.c:1059 UCX  ERROR ibv_create_cq(cqe=256) failed: Connection timed out
[1739914217.940068] [ohm:497579:0]        ib_iface.c:1059 UCX  ERROR ibv_create_cq(cqe=256) failed: Connection timed out
[1739914217.953691] [ohm:497571:0]        ib_iface.c:1059 UCX  ERROR ibv_create_cq(cqe=256) failed: Connection timed out
[1739914217.964270] [ohm:497655:0]        ib_iface.c:1059 UCX  ERROR ibv_create_cq(cqe=256) failed: Connection timed out
[1739914217.964936] [ohm:497553:0]        ib_iface.c:1059 UCX  ERROR ibv_create_cq(cqe=256) failed: Connection timed out
[1739914217.972764] [ohm:497609:0]        ib_iface.c:1059 UCX  ERROR ibv_create_cq(cqe=256) failed: Connection timed out
[1739914217.972799] [ohm:497550:0]        ib_iface.c:1059 UCX  ERROR ibv_create_cq(cqe=256) failed: Connection timed out
[1739914217.973573] [ohm:497545:0]        ib_iface.c:1059 UCX  ERROR ibv_create_cq(cqe=256) failed: Connection timed out
[1739914217.974820] [ohm:497546:0]        ib_iface.c:1059 UCX  ERROR ibv_create_cq(cqe=256) failed: Connection timed out
[1739914217.984056] [ohm:497623:0]        ib_iface.c:1059 UCX  ERROR ibv_create_cq(cqe=256) failed: Connection timed out
[1739914217.986658] [ohm:497531:0]        ib_iface.c:1059 UCX  ERROR ibv_create_cq(cqe=256) failed: Connection timed out
[1739914217.987356] [ohm:497551:0]        ib_iface.c:1059 UCX  ERROR ibv_create_cq(cqe=256) failed: Connection timed out
[1739914217.987949] [ohm:497593:0]        ib_iface.c:1059 UCX  ERROR ibv_create_cq(cqe=256) failed: Connection timed out
[1739914217.988613] [ohm:497620:0]        ib_iface.c:1059 UCX  ERROR ibv_create_cq(cqe=256) failed: Connection timed out
[1739914217.995091] [ohm:497619:0]        ib_iface.c:1059 UCX  ERROR ibv_create_cq(cqe=256) failed: Connection timed out
[1739914217.998282] [ohm:497552:0]        ib_iface.c:1059 UCX  ERROR ibv_create_cq(cqe=256) failed: Connection timed out
[1739914217.998625] [ohm:497643:0]        ib_iface.c:1059 UCX  ERROR ibv_create_cq(cqe=256) failed: Connection timed out
[1739914217.998876] [ohm:497625:0]        ib_iface.c:1059 UCX  ERROR ibv_create_cq(cqe=256) failed: Connection timed out
[1739914218.006303] [ohm:497685:0]        ib_iface.c:1059 UCX  ERROR ibv_create_cq(cqe=256) failed: Connection timed out
[1739914218.009058] [ohm:497614:0]        ib_iface.c:1059 UCX  ERROR ibv_create_cq(cqe=256) failed: Connection timed out
[1739914218.009881] [ohm:497548:0]        ib_iface.c:1059 UCX  ERROR ibv_create_cq(cqe=256) failed: Connection timed out
[1739914218.013054] [ohm:497555:0]        ib_iface.c:1059 UCX  ERROR ibv_create_cq(cqe=256) failed: Connection timed out
[1739914218.013729] [ohm:497541:0]        ib_iface.c:1059 UCX  ERROR ibv_create_cq(cqe=256) failed: Connection timed out
[1739914218.013857] [ohm:497659:0]        ib_iface.c:1059 UCX  ERROR ibv_create_cq(cqe=256) failed: Connection timed out
[1739914218.014248] [ohm:497645:0]        ib_iface.c:1059 UCX  ERROR ibv_create_cq(cqe=256) failed: Connection timed out
[1739914218.015845] [ohm:497556:0]        ib_iface.c:1059 UCX  ERROR ibv_create_cq(cqe=256) failed: Connection timed out
[1739914218.015950] [ohm:497544:0]        ib_iface.c:1059 UCX  ERROR ibv_create_cq(cqe=256) failed: Connection timed out
[1739914218.016063] [ohm:497663:0]        ib_iface.c:1059 UCX  ERROR ibv_create_cq(cqe=256) failed: Connection timed out
[1739914218.017600] [ohm:497598:0]        ib_iface.c:1059 UCX  ERROR ibv_create_cq(cqe=256) failed: Connection timed out
[1739914218.017680] [ohm:497540:0]        ib_iface.c:1059 UCX  ERROR ibv_create_cq(cqe=256) failed: Connection timed out


           ************************************************************
           *        Program running with 64 parallel MPI-processes    *
           *              working on a common directory               *
           ************************************************************

-------------------------------------------------------------------------------------------
                                      ORCA LEAN-SCF
                              memory conserving SCF solver
-------------------------------------------------------------------------------------------

----------------------------------------D-I-I-S--------------------------------------------
Iteration    Energy (Eh)           Delta-E    RMSDP     MaxDP     DIISErr   Damp  Time(sec)
-------------------------------------------------------------------------------------------
               ***  Starting incremental Fock matrix formation  ***
    1    -907.9722842847436368     0.00e+00  1.32e-03  1.31e-01  1.54e-01  0.700   7.8
Warning: op=0 Small HOMO/LUMO gap (   0.032) - skipping pre-diagonalization
         Will do a full diagonalization
    2    -908.2659701658872109    -2.94e-01  1.36e-03  1.74e-01  7.54e-02  0.700   6.6
                               ***Turning on AO-DIIS***
    3    -908.3999596447347358    -1.34e-01  9.05e-04  1.65e-01  2.82e-02  0.700   5.7
    4    -908.4810004001842572    -8.10e-02  2.05e-03  4.24e-01  1.81e-02  0.000   5.7
    5    -908.6673733305874521    -1.86e-01  3.87e-04  6.40e-02  6.75e-03  0.000   5.8
    6    -908.6722442705236062    -4.87e-03  2.89e-04  4.88e-02  6.65e-03  0.000   5.6
    7    -908.6766531091125216    -4.41e-03  4.30e-04  7.97e-02  6.66e-03  0.000   5.6
    8    -908.6821293700882052    -5.48e-03  3.34e-04  6.53e-02  6.76e-03  0.000   5.6
    9    -908.6866460911601280    -4.52e-03  6.26e-04  1.28e-01  5.73e-03  0.000   5.6
   10    -908.6918543990232138    -5.21e-03  1.22e-04  1.69e-02  5.34e-03  0.000   5.6
   11    -908.6935381861330825    -1.68e-03  5.03e-04  1.02e-01  3.74e-03  0.000   5.5
                              *** Initializing SOSCF ***
---------------------------------------S-O-S-C-F--------------------------------------
Iteration    Energy (Eh)           Delta-E    RMSDP     MaxDP     MaxGrad    Time(sec)
--------------------------------------------------------------------------------------
   12    -908.6956087048338304    -2.07e-03  9.84e-05  1.60e-02  2.72e-03     6.5
               *** Restarting incremental Fock matrix formation ***
   13    -908.6964098396965710    -8.01e-04  1.99e-04  2.61e-02  7.16e-03     7.4
   14    -908.6967420779164968    -3.32e-04  1.07e-04  1.35e-02  2.83e-03     6.8
   15    -908.6969576082638014    -2.16e-04  8.81e-05  1.15e-02  1.41e-03     6.6
   16    -908.6969985152491063    -4.09e-05  4.62e-05  5.46e-03  4.80e-04     6.5
   17    -908.6970203273813240    -2.18e-05  1.33e-05  2.62e-03  1.77e-04     6.3
   18    -908.6970226808325606    -2.35e-06  5.85e-06  8.38e-04  1.17e-04     6.1
   19    -908.6970236562874561    -9.75e-07  3.68e-06  5.41e-04  8.77e-05     6.0
   20    -908.6970239215847869    -2.65e-07  3.32e-06  7.47e-04  6.67e-05     6.0
   21    -908.6970240348018706    -1.13e-07  2.25e-06  4.10e-04  3.45e-05     5.8
   22    -908.6970241067783718    -7.20e-08  1.49e-06  2.11e-04  1.71e-05     5.8
   23    -908.6970241712642746    -6.45e-08  1.16e-06  1.86e-04  8.50e-06     5.7
   24    -908.6970241704916589     7.73e-10  1.30e-06  2.03e-04  8.67e-06     5.6
                 **** Energy Check signals convergence ****

               *****************************************************
               *                     SUCCESS                       *
               *           SCF CONVERGED AFTER  24 CYCLES          *
               *****************************************************

Recomputing exchange energy using gridx3       ... done (    7.735 sec)
Old exchange energy                            :    -35.006632275 Eh
New exchange energy                            :    -35.006625330 Eh
Exchange energy change after final integration :      0.000006945 Eh
Total energy after final integration           :   -908.697017225 Eh
             **** ENERGY FILE WAS UPDATED (orca.en.tmp) ****

----------------
TOTAL SCF ENERGY
----------------

Total Energy       :       -908.69701722533148 Eh          -24726.90293 eV

Components:
Nuclear Repulsion  :       1416.09269559339373 Eh           38533.84127 eV
Electronic Energy  :      -2324.78971976388539 Eh          -63260.74439 eV
One Electron Energy:      -4049.71914221550787 Eh         -110198.46024 eV
Two Electron Energy:       1724.92942245162249 Eh           46937.71585 eV

Virial components:
Potential Energy   :      -1814.48928698549616 Eh          -49374.76366 eV
Kinetic Energy     :        905.79226976016457 Eh           24647.86073 eV
Virial Ratio       :          2.00320685830752

DFT components:
N(Alpha)           :       67.000192311814 electrons
N(Beta)            :       65.000179828263 electrons
N(Total)           :      132.000372140077 electrons
E(XC)              :      -86.214652200837 Eh       

---------------
SCF CONVERGENCE
---------------

  Last Energy change         ...   -7.7262e-10  Tolerance :   1.0000e-08
  Last MAX-Density change    ...    2.0342e-04  Tolerance :   1.0000e-07
  Last RMS-Density change    ...    1.2984e-06  Tolerance :   5.0000e-09
  Last DIIS Error            ...    2.7190e-03  Tolerance :   5.0000e-07
  Last Orbital Gradient      ...    8.6744e-06  Tolerance :   1.0000e-05
  Last Orbital Rotation      ...    3.6595e-05  Tolerance :   1.0000e-05


----------------------
UHF SPIN CONTAMINATION
----------------------

Warning: in a DFT calculation there is little theoretical justification to 
         calculate <S**2> as in Hartree-Fock theory. We will do it anyways
         but you should keep in mind that the values have only limited relevance

Expectation value of <S**2>     :     2.011350
Ideal value S*(S+1) for S=1.0   :     2.000000
Deviation                       :     0.011350

----------------
ORBITAL ENERGIES
----------------
                 SPIN UP ORBITALS
  NO   OCC          E(Eh)            E(eV) 
   0   1.0000     -19.337213      -526.1923 
   1   1.0000     -19.333770      -526.0986 
   2   1.0000     -19.326913      -525.9120 
   3   1.0000     -19.312242      -525.5128 
   4   1.0000     -14.595981      -397.1768 
   5   1.0000     -14.591349      -397.0508 
   6   1.0000     -14.562566      -396.2676 
   7   1.0000     -14.551384      -395.9633 
   8   1.0000     -10.516635      -286.1722 
   9   1.0000     -10.516401      -286.1658 
  10   1.0000     -10.471193      -284.9356 
  11   1.0000     -10.461163      -284.6627 
  12   1.0000     -10.446195      -284.2554 
  13   1.0000     -10.413385      -283.3626 
  14   1.0000     -10.411759      -283.3184 
  15   1.0000     -10.380170      -282.4588 
  16   1.0000     -10.362496      -281.9779 
  17   1.0000     -10.357261      -281.8354 
  18   1.0000      -1.230646       -33.4876 
  19   1.0000      -1.221355       -33.2348 
  20   1.0000      -1.189598       -32.3706 
  21   1.0000      -1.178428       -32.0667 
  22   1.0000      -1.133077       -30.8326 
  23   1.0000      -1.115613       -30.3574 
  24   1.0000      -1.060544       -28.8589 
  25   1.0000      -1.050600       -28.5883 
  26   1.0000      -0.977364       -26.5954 
  27   1.0000      -0.954092       -25.9622 
  28   1.0000      -0.857119       -23.3234 
  29   1.0000      -0.850588       -23.1457 
  30   1.0000      -0.815037       -22.1783 
  31   1.0000      -0.809144       -22.0179 
  32   1.0000      -0.783577       -21.3222 
  33   1.0000      -0.774569       -21.0771 
  34   1.0000      -0.695084       -18.9142 
  35   1.0000      -0.689604       -18.7651 
  36   1.0000      -0.686154       -18.6712 
  37   1.0000      -0.680913       -18.5286 
  38   1.0000      -0.654644       -17.8138 
  39   1.0000      -0.635615       -17.2960 
  40   1.0000      -0.628716       -17.1082 
  41   1.0000      -0.607017       -16.5178 
  42   1.0000      -0.602476       -16.3942 
  43   1.0000      -0.590460       -16.0672 
  44   1.0000      -0.576642       -15.6912 
  45   1.0000      -0.570384       -15.5209 
  46   1.0000      -0.565154       -15.3786 
  47   1.0000      -0.561687       -15.2843 
  48   1.0000      -0.549598       -14.9553 
  49   1.0000      -0.548401       -14.9228 
  50   1.0000      -0.525475       -14.2989 
  51   1.0000      -0.523145       -14.2355 
  52   1.0000      -0.514467       -13.9994 
  53   1.0000      -0.513939       -13.9850 
  54   1.0000      -0.500696       -13.6246 
  55   1.0000      -0.485241       -13.2041 
  56   1.0000      -0.483824       -13.1655 
  57   1.0000      -0.478581       -13.0229 
  58   1.0000      -0.427242       -11.6258 
  59   1.0000      -0.422793       -11.5048 
  60   1.0000      -0.407686       -11.0937 
  61   1.0000      -0.394801       -10.7431 
  62   1.0000      -0.388505       -10.5718 
  63   1.0000      -0.387784       -10.5521 
  64   1.0000      -0.379865       -10.3367 
  65   1.0000      -0.332157        -9.0385 
  66   1.0000      -0.231056        -6.2874 
  67   0.0000       0.006506         0.1770 
  68   0.0000       0.012630         0.3437 
  69   0.0000       0.026889         0.7317 
  70   0.0000       0.038181         1.0390 
  71   0.0000       0.038606         1.0505 
  72   0.0000       0.054712         1.4888 
  73   0.0000       0.059169         1.6101 
  74   0.0000       0.059262         1.6126 
  75   0.0000       0.063520         1.7285 
  76   0.0000       0.067419         1.8346 
  77   0.0000       0.069002         1.8776 

                 SPIN DOWN ORBITALS
  NO   OCC          E(Eh)            E(eV) 
   0   1.0000     -19.335225      -526.1382 
   1   1.0000     -19.333724      -526.0974 
   2   1.0000     -19.319928      -525.7220 
   3   1.0000     -19.312271      -525.5136 
   4   1.0000     -14.591800      -397.0631 
   5   1.0000     -14.591228      -397.0475 
   6   1.0000     -14.562575      -396.2678 
   7   1.0000     -14.550420      -395.9371 
   8   1.0000     -10.516985      -286.1817 
   9   1.0000     -10.516403      -286.1659 
  10   1.0000     -10.471190      -284.9356 
  11   1.0000     -10.460734      -284.6511 
  12   1.0000     -10.445951      -284.2488 
  13   1.0000     -10.402942      -283.0784 
  14   1.0000     -10.402218      -283.0587 
  15   1.0000     -10.380119      -282.4574 
  16   1.0000     -10.362410      -281.9755 
  17   1.0000     -10.357538      -281.8429 
  18   1.0000      -1.230549       -33.4849 
  19   1.0000      -1.217141       -33.1201 
  20   1.0000      -1.179248       -32.0890 
  21   1.0000      -1.178174       -32.0598 
  22   1.0000      -1.132827       -30.8258 
  23   1.0000      -1.105164       -30.0731 
  24   1.0000      -1.060518       -28.8582 
  25   1.0000      -1.045375       -28.4461 
  26   1.0000      -0.956299       -26.0222 
  27   1.0000      -0.951402       -25.8890 
  28   1.0000      -0.856604       -23.3094 
  29   1.0000      -0.837618       -22.7927 
  30   1.0000      -0.810314       -22.0498 
  31   1.0000      -0.802346       -21.8330 
  32   1.0000      -0.776099       -21.1187 
  33   1.0000      -0.774478       -21.0746 
  34   1.0000      -0.694744       -18.9049 
  35   1.0000      -0.683031       -18.5862 
  36   1.0000      -0.681012       -18.5313 
  37   1.0000      -0.675153       -18.3718 
  38   1.0000      -0.654277       -17.8038 
  39   1.0000      -0.628402       -17.0997 
  40   1.0000      -0.620544       -16.8859 
  41   1.0000      -0.597349       -16.2547 
  42   1.0000      -0.590554       -16.0698 
  43   1.0000      -0.589471       -16.0403 
  44   1.0000      -0.570347       -15.5199 
  45   1.0000      -0.566626       -15.4187 
  46   1.0000      -0.558160       -15.1883 
  47   1.0000      -0.551916       -15.0184 
  48   1.0000      -0.547591       -14.9007 
  49   1.0000      -0.538479       -14.6528 
  50   1.0000      -0.524527       -14.2731 
  51   1.0000      -0.512658       -13.9501 
  52   1.0000      -0.508509       -13.8372 
  53   1.0000      -0.497398       -13.5349 
  54   1.0000      -0.493351       -13.4248 
  55   1.0000      -0.483007       -13.1433 
  56   1.0000      -0.479162       -13.0387 
  57   1.0000      -0.440839       -11.9958 
  58   1.0000      -0.422646       -11.5008 
  59   1.0000      -0.420793       -11.4504 
  60   1.0000      -0.396665       -10.7938 
  61   1.0000      -0.384080       -10.4514 
  62   1.0000      -0.380077       -10.3424 
  63   1.0000      -0.377277       -10.2662 
  64   1.0000      -0.332152        -9.0383 
  65   0.0000      -0.108508        -2.9527 
  66   0.0000       0.007591         0.2066 
  67   0.0000       0.012147         0.3305 
  68   0.0000       0.025071         0.6822 
  69   0.0000       0.035897         0.9768 
  70   0.0000       0.037982         1.0336 
  71   0.0000       0.047425         1.2905 
  72   0.0000       0.055069         1.4985 
  73   0.0000       0.059385         1.6160 
  74   0.0000       0.061299         1.6680 
  75   0.0000       0.063676         1.7327 
*Only the first 10 virtual orbitals were printed.

                    ********************************
                    * MULLIKEN POPULATION ANALYSIS *
                    ********************************

--------------------------------------------
MULLIKEN ATOMIC CHARGES AND SPIN POPULATIONS
--------------------------------------------
   0 O :   -0.700536   -0.000656
   1 O :   -0.651175    0.255642
   2 O :   -0.604601    0.001571
   3 O :   -0.642654    0.073132
   4 N :    0.024765    0.003471
   5 N :    0.076860    0.157865
   6 N :    0.093990    0.000851
   7 N :   -0.004285    0.044944
   8 C :    0.724018    0.005677
   9 C :    0.865931    0.325945
  10 C :   -0.201258    0.024826
  11 C :   -0.673000    0.859495
  12 C :   -1.257070   -0.017504
  13 C :   -1.151490    0.053601
  14 C :    0.259344    0.010521
  15 C :    0.450743    0.215897
  16 C :    0.388204   -0.002354
  17 C :    0.400412   -0.026893
  18 H :    0.279131    0.004199
  19 H :    0.301312   -0.022932
  20 H :    0.244914   -0.001137
  21 H :    0.309532    0.002819
  22 H :    0.378892    0.003463
  23 H :    0.242430    0.001994
  24 H :    0.380521    0.036047
  25 H :    0.273932    0.008343
  26 H :    0.093888    0.000090
  27 H :    0.044479   -0.015836
  28 H :   -0.002707    0.000027
  29 H :    0.055478   -0.003107
Sum of atomic charges         :   -0.0000000
Sum of atomic spin populations:    2.0000000

-----------------------------------------------------
[...]
[1739914528.973919] [ohm:500165:0]        ib_iface.c:1059 UCX  ERROR ibv_create_cq(cqe=256) failed: Connection timed out
[1739914528.974411] [ohm:500149:0]        ib_iface.c:1059 UCX  ERROR ibv_create_cq(cqe=256) failed: Connection timed out
[1739914528.976412] [ohm:500227:0]        ib_iface.c:1059 UCX  ERROR ibv_create_cq(cqe=256) failed: Connection timed out
[1739914528.978549] [ohm:500255:0]        ib_iface.c:1059 UCX  ERROR ibv_create_cq(cqe=256) failed: Connection timed out
[1739914528.980606] [ohm:500160:0]        ib_iface.c:1059 UCX  ERROR ibv_create_cq(cqe=256) failed: Connection timed out
[1739914528.981111] [ohm:500161:0]        ib_iface.c:1059 UCX  ERROR ibv_create_cq(cqe=256) failed: Connection timed out
[1739914528.982231] [ohm:500151:0]        ib_iface.c:1059 UCX  ERROR ibv_create_cq(cqe=256) failed: Connection timed out
[1739914528.983493] [ohm:500202:0]        ib_iface.c:1059 UCX  ERROR ibv_create_cq(cqe=256) failed: Connection timed out
[1739914528.983805] [ohm:500170:0]        ib_iface.c:1059 UCX  ERROR ibv_create_cq(cqe=256) failed: Connection timed out
[1739914528.984813] [ohm:500181:0]        ib_iface.c:1059 UCX  ERROR ibv_create_cq(cqe=256) failed: Connection timed out
[1739914528.984945] [ohm:500158:0]        ib_iface.c:1059 UCX  ERROR ibv_create_cq(cqe=256) failed: Connection timed out


           ************************************************************
           *        Program running with 64 parallel MPI-processes    *
           *              working on a common directory               *
           ************************************************************

------------------------------------------------------------------------------
                              ORCA PROPERTY CALCULATIONS
------------------------------------------------------------------------------

GBWName                                 ... orca.gbw
Number of atoms                         ...     30
Number of basis functions               ...    882
Max core memory                         ...   1024 MB

Electric properties:
Dipole moment                           ... YES
Quadrupole moment                       ...  NO
Static polarizability (Dipole/Dipole)   ...  NO
Static polarizability (Dipole/Quad.)    ...  NO
Static polarizability (Quad./Quad.)     ...  NO
Static polarizability (Velocity)        ...  NO

Atomic electric properties:
Dipole moment                           ...  NO
Quadrupole moment                       ...  NO
Static polarizability                   ...  NO

Choice of electric origin               ... Center of mass
Position of electric origin             ...     0.078962     0.008994     0.149029

General magnetic properties:
Magnetizability                         ...  NO

EPR properties:
g-Tensor (aka g-matrix)                 ...  NO
Zero-Field splitting spin-orbit         ...  NO
Zero-field splitting spin-spin          ...  NO
Hyperfine couplings                     ...  NO (   0 nuclei)
Quadrupole couplings                    ...  NO (   0 nuclei)
Contact density                         ...  NO (   0 nuclei)

NMR properties:
Chemical shifts                         ...  NO (   0 nuclei)
Spin-rotation constants                 ...  NO (   0 nuclei)
Spin-spin couplings                     ...  NO (   0 nuclei,    0 pairs)

Choice of magnetic origin               ... GIAO
Position of magnetic origin             ...     0.000000     0.000000     0.000000

Properties with geometric perturbations:
SCF Hessian                             ...  NO
IR spectrum                             ...  NO
VCD spectrum                            ...  NO
X-ray spectroscopy properties:
SCF XES/XAS/RIXS spectra                ...  NO


-------------
DIPOLE MOMENT
-------------

Method             : SCF
Type of density    : Electron Density
Multiplicity       :   3
Irrep              :   0
Energy             :  -908.6970172253314786 Eh
Relativity type    : 
Basis              : AO
                                X                 Y                 Z
Electronic contribution:     -2.669904939      -8.722644744      -5.567028607
Nuclear contribution   :      2.096840093       9.364587400       7.443408412
                        -----------------------------------------
Total Dipole Moment    :     -0.573064846       0.641942656       1.876379805
                        -----------------------------------------
Magnitude (a.u.)       :      2.064290402
Magnitude (Debye)      :      5.247009215



--------------------
Rotational spectrum 
--------------------
 
Rotational constants in cm-1:             0.018524             0.013185             0.011923 
Rotational constants in MHz :           555.329117           395.275174           357.439373 

Dipole components along the rotational axes: 
x,y,z [a.u.] :    -0.911972     1.134514    -1.463721 
x,y,z [Debye]:    -2.318048     2.883705    -3.720484 

 

-------------
DIPOLE MOMENT
-------------

Method             : TDA/CIS
Type of density    : Electron Density
Level              : Relaxed density
State              :   2
Multiplicity       :   3
Irrep              :   0
Energy             :     0.0000000000000000 Eh
Relativity type    : 
Basis              : AO
                                X                 Y                 Z
Electronic contribution:     -2.686308794      -8.759460733      -5.453085371
Nuclear contribution   :      2.096840093       9.364587400       7.443408412
                        -----------------------------------------
Total Dipole Moment    :     -0.589468700       0.605126668       1.990323040
                        -----------------------------------------
Magnitude (a.u.)       :      2.162183488
Magnitude (Debye)      :      5.495833666



--------------------
Rotational spectrum 
--------------------
 
Rotational constants in cm-1:             0.018524             0.013185             0.011923 
Rotational constants in MHz :           555.329117           395.275174           357.439373 

Dipole components along the rotational axes: 
x,y,z [a.u.] :    -0.936707     1.137969    -1.581974 
x,y,z [Debye]:    -2.380921     2.892488    -4.021060 

 

Dipole moment calculation done in   0.2 sec 

Maximum memory used throughout the entire PROP-calculation: 81.3 MB
[1739914531.390302] [ohm:500486:0]        ib_iface.c:1059 UCX  ERROR ibv_create_cq(cqe=256) failed: Connection timed out
[1739914531.411285] [ohm:500490:0]        ib_iface.c:1059 UCX  ERROR ibv_create_cq(cqe=256) failed: Connection timed out
[1739914531.419489] [ohm:500492:0]        ib_iface.c:1059 UCX  ERROR ibv_create_cq(cqe=256) failed: Connection timed out
[1739914531.421125] [ohm:500501:0]        ib_iface.c:1059 UCX  ERROR ibv_create_cq(cqe=256) failed: Connection timed out
[1739914531.428924] [ohm:500488:0]        ib_iface.c:1059 UCX  ERROR ibv_create_cq(cqe=256) failed: Connection timed out
[1739914531.429432] [ohm:500487:0]        ib_iface.c:1059 UCX  ERROR ibv_create_cq(cqe=256) failed: Connection timed out
[1739914531.432142] [ohm:500489:0]        ib_iface.c:1059 UCX  ERROR ibv_create_cq(cqe=256) failed: Connection timed out
[1739914531.473516] [ohm:500523:0]        ib_iface.c:1059 UCX  ERROR ibv_create_cq(cqe=256) failed: Connection timed out
[1739914531.479698] [ohm:500504:0]        ib_iface.c:1059 UCX  ERROR ibv_create_cq(cqe=256) failed: Connection timed out
[1739914531.483898] [ohm:500491:0]        ib_iface.c:1059 UCX  ERROR ibv_create_cq(cqe=256) failed: Connection timed out
[1739914531.485353] [ohm:500557:0]        ib_iface.c:1059 UCX  ERROR ibv_create_cq(cqe=256) failed: Connection timed out
[1739914531.502365] [ohm:500580:0]        ib_iface.c:1059 UCX  ERROR ibv_create_cq(cqe=256) failed: Connection timed out
[1739914531.503695] [ohm:500606:0]        ib_iface.c:1059 UCX  ERROR ibv_create_cq(cqe=256) failed: Connection timed out
[1739914531.510086] [ohm:500593:0]        ib_iface.c:1059 UCX  ERROR ibv_create_cq(cqe=256) failed: Connection timed out
[1739914531.510649] [ohm:500609:0]        ib_iface.c:1059 UCX  ERROR ibv_create_cq(cqe=256) failed: Connection timed out
[1739914531.510821] [ohm:500575:0]        ib_iface.c:1059 UCX  ERROR ibv_create_cq(cqe=256) failed: Connection timed out
[1739914531.517249] [ohm:500529:0]        ib_iface.c:1059 UCX  ERROR ibv_create_cq(cqe=256) failed: Connection timed out
[1739914531.524379] [ohm:500571:0]        ib_iface.c:1059 UCX  ERROR ibv_create_cq(cqe=256) failed: Connection timed out
[1739914531.534466] [ohm:500502:0]        ib_iface.c:1059 UCX  ERROR ibv_create_cq(cqe=256) failed: Connection timed out
[1739914531.540343] [ohm:500563:0]        ib_iface.c:1059 UCX  ERROR ibv_create_cq(cqe=256) failed: Connection timed out
[1739914531.540602] [ohm:500496:0]        ib_iface.c:1059 UCX  ERROR ibv_create_cq(cqe=256) failed: Connection timed out
[1739914531.549906] [ohm:500555:0]        ib_iface.c:1059 UCX  ERROR ibv_create_cq(cqe=256) failed: Connection timed out
[1739914531.550993] [ohm:500603:0]        ib_iface.c:1059 UCX  ERROR ibv_create_cq(cqe=256) failed: Connection timed out
[1739914531.577050] [ohm:500495:0]        ib_iface.c:1059 UCX  ERROR ibv_create_cq(cqe=256) failed: Connection timed out
[1739914531.580747] [ohm:500503:0]        ib_iface.c:1059 UCX  ERROR ibv_create_cq(cqe=256) failed: Connection timed out
[1739914531.597598] [ohm:500626:0]        ib_iface.c:1059 UCX  ERROR ibv_create_cq(cqe=256) failed: Connection timed out
[1739914531.603811] [ohm:500516:0]        ib_iface.c:1059 UCX  ERROR ibv_create_cq(cqe=256) failed: Connection timed out
[1739914531.613778] [ohm:500585:0]        ib_iface.c:1059 UCX  ERROR ibv_create_cq(cqe=256) failed: Connection timed out
[1739914531.618274] [ohm:500511:0]        ib_iface.c:1059 UCX  ERROR ibv_create_cq(cqe=256) failed: Connection timed out
[1739914531.620233] [ohm:500622:0]        ib_iface.c:1059 UCX  ERROR ibv_create_cq(cqe=256) failed: Connection timed out
[1739914531.623341] [ohm:500538:0]        ib_iface.c:1059 UCX  ERROR ibv_create_cq(cqe=256) failed: Connection timed out
[1739914531.628876] [ohm:500515:0]        ib_iface.c:1059 UCX  ERROR ibv_create_cq(cqe=256) failed: Connection timed out
[1739914531.635896] [ohm:500493:0]        ib_iface.c:1059 UCX  ERROR ibv_create_cq(cqe=256) failed: Connection timed out
[1739914531.635909] [ohm:500510:0]        ib_iface.c:1059 UCX  ERROR ibv_create_cq(cqe=256) failed: Connection timed out
[1739914531.641446] [ohm:500500:0]        ib_iface.c:1059 UCX  ERROR ibv_create_cq(cqe=256) failed: Connection timed out
[1739914531.644903] [ohm:500498:0]        ib_iface.c:1059 UCX  ERROR ibv_create_cq(cqe=256) failed: Connection timed out
[1739914531.660861] [ohm:500582:0]        ib_iface.c:1059 UCX  ERROR ibv_create_cq(cqe=256) failed: Connection timed out
[1739914531.661851] [ohm:500494:0]        ib_iface.c:1059 UCX  ERROR ibv_create_cq(cqe=256) failed: Connection timed out
[1739914531.662200] [ohm:500507:0]        ib_iface.c:1059 UCX  ERROR ibv_create_cq(cqe=256) failed: Connection timed out
[1739914531.670040] [ohm:500629:0]        ib_iface.c:1059 UCX  ERROR ibv_create_cq(cqe=256) failed: Connection timed out
[1739914531.671203] [ohm:500509:0]        ib_iface.c:1059 UCX  ERROR ibv_create_cq(cqe=256) failed: Connection timed out
[1739914531.675184] [ohm:500619:0]        ib_iface.c:1059 UCX  ERROR ibv_create_cq(cqe=256) failed: Connection timed out
[1739914531.675474] [ohm:500540:0]        ib_iface.c:1059 UCX  ERROR ibv_create_cq(cqe=256) failed: Connection timed out
[1739914531.675984] [ohm:500497:0]        ib_iface.c:1059 UCX  ERROR ibv_create_cq(cqe=256) failed: Connection timed out
[1739914531.683200] [ohm:500614:0]        ib_iface.c:1059 UCX  ERROR ibv_create_cq(cqe=256) failed: Connection timed out
[1739914531.686575] [ohm:500506:0]        ib_iface.c:1059 UCX  ERROR ibv_create_cq(cqe=256) failed: Connection timed out
[1739914531.687398] [ohm:500499:0]        ib_iface.c:1059 UCX  ERROR ibv_create_cq(cqe=256) failed: Connection timed out
[1739914531.687428] [ohm:500505:0]        ib_iface.c:1059 UCX  ERROR ibv_create_cq(cqe=256) failed: Connection timed out
[1739914531.692446] [ohm:500508:0]        ib_iface.c:1059 UCX  ERROR ibv_create_cq(cqe=256) failed: Connection timed out
[1739914531.708231] [ohm:500611:0]        ib_iface.c:1059 UCX  ERROR ibv_create_cq(cqe=256) failed: Connection timed out
[1739914531.711464] [ohm:500545:0]        ib_iface.c:1059 UCX  ERROR ibv_create_cq(cqe=256) failed: Connection timed out
[1739914531.711823] [ohm:500550:0]        ib_iface.c:1059 UCX  ERROR ibv_create_cq(cqe=256) failed: Connection timed out
[1739914531.713014] [ohm:500595:0]        ib_iface.c:1059 UCX  ERROR ibv_create_cq(cqe=256) failed: Connection timed out
[1739914531.715483] [ohm:500589:0]        ib_iface.c:1059 UCX  ERROR ibv_create_cq(cqe=256) failed: Connection timed out
[1739914531.715961] [ohm:500618:0]        ib_iface.c:1059 UCX  ERROR ibv_create_cq(cqe=256) failed: Connection timed out
[1739914531.719902] [ohm:500532:0]        ib_iface.c:1059 UCX  ERROR ibv_create_cq(cqe=256) failed: Connection timed out
[1739914531.720610] [ohm:500547:0]        ib_iface.c:1059 UCX  ERROR ibv_create_cq(cqe=256) failed: Connection timed out
[1739914531.721932] [ohm:500521:0]        ib_iface.c:1059 UCX  ERROR ibv_create_cq(cqe=256) failed: Connection timed out
[1739914531.722093] [ohm:500513:0]        ib_iface.c:1059 UCX  ERROR ibv_create_cq(cqe=256) failed: Connection timed out
[1739914531.722333] [ohm:500512:0]        ib_iface.c:1059 UCX  ERROR ibv_create_cq(cqe=256) failed: Connection timed out
[1739914531.724167] [ohm:500536:0]        ib_iface.c:1059 UCX  ERROR ibv_create_cq(cqe=256) failed: Connection timed out
[1739914531.726314] [ohm:500567:0]        ib_iface.c:1059 UCX  ERROR ibv_create_cq(cqe=256) failed: Connection timed out
[1739914531.730730] [ohm:500599:0]        ib_iface.c:1059 UCX  ERROR ibv_create_cq(cqe=256) failed: Connection timed out
[1739914531.730780] [ohm:500587:0]        ib_iface.c:1059 UCX  ERROR ibv_create_cq(cqe=256) failed: Connection timed out

--------------------------------
SUGGESTED CITATIONS FOR THIS RUN
--------------------------------

Below you find a list of papers that are relevant to this ORCA run
We neither can nor want to force you to cite these papers, but we appreciate if you do
You receive ORCA, which is the product of decades of hard work by many enthusiastic individuals, for free
The only thing we kindly ask in return is that you cite our papers,
We deeply appreciate it, if you show your appreciation for ORCA by not just citing the generic ORCA reference.

Please note that relegating all ORCA citations to the supporting information does *not* help us.
SI sections are not indexed - citations you put there will not count into any citation statistics
But we need these citations in order to attract the funding resources that allow us to do what we are doing

Therefore, if you are a happy ORCA user, please consider citing a few of the papers listed below in the main body of your paper

In addition to the list printed below, the program has created the file orca.bibtex that contains the list in bibtex format
You can import this file easily into all common literature databanks and citation aid programs


List of essential papers. We consider these as the minimum necessary citations

  1. Neese,F.
     Software update: the ORCA program system, version 5.0
     WIRES Comput. Molec. Sci., 2022 12(1)e1606
     doi.org/10.1002/wcms.1606

List of papers to cite with high priority. The work reported in these papers was absolutely
necessary for this run to complete.
Our perspective: the developers of density functionals and basis sets usually get cited in chemistry papers
Good! But without the algorithms to do something with them, the functionals or basis sets would not do anything.
Hence, in our opinion, the algorithm design and method developments papers are equally worthy of getting cited

  1. Neese,F.; Olbrich,G.
     Efficient use of the resolution of the identity approximation in time-dependent density functional calculations with hybrid density functionals
     Chem. Phys. Lett., 2002 362 170-178
     doi.org/10.1016/s0009-2614(02)01053-9
  2. Neese,F.
     An improvement of the resolution of the identity approximation for the formation of the Coulomb matrix
     J. Comp. Chem., 2003 24(14)1740-1747
     doi.org/10.1002/jcc.10318
  3. Neese,F.; Wennmohs,F.; Hansen,A.; Becker,U.
     Efficient, approximate and parallel Hartree-Fock and hybrid DFT calculations. A 'chain-of-spheres' algorithm for the Hartree-Fock exchange
     Chem. Phys., 2009 356(1-3)98-109
     doi.org/10.1016/j.chemphys.2008.10.036
  4. Petrenko,T.; Kossmann,S.; Neese,F.
     Efficient time-dependent density functional theory approximations for hybrid density functionals: Analytical gradients and parallelization
     J. Chem. Phys., 2011 134 054116
     doi.org/10.1063/1.3533441
  5. Helmich-Paris,B.; de Souza,B.; Neese,F.; Izsák,R.
     An improved chain of spheres for exchange algorithm
     J. Chem. Phys., 2021 155 104109
     doi.org/doi: 10.1063/5.0058766.
  6. Neese,F.
     The SHARK Integral Generation and Digestion System
     J. Comp. Chem., 2022  1-16
     doi.org/10.1002/jcc.26942
  7. Lehtola,S.; Steigemann,C.; Oliveira,M.; Marques,M.
     Recent developments in Libxc - A comprehensive library of functionals for density functional theory
     Software X, 2018 7 
     doi.org/10.1016/j.softx.2017.11.002
  8. Grimme,S.; Antony,J.; Ehrlich,S.; Krieg,H.
     A consistent and accurate ab initio parametrization of density functional dispersion correction (DFT-D) for the 94 elements H-Pu
     J. Chem. Phys., 2010 132 154104-XXXX
     doi.org/10.1063/1.3382344
  9. Grimme,S.; Ehrlich,S.; Goerigk,L.
     Effect of the damping function in dispersion corrected density functional theory
     J. Comput. Chem., 2011 32(7)1456-1465
     doi.org/10.1002/jcc.21759

List of suggested additional citations. These are papers that are important in the 'surrounding' of 
of this run, or papers that preceded the highly important papers. If you like your results we are grateful for a citation.

  1. Izsak,R.; Neese,F.
     An overlap fitted chain of spheres exchange method
     J. Chem. Phys., 2011 135 144105
     doi.org/10.1063/1.3646921
  2. Izsak,R.; Hansen,A.; Neese,F.
     The resolution of identity and chain of spheres approximations for the LPNO-CCSD singles Fock term
     Molec. Phys., 2012 110 2413-2417
     doi.org/10.1080/00268976.2012.687466
  3. Neese,F.
     The ORCA program system
     WIRES Comput. Molec. Sci., 2012 2(1)73-78
     doi.org/10.1002/wcms.81
  4. Izsak,R.; Neese,F.; Klopper,W.
     Robust fitting techniques in the chain of spheres approximation to the Fock exchange: The role of the complementary space
     J. Chem. Phys., 2013 139 
     doi.org/10.1063/1.4819264
  5. Neese,F.
     Software update: the ORCA program system, version 4.0
     WIRES Comput. Molec. Sci., 2018 8(1)1-6
     doi.org/10.1002/wcms.1327
  6. Neese,F.; Wennmohs,F.; Becker,U.; Riplinger,C.
     The ORCA quantum chemistry program package
     J. Chem. Phys., 2020 152 Art. No. L224108
     doi.org/10.1063/5.0004608

List of optional additional citations

  1. Neese,F.
     Approximate second-order SCF convergence for spin unrestricted wavefunctions
     Chem. Phys. Lett., 2000 325(1-3)93-98
     doi.org/10.1016/s0009-2614(00)00662-x

Timings for individual modules:

Sum of individual times          ...      324.446 sec (=   5.407 min)
Startup calculation              ...        6.411 sec (=   0.107 min)   2.0 %
SCF iterations                   ...      163.464 sec (=   2.724 min)  50.4 %
Property integrals               ...        4.320 sec (=   0.072 min)   1.3 %
Property calculations            ...        2.853 sec (=   0.048 min)   0.9 %
CIS module                       ...      147.398 sec (=   2.457 min)  45.4 %
                             ****ORCA TERMINATED NORMALLY****
TOTAL RUN TIME: 0 days 0 hours 5 minutes 26 seconds 453 msec
