7
Properties=species:S:1:pos:R:3:momenta:R:3:forces:R:3 Coordinates=T from=T ORCA-job=T orca=T E=T -153.889589183604=T energy=-4182.3735026610675 free_energy=-4182.3735026610675 stress="-1.2346200955689934e-05 -1.3106499284914663e-05 1.7555851261123784e-06 -1.3106499284914663e-05 -7.135370699623351e-07 1.5987548573134863e-06 1.7555851261123784e-06 1.5987548573134863e-06 1.9840892377825497e-05" pbc="F F F"
O        0.06185604       1.09010500       0.06107319      -0.37229170      -1.68916669      -0.44328498       1.36732190      -0.23673342      -0.04046254
C        0.62841440      -0.49868735      -0.12806277      -0.94477270       1.69669539       0.11492980       0.11356385       2.58795991      -0.97509336
C       -0.69163323      -0.77397562       0.07720936       0.23680823       0.21237927       0.20344562      -4.05416741      -2.60349896      -0.05518772
H        1.36329674      -0.65678217       0.61424078       0.29394895      -0.08831405      -0.16492728       0.68187367       0.06945640       0.48500392
H        0.95557252      -0.41805831      -1.16333544       0.33652793      -0.25025889       0.22613425       0.47021284      -0.25335860       0.30917091
H       -1.34825518      -0.88985138      -0.91158105       0.11143273       0.04877320      -0.05847862       0.78391673       0.30079743       2.17823998
H       -1.15435640      -0.82637964       1.13728487       0.33834655       0.06989176       0.12218121       0.63727841       0.13537723      -1.90167119
