
                                 *****************
                                 * O   R   C   A *
                                 *****************

                                            #,                                       
                                            ###                                      
                                            ####                                     
                                            #####                                    
                                            ######                                   
                                           ########,                                 
                                     ,,################,,,,,                         
                               ,,#################################,,                 
                          ,,##########################################,,             
                       ,#########################################, ''#####,          
                    ,#############################################,,   '####,        
                  ,##################################################,,,,####,       
                ,###########''''           ''''###############################       
              ,#####''   ,,,,##########,,,,          '''####'''          '####       
            ,##' ,,,,###########################,,,                        '##       
           ' ,,###''''                  '''############,,,                           
         ,,##''                                '''############,,,,        ,,,,,,###''
      ,#''                                            '''#######################'''  
     '                                                          ''''####''''         
             ,#######,   #######,   ,#######,      ##                                
            ,#'     '#,  ##    ##  ,#'     '#,    #''#        ,####,   ,####,        
            ##       ##  ##   ,#'  ##            #'  '#       #'       #'  '#        
            ##       ##  #######   ##           ,######,      #####,   #    #        
            '#,     ,#'  ##    ##  '#,     ,#' ,#      #,     #,   #   #,  ,#        
             '#######'   ##     ##  '#######'  #'      '#     '####' # '####'        



                #########################################################
                #                        -***-                          #
                #          Department of theory and spectroscopy        #
                #                                                       #
                #                      Frank Neese                      #
                #                                                       #
                #     Directorship, Architecture, Infrastructure        #
                #                    SHARK, DRIVERS                     #
                #        Core code/Algorithms in most modules           #
                #                                                       #
                #        Max Planck Institute fuer Kohlenforschung      #
                #                Kaiser Wilhelm Platz 1                 #
                #                 D-45470 Muelheim/Ruhr                 #
                #                      Germany                          #
                #                                                       #
                #                  All rights reserved                  #
                #                        -***-                          #
                #########################################################


                         Program Version 6.0.0  -   RELEASE  -


 With contributions from (in alphabetic order):
   Daniel Aravena         : Magnetic Suceptibility
   Michael Atanasov       : Ab Initio Ligand Field Theory (pilot matlab implementation)
   Alexander A. Auer      : GIAO ZORA, VPT2 properties, NMR spectrum
   Ute Becker             : All parallelization in ORCA, NUMFREQ, NUMCALC
   Giovanni Bistoni       : ED, misc. LED, open-shell LED, HFLD
   Martin Brehm           : Molecular dynamics
   Dmytro Bykov           : pre 5.0 version of the SCF Hessian
   Marcos Casanova-Páez   : Triplet and SCS-CIS(D). UHF-(DLPNO)-IP/EA/STEOM-CCSD. UHF-CVS-IP/STEOM-CCSD
   Vijay G. Chilkuri      : MRCI spin determinant printing, contributions to CSF-ICE
   Pauline Colinet        : FMM embedding
   Dipayan Datta          : RHF DLPNO-CCSD density
   Achintya Kumar Dutta   : EOM-CC, STEOM-CC
   Nicolas Foglia         : Exact transition moments, OPA infrastructure, MCD improvements
   Dmitry Ganyushin       : Spin-Orbit,Spin-Spin,Magnetic field MRCI
   Miquel Garcia          : C-PCM and meta-GGA Hessian, CCSD/C-PCM, Gaussian charge scheme
   Tiago L. C. Gouveia    : GS-ROHF, GS-ROCIS
   Yang Guo               : DLPNO-NEVPT2, F12-NEVPT2, CIM, IAO-localization
   Andreas Hansen         : Spin unrestricted coupled pair/coupled cluster methods
   Ingolf Harden          : AUTO-CI MPn and infrastructure 
   Benjamin Helmich-Paris : MC-RPA, TRAH-(SCF,CASSCF), AVAS, COSX integrals, SCF dyn. polar.
   Lee Huntington         : MR-EOM, pCC
   Robert Izsak           : Overlap fitted RIJCOSX, COSX-SCS-MP3, EOM
   Riya Kayal             : Wick's Theorem for AUTO-CI, AUTO-CI UHF-CCSDT
   Emily Kempfer          : AUTO-CI, RHF CISDT and CCSDT
   Christian Kollmar      : KDIIS, OOCD, Brueckner-CCSD(T), CCSD density, CASPT2, CASPT2-K, improved NEVPT2
   Axel Koslowski         : Symmetry handling
   Simone Kossmann        : Meta GGA functionals, TD-DFT gradient, OOMP2, (MP2 Hessian; deprecated post 5.0)
   Lucas Lang             : DCDCAS
   Marvin Lechner         : AUTO-CI (C++ implementation), FIC-MRCC
   Spencer Leger          : CASSCF response
   Dagmar Lenk            : GEPOL surface, SMD, ORCA-2-JSON
   Dimitrios Liakos       : Extrapolation schemes; Compound Job, initial MDCI parallelization
   Dimitrios Manganas     : Further ROCIS development; embedding schemes. LFT, Crystal Embedding
   Dimitrios Pantazis     : SARC Basis sets
   Anastasios Papadopoulos: AUTO-CI, single reference methods and gradients
   Taras Petrenko         : pre 6.0 DFT Hessian and TD-DFT gradient, (ASA, deprecated), ECA, 1-Electron XAS/XES, NRVS
   Peter Pinski           : DLPNO-MP2, DLPNO-MP2 Gradient
   Christoph Reimann      : Effective Core Potentials
   Marius Retegan         : Local ZFS, SOC
   Christoph Riplinger    : Optimizer, TS searches, QM/MM, DLPNO-CCSD(T), (RO)-DLPNO pert. Triples
   Michael Roemelt        : Original ROCIS implementation
   Masaaki Saitow         : Open-shell DLPNO-CCSD energy and density
   Barbara Sandhoefer     : DKH picture change effects
   Kantharuban Sivalingam : CASSCF convergence/infrastructure, NEVPT2 and variants, FIC-MRCI
   Bernardo de Souza      : ESD, SOC TD-DFT
   Georgi Stoychev        : AutoAux, RI-MP2 NMR, DLPNO-MP2 response, X2C
   Van Anh Tran           : RI-MP2 g-tensors
   Willem Van den Heuvel  : Paramagnetic NMR
   Zikuan Wang            : NOTCH, Electric field optimization 
   Frank Wennmohs         : Technical directorship and infrastructure
   Hang Xu                : AUTO-CI-Response properties 


 We gratefully acknowledge several colleagues who have allowed us to
 interface, adapt or use parts of their codes:
   Stefan Grimme, W. Hujo, H. Kruse, P. Pracht,  : VdW corrections, initial TS optimization,
                  C. Bannwarth, S. Ehlert,         DFT functionals, gCP, sTDA/sTD-DF
                  L. Wittmann, M. Mueller
   Ed Valeev, F. Pavosevic, A. Kumar             : LibInt (2-el integral package), F12 methods
   Garnet Chan, S. Sharma, J. Yang, R. Olivares  : DMRG
   Ulf Ekstrom                                   : XCFun DFT Library
   Mihaly Kallay                                 : mrcc  (arbitrary order and MRCC methods)
   Frank Weinhold                                : gennbo (NPA and NBO analysis)
   Simon Mueller                                 : openCOSMO-RS
   Christopher J. Cramer and Donald G. Truhlar   : smd solvation model
   Lars Goerigk                                  : TD-DFT with DH, B97 family of functionals
   V. Asgeirsson, H. Jonsson                     : NEB implementation
   FAccTs GmbH                                   : IRC, NEB, NEB-TS, DLPNO-Multilevel, CI-OPT
                                                   MM, QMMM, 2- and 3-layer-ONIOM, Crystal-QMMM,
                                                   LR-CPCM, SF, NACMEs, symmetry and pop. for TD-DFT,
                                                   nearIR, NL-DFT gradient (VV10), updates on ESD,
                                                   ML-optimized integration grids, MBIS, APM,
                                                   GOAT, DOCKER, SOLVATOR, interface openCOSMO-RS
   S Lehtola, MJT Oliveira, MAL Marques          : LibXC Library
   Liviu Ungur et al                             : ANISO software


 Your calculation uses the libint2 library for the computation of 2-el integrals
 For citations please refer to: http://libint.valeyev.net

 Your ORCA version has been built with support for libXC version: 6.2.2
 For citations please refer to: https://libxc.gitlab.io

 This ORCA versions uses:
   CBLAS   interface :  Fast vector & matrix operations
   LAPACKE interface :  Fast linear algebra routines
   SCALAPACK package :  Parallel linear algebra routines
   Shared memory     :  Shared parallel matrices
   BLAS/LAPACK       :  OpenBLAS 0.3.27  USE64BITINT DYNAMIC_ARCH NO_AFFINITY Zen SINGLE_THREADED
        Core in use  :  Zen
   Copyright (c) 2011-2014, The OpenBLAS Project


Your calculation utilizes the atom-pairwise dispersion correction
with the Becke-Johnson damping scheme (D3BJ)


Warning: RI is on but no J-basis has been assigned. Assigning Def2/J (nothing to worry about!)
================================================================================

----- Orbital basis set information -----
Your calculation utilizes the basis: def2-TZVPPD
   F. Weigend and R. Ahlrichs, Phys. Chem. Chem. Phys. 7, 3297 (2005).
   D. Rappoport and F. Furche, J. Chem. Phys. 133, 134105 (2010)
   D. Rappoport, J. Chem. Phys. 155, 124102 (2021).

----- AuxJ basis set information -----
Your calculation utilizes the auxiliary basis: def2/J
   F. Weigend, Phys. Chem. Chem. Phys. 8, 1057 (2006).

================================================================================
                                        WARNINGS
                       Please study these warnings very carefully!
================================================================================

Using LibXC functional ID 531 : wB97M-V exchange-correlation functional
[ 1]  N. Mardirossian and M. Head-Gordon.,  J. Chem. Phys. 144, 214110 (2016)
Using LibXC functional ID 531 : wB97M-V exchange-correlation functional
[ 1]  N. Mardirossian and M. Head-Gordon.,  J. Chem. Phys. 144, 214110 (2016)

WARNING: B97M-V or wB97M-V functional requested.
  ===> : libXC variant has now been activated.
         Any manually given DFX/HFX/RangeSep scaling parameters are IGNORED!

Your calculation utilizes LibXC
 by S Lehtola, C Steigemann, MJT Oliveira & MAL Marques
Please cite in your paper:
 S Lehtola, C Steigemann, MJT Oliveira & MAL Marques, SoftwareX, 7, (2018), 1.
   


WARNING: your system is open-shell and RHF/RKS was chosen
  ===> : WILL SWITCH to UHF/UKS

INFO   : Checking CIS options ...

WARNING: CIS/ROCIS methods need fully converged wavefunctions
  ===> : Setting SCFConvForced true
         You can overwrite this default with %scf ConvForced false 


================================================================================
                                       INPUT FILE
================================================================================
NAME = orca.inp
|  1> ! Engrad def2-TZVPPD wB97M-D3BJ 
|  2> %pal nprocs 8 end%pal nprocs 64 end 
|  3> %tddft Nroots 2 Iroot 2 
|  4> sf true 
|  5> end 
|  6> *xyz 0 3 
|  7> O   2.39512434 1.23123082 -0.48243399
|  8> O   -0.57123912 0.74021304 -2.38564415
|  9> O   0.74690237 -2.92241945 -1.33565707
| 10> O   -2.52170113 -1.59407215 0.92228677
| 11> N   0.47722912 -2.05915842 0.73839293
| 12> N   -1.86854923 0.55096633 1.40884406
| 13> N   1.64304723 -0.9085062 -0.86368488
| 14> N   -1.62977391 -0.25046802 -0.69452649
| 15> C   1.52397848 -0.01250013 1.32589861
| 16> C   -0.73650501 1.91580413 -0.3097998
| 17> C   0.79891558 -1.14907258 1.65937512
| 18> C   -1.24609272 1.71116358 0.97114948
| 19> C   1.74707777 1.12634529 2.30384587
| 20> C   -0.36743032 3.24643933 -0.85634563
| 21> C   1.90728006 0.19909564 -0.04212365
| 22> C   -0.91987423 0.83043478 -1.2376527
| 23> C   0.98059805 -2.05564401 -0.54962679
| 24> C   -2.0763461 -0.50647415 0.57482724
| 25> H   0.28045741 -1.29097434 2.65357865
| 26> H   -1.41320574 2.45882505 1.6811822
| 27> H   1.43248451 2.0415928 1.80165428
| 28> H   1.00847582 0.92852692 3.04093667
| 29> H   2.76413039 1.21630923 2.70218784
| 30> H   -0.94757115 3.54191283 -1.69610412
| 31> H   -0.44782907 3.9870285 -0.07231742
| 32> H   0.6980775 3.24798737 -1.09176997
| 33> H   0.07600191 -2.95096745 0.94235679
| 34> H   -2.25352538 0.48798809 2.33792725
| 35> H   1.83666179 -0.72047135 -1.81884341
| 36> H   -1.806767 -0.95612094 -1.3251551
| 37> *
| 38> 
| 39>                          ****END OF INPUT****
================================================================================

                     *******************************
                     * Energy+Gradient Calculation *
                     *******************************

---------------------------------
CARTESIAN COORDINATES (ANGSTROEM)
---------------------------------
  O      2.395124    1.231231   -0.482434
  O     -0.571239    0.740213   -2.385644
  O      0.746902   -2.922419   -1.335657
  O     -2.521701   -1.594072    0.922287
  N      0.477229   -2.059158    0.738393
  N     -1.868549    0.550966    1.408844
  N      1.643047   -0.908506   -0.863685
  N     -1.629774   -0.250468   -0.694526
  C      1.523978   -0.012500    1.325899
  C     -0.736505    1.915804   -0.309800
  C      0.798916   -1.149073    1.659375
  C     -1.246093    1.711164    0.971149
  C      1.747078    1.126345    2.303846
  C     -0.367430    3.246439   -0.856346
  C      1.907280    0.199096   -0.042124
  C     -0.919874    0.830435   -1.237653
  C      0.980598   -2.055644   -0.549627
  C     -2.076346   -0.506474    0.574827
  H      0.280457   -1.290974    2.653579
  H     -1.413206    2.458825    1.681182
  H      1.432485    2.041593    1.801654
  H      1.008476    0.928527    3.040937
  H      2.764130    1.216309    2.702188
  H     -0.947571    3.541913   -1.696104
  H     -0.447829    3.987029   -0.072317
  H      0.698077    3.247987   -1.091770
  H      0.076002   -2.950967    0.942357
  H     -2.253525    0.487988    2.337927
  H      1.836662   -0.720471   -1.818843
  H     -1.806767   -0.956121   -1.325155

----------------------------
CARTESIAN COORDINATES (A.U.)
----------------------------
  NO LB      ZA    FRAG     MASS         X           Y           Z
   0 O     8.0000    0    15.999    4.526129    2.326689   -0.911668
   1 O     8.0000    0    15.999   -1.079485    1.398800   -4.508214
   2 O     8.0000    0    15.999    1.411441   -5.522572   -2.524026
   3 O     8.0000    0    15.999   -4.765325   -3.012360    1.742869
   4 N     7.0000    0    14.007    0.901832   -3.891245    1.395360
   5 N     7.0000    0    14.007   -3.531046    1.041175    2.662329
   6 N     7.0000    0    14.007    3.104909   -1.716828   -1.632128
   7 N     7.0000    0    14.007   -3.079826   -0.473316   -1.312465
   8 C     6.0000    0    12.011    2.879902   -0.023622    2.505585
   9 C     6.0000    0    12.011   -1.391793    3.620345   -0.585437
  10 C     6.0000    0    12.011    1.509732   -2.171432    3.135765
  11 C     6.0000    0    12.011   -2.354774    3.233631    1.835207
  12 C     6.0000    0    12.011    3.301499    2.128484    4.353638
  13 C     6.0000    0    12.011   -0.694343    6.134881   -1.618259
  14 C     6.0000    0    12.011    3.604237    0.376236   -0.079602
  15 C     6.0000    0    12.011   -1.738310    1.569294   -2.338825
  16 C     6.0000    0    12.011    1.853062   -3.884604   -1.038644
  17 C     6.0000    0    12.011   -3.923725   -0.957097    1.086266
  18 H     1.0000    0     1.008    0.529988   -2.439588    5.014537
  19 H     1.0000    0     1.008   -2.670572    4.646506    3.176974
  20 H     1.0000    0     1.008    2.707003    3.858051    3.404633
  21 H     1.0000    0     1.008    1.905743    1.754662    5.746537
  22 H     1.0000    0     1.008    5.223449    2.298491    5.106395
  23 H     1.0000    0     1.008   -1.790650    6.693245   -3.205172
  24 H     1.0000    0     1.008   -0.846274    7.534392   -0.136660
  25 H     1.0000    0     1.008    1.319175    6.137807   -2.063146
  26 H     1.0000    0     1.008    0.143623   -5.576520    1.780796
  27 H     1.0000    0     1.008   -4.258546    0.922164    4.418042
  28 H     1.0000    0     1.008    3.470788   -1.361494   -3.437116
  29 H     1.0000    0     1.008   -3.414295   -1.806807   -2.504180

--------------------------------
INTERNAL COORDINATES (ANGSTROEM)
--------------------------------
 O      0   0   0     0.000000000000     0.00000000     0.00000000
 O      1   0   0     3.558457467812     0.00000000     0.00000000
 O      2   1   0     4.031729977644    73.35282619     0.00000000
 O      3   2   1     4.188864497000    66.24561636   103.38620121
 N      3   2   1     2.262659203279    81.55608016    59.17512070
 N      4   3   2     2.294457557160   100.87360328   314.05461872
 N      3   2   1     2.254258178817    51.16369346   359.86895971
 N      2   1   3     2.227515163640    92.94967137    61.18805496
 C      1   2   3     2.361319245169    91.68316756   304.97097275
 C      8   2   1     2.374590276568    62.51668964    55.45652555
 C      5   3   2     1.334146397144   149.80196504   298.07753102
 C      6   4   3     1.387474796568   147.41049042    38.51290213
 C      9   1   2     1.517604371104    92.52196389   235.23210600
 C     10   8   2     1.485098820472   148.34776342    30.00649093
 C      1   2   3     1.223588275047    75.14985198   330.13390924
 C      2   1   3     1.203150352851    73.79261609    89.64683010
 C      3   2   1     1.193212862533    64.89193761    31.79256624
 C      4   3   2     1.225536061215    81.08527624   335.62911123
 H     11   5   3     1.130210441730   114.26712625   183.06275379
 H     12   6   4     1.044543392419   108.19903078   170.47915255
 H     13   9   1     1.090340917725   106.89986636    42.81479780
 H     13   9   1     1.062058282533   101.84235762   153.77625221
 H     13   9   1     1.095977129055   115.60937298   278.05714176
 H     14  10   8     1.062573429633   113.84816260    27.96331117
 H     14  10   8     1.081497347107   109.16490367   151.29005598
 H     14  10   8     1.091207556230   108.86477532   263.24388551
 H      5   3   2     0.998953390414    83.93964659   136.82837553
 H      6   4   3     1.007654935344    91.62375319   218.33956393
 H      7   3   2     0.992558068876    92.59706314   295.13595927
 H      8   2   1     0.962790237364    85.18448082   232.26658059

---------------------------
INTERNAL COORDINATES (A.U.)
---------------------------
 O      0   0   0     0.000000000000     0.00000000     0.00000000
 O      1   0   0     6.724510073371     0.00000000     0.00000000
 O      2   1   0     7.618865503667    73.35282619     0.00000000
 O      3   2   1     7.915806711435    66.24561636   103.38620121
 N      3   2   1     4.275806228593    81.55608016    59.17512070
 N      4   3   2     4.335896408937   100.87360328   314.05461872
 N      3   2   1     4.259930593116    51.16369346   359.86895971
 N      2   1   3     4.209393618437    92.94967137    61.18805496
 C      1   2   3     4.462246688127    91.68316756   304.97097275
 C      8   2   1     4.487325302986    62.51668964    55.45652555
 C      5   3   2     2.521171313160   149.80196504   298.07753102
 C      6   4   3     2.621947383231   147.41049042    38.51290213
 C      9   1   2     2.867856641029    92.52196389   235.23210600
 C     10   8   2     2.806430052502   148.34776342    30.00649093
 C      1   2   3     2.312246740517    75.14985198   330.13390924
 C      2   1   3     2.273624664820    73.79261609    89.64683010
 C      3   2   1     2.254845529660    64.89193761    31.79256624
 C      4   3   2     2.315927522941    81.08527624   335.62911123
 H     11   5   3     2.135788208568   114.26712625   183.06275379
 H     12   6   4     1.973900946669   108.19903078   170.47915255
 H     13   9   1     2.060445727109   106.89986636    42.81479780
 H     13   9   1     2.006999292251   101.84235762   153.77625221
 H     13   9   1     2.071096622956   115.60937298   278.05714176
 H     14  10   8     2.007972779188   113.84816260    27.96331117
 H     14  10   8     2.043733800594   109.16490367   151.29005598
 H     14  10   8     2.062083436540   108.86477532   263.24388551
 H      5   3   2     1.887748328435    83.93964659   136.82837553
 H      6   4   3     1.904191865294    91.62375319   218.33956393
 H      7   3   2     1.875662922189    92.59706314   295.13595927
 H      8   2   1     1.819409873030    85.18448082   232.26658059

---------------------
BASIS SET INFORMATION
---------------------
There are 4 groups of distinct atoms

 Group   1 Type O   : 12s7p3d1f contracted to 6s4p3d1f pattern {621111/4111/111/1}
 Group   2 Type N   : 12s6p3d1f contracted to 6s3p3d1f pattern {621111/411/111/1}
 Group   3 Type C   : 12s6p3d1f contracted to 6s3p3d1f pattern {621111/411/111/1}
 Group   4 Type H   : 5s3p1d contracted to 3s3p1d pattern {311/111/1}

Atom   0O    basis set group =>   1
Atom   1O    basis set group =>   1
Atom   2O    basis set group =>   1
Atom   3O    basis set group =>   1
Atom   4N    basis set group =>   2
Atom   5N    basis set group =>   2
Atom   6N    basis set group =>   2
Atom   7N    basis set group =>   2
Atom   8C    basis set group =>   3
Atom   9C    basis set group =>   3
Atom  10C    basis set group =>   3
Atom  11C    basis set group =>   3
Atom  12C    basis set group =>   3
Atom  13C    basis set group =>   3
Atom  14C    basis set group =>   3
Atom  15C    basis set group =>   3
Atom  16C    basis set group =>   3
Atom  17C    basis set group =>   3
Atom  18H    basis set group =>   4
Atom  19H    basis set group =>   4
Atom  20H    basis set group =>   4
Atom  21H    basis set group =>   4
Atom  22H    basis set group =>   4
Atom  23H    basis set group =>   4
Atom  24H    basis set group =>   4
Atom  25H    basis set group =>   4
Atom  26H    basis set group =>   4
Atom  27H    basis set group =>   4
Atom  28H    basis set group =>   4
Atom  29H    basis set group =>   4
---------------------------------
AUXILIARY/J BASIS SET INFORMATION
---------------------------------
There are 4 groups of distinct atoms

 Group   1 Type O   : 12s5p4d2f1g contracted to 6s4p3d1f1g pattern {711111/2111/211/2/1}
 Group   2 Type N   : 12s5p4d2f1g contracted to 6s4p3d1f1g pattern {711111/2111/211/2/1}
 Group   3 Type C   : 12s5p4d2f1g contracted to 6s4p3d1f1g pattern {711111/2111/211/2/1}
 Group   4 Type H   : 5s2p1d contracted to 3s1p1d pattern {311/2/1}

Atom   0O    basis set group =>   1
Atom   1O    basis set group =>   1
Atom   2O    basis set group =>   1
Atom   3O    basis set group =>   1
Atom   4N    basis set group =>   2
Atom   5N    basis set group =>   2
Atom   6N    basis set group =>   2
Atom   7N    basis set group =>   2
Atom   8C    basis set group =>   3
Atom   9C    basis set group =>   3
Atom  10C    basis set group =>   3
Atom  11C    basis set group =>   3
Atom  12C    basis set group =>   3
Atom  13C    basis set group =>   3
Atom  14C    basis set group =>   3
Atom  15C    basis set group =>   3
Atom  16C    basis set group =>   3
Atom  17C    basis set group =>   3
Atom  18H    basis set group =>   4
Atom  19H    basis set group =>   4
Atom  20H    basis set group =>   4
Atom  21H    basis set group =>   4
Atom  22H    basis set group =>   4
Atom  23H    basis set group =>   4
Atom  24H    basis set group =>   4
Atom  25H    basis set group =>   4
Atom  26H    basis set group =>   4
Atom  27H    basis set group =>   4
Atom  28H    basis set group =>   4
Atom  29H    basis set group =>   4
[1739922081.824624] [ohm:601169:0]        ib_iface.c:1059 UCX  ERROR ibv_create_cq(cqe=256) failed: Connection timed out
[1739922081.827990] [ohm:601172:0]        ib_iface.c:1059 UCX  ERROR ibv_create_cq(cqe=256) failed: Connection timed out
[1739922081.835283] [ohm:601168:0]        ib_iface.c:1059 UCX  ERROR ibv_create_cq(cqe=256) failed: Connection timed out
[1739922081.838958] [ohm:601167:0]        ib_iface.c:1059 UCX  ERROR ibv_create_cq(cqe=256) failed: Connection timed out
[1739922081.843811] [ohm:601166:0]        ib_iface.c:1059 UCX  ERROR ibv_create_cq(cqe=256) failed: Connection timed out
[1739922081.879064] [ohm:601170:0]        ib_iface.c:1059 UCX  ERROR ibv_create_cq(cqe=256) failed: Connection timed out
[1739922081.892502] [ohm:601195:0]        ib_iface.c:1059 UCX  ERROR ibv_create_cq(cqe=256) failed: Connection timed out
[1739922081.901627] [ohm:601173:0]        ib_iface.c:1059 UCX  ERROR ibv_create_cq(cqe=256) failed: Connection timed out
[1739922081.917498] [ohm:601221:0]        ib_iface.c:1059 UCX  ERROR ibv_create_cq(cqe=256) failed: Connection timed out
[1739922081.918153] [ohm:601193:0]        ib_iface.c:1059 UCX  ERROR ibv_create_cq(cqe=256) failed: Connection timed out
[1739922081.919241] [ohm:601184:0]        ib_iface.c:1059 UCX  ERROR ibv_create_cq(cqe=256) failed: Connection timed out
[1739922081.922717] [ohm:601177:0]        ib_iface.c:1059 UCX  ERROR ibv_create_cq(cqe=256) failed: Connection timed out
[1739922081.922970] [ohm:601246:0]        ib_iface.c:1059 UCX  ERROR ibv_create_cq(cqe=256) failed: Connection timed out
[1739922081.925165] [ohm:601189:0]        ib_iface.c:1059 UCX  ERROR ibv_create_cq(cqe=256) failed: Connection timed out
[1739922081.953314] [ohm:601309:0]        ib_iface.c:1059 UCX  ERROR ibv_create_cq(cqe=256) failed: Connection timed out
[1739922081.994361] [ohm:601182:0]        ib_iface.c:1059 UCX  ERROR ibv_create_cq(cqe=256) failed: Connection timed out
[1739922082.013018] [ohm:601174:0]        ib_iface.c:1059 UCX  ERROR ibv_create_cq(cqe=256) failed: Connection timed out
[1739922082.015077] [ohm:601256:0]        ib_iface.c:1059 UCX  ERROR ibv_create_cq(cqe=256) failed: Connection timed out
[1739922082.020438] [ohm:601229:0]        ib_iface.c:1059 UCX  ERROR ibv_create_cq(cqe=256) failed: Connection timed out
[1739922082.031885] [ohm:601178:0]        ib_iface.c:1059 UCX  ERROR ibv_create_cq(cqe=256) failed: Connection timed out
[1739922082.034543] [ohm:601216:0]        ib_iface.c:1059 UCX  ERROR ibv_create_cq(cqe=256) failed: Connection timed out
[1739922082.044171] [ohm:601279:0]        ib_iface.c:1059 UCX  ERROR ibv_create_cq(cqe=256) failed: Connection timed out
[1739922082.047192] [ohm:601228:0]        ib_iface.c:1059 UCX  ERROR ibv_create_cq(cqe=256) failed: Connection timed out
[1739922082.062477] [ohm:601247:0]        ib_iface.c:1059 UCX  ERROR ibv_create_cq(cqe=256) failed: Connection timed out
[1739922082.063517] [ohm:601236:0]        ib_iface.c:1059 UCX  ERROR ibv_create_cq(cqe=256) failed: Connection timed out
[1739922082.067901] [ohm:601261:0]        ib_iface.c:1059 UCX  ERROR ibv_create_cq(cqe=256) failed: Connection timed out
[1739922082.071038] [ohm:601213:0]        ib_iface.c:1059 UCX  ERROR ibv_create_cq(cqe=256) failed: Connection timed out
[1739922082.080669] [ohm:601176:0]        ib_iface.c:1059 UCX  ERROR ibv_create_cq(cqe=256) failed: Connection timed out
[1739922082.083870] [ohm:601264:0]        ib_iface.c:1059 UCX  ERROR ibv_create_cq(cqe=256) failed: Connection timed out
[1739922082.084589] [ohm:601183:0]        ib_iface.c:1059 UCX  ERROR ibv_create_cq(cqe=256) failed: Connection timed out
[1739922082.090233] [ohm:601171:0]        ib_iface.c:1059 UCX  ERROR ibv_create_cq(cqe=256) failed: Connection timed out
[1739922082.097335] [ohm:601175:0]        ib_iface.c:1059 UCX  ERROR ibv_create_cq(cqe=256) failed: Connection timed out
[1739922082.098223] [ohm:601282:0]        ib_iface.c:1059 UCX  ERROR ibv_create_cq(cqe=256) failed: Connection timed out
[1739922082.105428] [ohm:601273:0]        ib_iface.c:1059 UCX  ERROR ibv_create_cq(cqe=256) failed: Connection timed out
[1739922082.109720] [ohm:601190:0]        ib_iface.c:1059 UCX  ERROR ibv_create_cq(cqe=256) failed: Connection timed out
[1739922082.114604] [ohm:601287:0]        ib_iface.c:1059 UCX  ERROR ibv_create_cq(cqe=256) failed: Connection timed out
[1739922082.120197] [ohm:601260:0]        ib_iface.c:1059 UCX  ERROR ibv_create_cq(cqe=256) failed: Connection timed out
[1739922082.124268] [ohm:601226:0]        ib_iface.c:1059 UCX  ERROR ibv_create_cq(cqe=256) failed: Connection timed out
[1739922082.125621] [ohm:601303:0]        ib_iface.c:1059 UCX  ERROR ibv_create_cq(cqe=256) failed: Connection timed out
[1739922082.129392] [ohm:601297:0]        ib_iface.c:1059 UCX  ERROR ibv_create_cq(cqe=256) failed: Connection timed out
[1739922082.133178] [ohm:601187:0]        ib_iface.c:1059 UCX  ERROR ibv_create_cq(cqe=256) failed: Connection timed out
[1739922082.133712] [ohm:601197:0]        ib_iface.c:1059 UCX  ERROR ibv_create_cq(cqe=256) failed: Connection timed out
[1739922082.133941] [ohm:601200:0]        ib_iface.c:1059 UCX  ERROR ibv_create_cq(cqe=256) failed: Connection timed out
[1739922082.134553] [ohm:601185:0]        ib_iface.c:1059 UCX  ERROR ibv_create_cq(cqe=256) failed: Connection timed out
[1739922082.136298] [ohm:601239:0]        ib_iface.c:1059 UCX  ERROR ibv_create_cq(cqe=256) failed: Connection timed out
[1739922082.153357] [ohm:601254:0]        ib_iface.c:1059 UCX  ERROR ibv_create_cq(cqe=256) failed: Connection timed out
[1739922082.154782] [ohm:601179:0]        ib_iface.c:1059 UCX  ERROR ibv_create_cq(cqe=256) failed: Connection timed out
[1739922082.161722] [ohm:601192:0]        ib_iface.c:1059 UCX  ERROR ibv_create_cq(cqe=256) failed: Connection timed out
[1739922082.168799] [ohm:601286:0]        ib_iface.c:1059 UCX  ERROR ibv_create_cq(cqe=256) failed: Connection timed out
[1739922082.171808] [ohm:601207:0]        ib_iface.c:1059 UCX  ERROR ibv_create_cq(cqe=256) failed: Connection timed out
[1739922082.171972] [ohm:601188:0]        ib_iface.c:1059 UCX  ERROR ibv_create_cq(cqe=256) failed: Connection timed out
[1739922082.174639] [ohm:601181:0]        ib_iface.c:1059 UCX  ERROR ibv_create_cq(cqe=256) failed: Connection timed out
[1739922082.176252] [ohm:601265:0]        ib_iface.c:1059 UCX  ERROR ibv_create_cq(cqe=256) failed: Connection timed out
[1739922082.177859] [ohm:601203:0]        ib_iface.c:1059 UCX  ERROR ibv_create_cq(cqe=256) failed: Connection timed out
[1739922082.181599] [ohm:601186:0]        ib_iface.c:1059 UCX  ERROR ibv_create_cq(cqe=256) failed: Connection timed out
[1739922082.181634] [ohm:601298:0]        ib_iface.c:1059 UCX  ERROR ibv_create_cq(cqe=256) failed: Connection timed out
[1739922082.183719] [ohm:601180:0]        ib_iface.c:1059 UCX  ERROR ibv_create_cq(cqe=256) failed: Connection timed out
[1739922082.187766] [ohm:601290:0]        ib_iface.c:1059 UCX  ERROR ibv_create_cq(cqe=256) failed: Connection timed out
[1739922082.189266] [ohm:601307:0]        ib_iface.c:1059 UCX  ERROR ibv_create_cq(cqe=256) failed: Connection timed out
[1739922082.189315] [ohm:601191:0]        ib_iface.c:1059 UCX  ERROR ibv_create_cq(cqe=256) failed: Connection timed out
[1739922082.189419] [ohm:601270:0]        ib_iface.c:1059 UCX  ERROR ibv_create_cq(cqe=256) failed: Connection timed out
[1739922082.191409] [ohm:601194:0]        ib_iface.c:1059 UCX  ERROR ibv_create_cq(cqe=256) failed: Connection timed out
[1739922082.191596] [ohm:601234:0]        ib_iface.c:1059 UCX  ERROR ibv_create_cq(cqe=256) failed: Connection timed out
[1739922082.191690] [ohm:601293:0]        ib_iface.c:1059 UCX  ERROR ibv_create_cq(cqe=256) failed: Connection timed out


           ************************************************************
           *        Program running with 64 parallel MPI-processes    *
           *              working on a common directory               *
           ************************************************************
------------------------------------------------------------------------------
                             ORCA STARTUP CALCULATIONS
                           -- RI-GTO INTEGRALS CHOSEN --
------------------------------------------------------------------------------
------------------------------------------------------------------------------
                   ___                                                        
                  /   \      - P O W E R E D   B Y -                         
                 /     \                                                     
                 |  |  |   _    _      __       _____    __    __             
                 |  |  |  | |  | |    /  \     |  _  \  |  |  /  |          
                  \  \/   | |  | |   /    \    | | | |  |  | /  /          
                 / \  \   | |__| |  /  /\  \   | |_| |  |  |/  /          
                |  |  |   |  __  | /  /__\  \  |    /   |      \           
                |  |  |   | |  | | |   __   |  |    \   |  |\   \          
                \     /   | |  | | |  |  |  |  | |\  \  |  | \   \       
                 \___/    |_|  |_| |__|  |__|  |_| \__\ |__|  \__/        
                                                                              
                      - O R C A' S   B I G   F R I E N D -                    
                                      &                                       
                       - I N T E G R A L  F E E D E R -                       
                                                                              
 v1 FN, 2020, v2 2021, v3 2022-2024                                           
------------------------------------------------------------------------------


----------------------
SHARK INTEGRAL PACKAGE
----------------------

Number of atoms                             ...     30
Number of basis functions                   ...    882
Number of shells                            ...    322
Maximum angular momentum                    ...      3
Integral batch strategy                     ... SHARK/LIBINT Hybrid
RI-J (if used) integral strategy            ... SPLIT-RIJ (Revised 2003 algorithm where possible)
Printlevel                                  ...      1
Contraction scheme used                     ... SEGMENTED contraction
Prescreening option                         ... SCHWARTZ
   Thresh                                   ... 2.500e-11
   Tcut                                     ... 2.500e-12
   Tpresel                                  ... 2.500e-12 
Coulomb Range Separation                    ... NOT USED
Exchange Range Separation                   ... Long Range
   Mu parameter                             ... 3.000e-01
   Scaling (regular/separated)              ... 1.500e-01 8.500e-01
Multipole approximations                    ... NOT USED
Finite Nucleus Model                        ... NOT USED
CABS basis                                  ... NOT available
Auxiliary Coulomb fitting basis             ... AVAILABLE
   # of basis functions in Aux-J            ...   1014
   # of shells in Aux-J                     ...    330
   Maximum angular momentum in Aux-J        ...      4
Auxiliary J/K fitting basis                 ... NOT available
Auxiliary Correlation fitting basis         ... NOT available
Auxiliary 'external' fitting basis          ... NOT available

Checking pre-screening integrals            ... done (  0.0 sec) Dimension = 322
Check shell pair data                       ... done (  0.0 sec)
Shell pair information
Shell pair cut-off parameter TPreSel        ...   2.5e-12
Total number of shell pairs                 ...     52003
Shell pairs after pre-screening             ...     45251
Total number of primitive shell pairs       ...    129718
Primitive shell pairs kept                  ...     84226
          la=0 lb=0:   8740 shell pairs
          la=1 lb=0:  11947 shell pairs
          la=1 lb=1:   4135 shell pairs
          la=2 lb=0:   8140 shell pairs
          la=2 lb=1:   5618 shell pairs
          la=2 lb=2:   1944 shell pairs
          la=3 lb=0:   2065 shell pairs
          la=3 lb=1:   1490 shell pairs
          la=3 lb=2:   1026 shell pairs
          la=3 lb=3:    146 shell pairs

Calculating one electron integrals          ... done (  0.2 sec)
Calculating RI/J V-Matrix + Cholesky decomp.... done (  0.1 sec)
Calculating Nuclear repulsion               ... done (  0.0 sec) ENN=   1455.271091436705 Eh

Diagonalization of the overlap matrix:
Smallest eigenvalue                        ... 5.721e-07
Time for diagonalization                   ...    0.125 sec
Threshold for overlap eigenvalues          ... 1.000e-07
Number of eigenvalues below threshold      ... 0

IMPORTANT:
Smallest eigenvalue of S below the DiffSThresh (1.000e-06) while
Thresh>1e-12 and/or TCut>1e-13! In order to avoid SCF convergence issues,
Thresh will be set to at least 1e-12 and TCut to at least 1e-13.
This can be turned off by adding %SCF DiffSThresh -1 END to the input.

Time for construction of square roots      ...    0.141 sec
Total time needed                          ...    0.282 sec

-------------------
DFT GRID GENERATION
-------------------

General Integration Accuracy     IntAcc      ... 4.388
Radial Grid Type                 RadialGrid  ... OptM3 with GC (2021)
Angular Grid (max. ang.)         AngularGrid ... 4 (Lebedev-302)
Angular grid pruning method      GridPruning ... 4 (adaptive)
Weight generation scheme         WeightScheme... mBecke (2022)
Basis function cutoff            BFCut       ... 1.0000e-11
Integration weight cutoff        WCut        ... 1.0000e-14
Partially contracted basis set               ... off
Rotationally invariant grid construction     ... off
Angular grids for H and He will be reduced by one unit
Diffuse basis detected: some atoms will have their outermost
                        angular grid increased by 1.

Total number of grid points                  ...   152151
Total number of batches                      ...     2390
Average number of points per batch           ...       63
Average number of grid points per atom       ...     5072

--------------------
COSX GRID GENERATION
--------------------

GRIDX 1
-------
General Integration Accuracy     IntAcc      ... 3.816
Radial Grid Type                 RadialGrid  ... OptM3 with GC (2021)
Angular Grid (max. ang.)         AngularGrid ... 1 (Lebedev-50)
Angular grid pruning method      GridPruning ... 4 (adaptive)
Weight generation scheme         WeightScheme... mBecke (2022)
Basis function cutoff            BFCut       ... 1.0000e-11
Integration weight cutoff        WCut        ... 1.0000e-14
Partially contracted basis set               ... on
Rotationally invariant grid construction     ... off
Angular grids for H and He will be reduced by one unit
Diffuse basis detected: some atoms will have their outermost
                        angular grid increased by 1.

Total number of grid points                  ...    19063
Total number of batches                      ...      166
Average number of points per batch           ...      114
Average number of grid points per atom       ...      635
UseSFitting                                  ... on

GRIDX 2
-------
General Integration Accuracy     IntAcc      ... 4.020
Radial Grid Type                 RadialGrid  ... OptM3 with GC (2021)
Angular Grid (max. ang.)         AngularGrid ... 2 (Lebedev-110)
Angular grid pruning method      GridPruning ... 4 (adaptive)
Weight generation scheme         WeightScheme... mBecke (2022)
Basis function cutoff            BFCut       ... 1.0000e-11
Integration weight cutoff        WCut        ... 1.0000e-14
Partially contracted basis set               ... on
Rotationally invariant grid construction     ... off
Angular grids for H and He will be reduced by one unit
Diffuse basis detected: some atoms will have their outermost
                        angular grid increased by 1.

Total number of grid points                  ...    45875
Total number of batches                      ...      375
Average number of points per batch           ...      122
Average number of grid points per atom       ...     1529
UseSFitting                                  ... on

GRIDX 3
-------
General Integration Accuracy     IntAcc      ... 4.338
Radial Grid Type                 RadialGrid  ... OptM3 with GC (2021)
Angular Grid (max. ang.)         AngularGrid ... 3 (Lebedev-194)
Angular grid pruning method      GridPruning ... 4 (adaptive)
Weight generation scheme         WeightScheme... mBecke (2022)
Basis function cutoff            BFCut       ... 1.0000e-11
Integration weight cutoff        WCut        ... 1.0000e-14
Partially contracted basis set               ... on
Rotationally invariant grid construction     ... off
Angular grids for H and He will be reduced by one unit
Diffuse basis detected: some atoms will have their outermost
                        angular grid increased by 1.

Total number of grid points                  ...   101114
Total number of batches                      ...      805
Average number of points per batch           ...      125
Average number of grid points per atom       ...     3370
UseSFitting                                  ... on
Initializing property integral containers    ... done (  0.0 sec)

SHARK setup successfully completed in   4.2 seconds

Maximum memory used throughout the entire STARTUP-calculation: 80.3 MB
[1739922088.199698] [ohm:601528:0]        ib_iface.c:1059 UCX  ERROR ibv_create_cq(cqe=256) failed: Connection timed out
[1739922088.202858] [ohm:601586:0]        ib_iface.c:1059 UCX  ERROR ibv_create_cq(cqe=256) failed: Connection timed out
[1739922088.213625] [ohm:601532:0]        ib_iface.c:1059 UCX  ERROR ibv_create_cq(cqe=256) failed: Connection timed out
[1739922088.218084] [ohm:601531:0]        ib_iface.c:1059 UCX  ERROR ibv_create_cq(cqe=256) failed: Connection timed out
[1739922088.287735] [ohm:601527:0]        ib_iface.c:1059 UCX  ERROR ibv_create_cq(cqe=256) failed: Connection timed out
[1739922088.289030] [ohm:601533:0]        ib_iface.c:1059 UCX  ERROR ibv_create_cq(cqe=256) failed: Connection timed out
[1739922088.292371] [ohm:601537:0]        ib_iface.c:1059 UCX  ERROR ibv_create_cq(cqe=256) failed: Connection timed out
[1739922088.295861] [ohm:601530:0]        ib_iface.c:1059 UCX  ERROR ibv_create_cq(cqe=256) failed: Connection timed out
[1739922088.342744] [ohm:601540:0]        ib_iface.c:1059 UCX  ERROR ibv_create_cq(cqe=256) failed: Connection timed out
[1739922088.348857] [ohm:601534:0]        ib_iface.c:1059 UCX  ERROR ibv_create_cq(cqe=256) failed: Connection timed out
[1739922088.359106] [ohm:601529:0]        ib_iface.c:1059 UCX  ERROR ibv_create_cq(cqe=256) failed: Connection timed out
[1739922088.364751] [ohm:601543:0]        ib_iface.c:1059 UCX  ERROR ibv_create_cq(cqe=256) failed: Connection timed out
[1739922088.372071] [ohm:601546:0]        ib_iface.c:1059 UCX  ERROR ibv_create_cq(cqe=256) failed: Connection timed out
[1739922088.388295] [ohm:601539:0]        ib_iface.c:1059 UCX  ERROR ibv_create_cq(cqe=256) failed: Connection timed out
[1739922088.393255] [ohm:601553:0]        ib_iface.c:1059 UCX  ERROR ibv_create_cq(cqe=256) failed: Connection timed out
[1739922088.395548] [ohm:601580:0]        ib_iface.c:1059 UCX  ERROR ibv_create_cq(cqe=256) failed: Connection timed out
[1739922088.396603] [ohm:601545:0]        ib_iface.c:1059 UCX  ERROR ibv_create_cq(cqe=256) failed: Connection timed out
[1739922088.400556] [ohm:601554:0]        ib_iface.c:1059 UCX  ERROR ibv_create_cq(cqe=256) failed: Connection timed out
[1739922088.400541] [ohm:601605:0]        ib_iface.c:1059 UCX  ERROR ibv_create_cq(cqe=256) failed: Connection timed out
[1739922088.402479] [ohm:601660:0]        ib_iface.c:1059 UCX  ERROR ibv_create_cq(cqe=256) failed: Connection timed out
[1739922088.406513] [ohm:601576:0]        ib_iface.c:1059 UCX  ERROR ibv_create_cq(cqe=256) failed: Connection timed out
[1739922088.410623] [ohm:601552:0]        ib_iface.c:1059 UCX  ERROR ibv_create_cq(cqe=256) failed: Connection timed out
[1739922088.421263] [ohm:601550:0]        ib_iface.c:1059 UCX  ERROR ibv_create_cq(cqe=256) failed: Connection timed out
[1739922088.425916] [ohm:601638:0]        ib_iface.c:1059 UCX  ERROR ibv_create_cq(cqe=256) failed: Connection timed out
[1739922088.444955] [ohm:601626:0]        ib_iface.c:1059 UCX  ERROR ibv_create_cq(cqe=256) failed: Connection timed out
[1739922088.447619] [ohm:601549:0]        ib_iface.c:1059 UCX  ERROR ibv_create_cq(cqe=256) failed: Connection timed out
[1739922088.459608] [ohm:601559:0]        ib_iface.c:1059 UCX  ERROR ibv_create_cq(cqe=256) failed: Connection timed out
[1739922088.473120] [ohm:601558:0]        ib_iface.c:1059 UCX  ERROR ibv_create_cq(cqe=256) failed: Connection timed out
[1739922088.483570] [ohm:601631:0]        ib_iface.c:1059 UCX  ERROR ibv_create_cq(cqe=256) failed: Connection timed out
[1739922088.485720] [ohm:601670:0]        ib_iface.c:1059 UCX  ERROR ibv_create_cq(cqe=256) failed: Connection timed out
[1739922088.490335] [ohm:601614:0]        ib_iface.c:1059 UCX  ERROR ibv_create_cq(cqe=256) failed: Connection timed out
[1739922088.491957] [ohm:601611:0]        ib_iface.c:1059 UCX  ERROR ibv_create_cq(cqe=256) failed: Connection timed out
[1739922088.497733] [ohm:601636:0]        ib_iface.c:1059 UCX  ERROR ibv_create_cq(cqe=256) failed: Connection timed out
[1739922088.499188] [ohm:601548:0]        ib_iface.c:1059 UCX  ERROR ibv_create_cq(cqe=256) failed: Connection timed out
[1739922088.500439] [ohm:601542:0]        ib_iface.c:1059 UCX  ERROR ibv_create_cq(cqe=256) failed: Connection timed out
[1739922088.511652] [ohm:601649:0]        ib_iface.c:1059 UCX  ERROR ibv_create_cq(cqe=256) failed: Connection timed out
[1739922088.528410] [ohm:601575:0]        ib_iface.c:1059 UCX  ERROR ibv_create_cq(cqe=256) failed: Connection timed out
[1739922088.538450] [ohm:601569:0]        ib_iface.c:1059 UCX  ERROR ibv_create_cq(cqe=256) failed: Connection timed out
[1739922088.541633] [ohm:601642:0]        ib_iface.c:1059 UCX  ERROR ibv_create_cq(cqe=256) failed: Connection timed out
[1739922088.543175] [ohm:601541:0]        ib_iface.c:1059 UCX  ERROR ibv_create_cq(cqe=256) failed: Connection timed out
[1739922088.544794] [ohm:601654:0]        ib_iface.c:1059 UCX  ERROR ibv_create_cq(cqe=256) failed: Connection timed out
[1739922088.545936] [ohm:601618:0]        ib_iface.c:1059 UCX  ERROR ibv_create_cq(cqe=256) failed: Connection timed out
[1739922088.551869] [ohm:601623:0]        ib_iface.c:1059 UCX  ERROR ibv_create_cq(cqe=256) failed: Connection timed out
[1739922088.553439] [ohm:601663:0]        ib_iface.c:1059 UCX  ERROR ibv_create_cq(cqe=256) failed: Connection timed out
[1739922088.554793] [ohm:601582:0]        ib_iface.c:1059 UCX  ERROR ibv_create_cq(cqe=256) failed: Connection timed out
[1739922088.556185] [ohm:601588:0]        ib_iface.c:1059 UCX  ERROR ibv_create_cq(cqe=256) failed: Connection timed out
[1739922088.559501] [ohm:601620:0]        ib_iface.c:1059 UCX  ERROR ibv_create_cq(cqe=256) failed: Connection timed out
[1739922088.559764] [ohm:601643:0]        ib_iface.c:1059 UCX  ERROR ibv_create_cq(cqe=256) failed: Connection timed out
[1739922088.563517] [ohm:601551:0]        ib_iface.c:1059 UCX  ERROR ibv_create_cq(cqe=256) failed: Connection timed out
[1739922088.573218] [ohm:601536:0]        ib_iface.c:1059 UCX  ERROR ibv_create_cq(cqe=256) failed: Connection timed out
[1739922088.574891] [ohm:601566:0]        ib_iface.c:1059 UCX  ERROR ibv_create_cq(cqe=256) failed: Connection timed out
[1739922088.580844] [ohm:601535:0]        ib_iface.c:1059 UCX  ERROR ibv_create_cq(cqe=256) failed: Connection timed out
[1739922088.581489] [ohm:601599:0]        ib_iface.c:1059 UCX  ERROR ibv_create_cq(cqe=256) failed: Connection timed out
[1739922088.582339] [ohm:601538:0]        ib_iface.c:1059 UCX  ERROR ibv_create_cq(cqe=256) failed: Connection timed out
[1739922088.582406] [ohm:601547:0]        ib_iface.c:1059 UCX  ERROR ibv_create_cq(cqe=256) failed: Connection timed out
[1739922088.582751] [ohm:601647:0]        ib_iface.c:1059 UCX  ERROR ibv_create_cq(cqe=256) failed: Connection timed out
[1739922088.583021] [ohm:601616:0]        ib_iface.c:1059 UCX  ERROR ibv_create_cq(cqe=256) failed: Connection timed out
[1739922088.583083] [ohm:601598:0]        ib_iface.c:1059 UCX  ERROR ibv_create_cq(cqe=256) failed: Connection timed out
[1739922088.584234] [ohm:601655:0]        ib_iface.c:1059 UCX  ERROR ibv_create_cq(cqe=256) failed: Connection timed out
[1739922088.584464] [ohm:601591:0]        ib_iface.c:1059 UCX  ERROR ibv_create_cq(cqe=256) failed: Connection timed out
[1739922088.584783] [ohm:601544:0]        ib_iface.c:1059 UCX  ERROR ibv_create_cq(cqe=256) failed: Connection timed out
[1739922088.585255] [ohm:601665:0]        ib_iface.c:1059 UCX  ERROR ibv_create_cq(cqe=256) failed: Connection timed out
[1739922088.586193] [ohm:601672:0]        ib_iface.c:1059 UCX  ERROR ibv_create_cq(cqe=256) failed: Connection timed out
[1739922088.586596] [ohm:601592:0]        ib_iface.c:1059 UCX  ERROR ibv_create_cq(cqe=256) failed: Connection timed out


           ************************************************************
           *        Program running with 64 parallel MPI-processes    *
           *              working on a common directory               *
           ************************************************************
-------------------------------------------------------------------------------
                                 ORCA GUESS
                   Start orbitals & Density for SCF / CASSCF
-------------------------------------------------------------------------------

------------
SCF SETTINGS
------------
Hamiltonian:
 Density Functional     Method          .... DFT(GTOs)
  Functional kind                       .... Exchange-Correlation
  Functional name                       .... wB97M-V exchange-correlation functional
  Functional family                     .... Hybrid MGGA
  Functional refs                              
    [ 0] N. Mardirossian and M. Head-Gordon.,  J. Chem. Phys. 144, 214110 (2016), doi: 10.1063/1.4952647
  Fraction of HF Exchange (short range) .... 0.1500
  Fraction of HF Exchange (long range)  .... 1.0000
  Range separation parameter mu         .... 0.3000
  Functional external parameters        .... 17
    Parameter  0 _cx00      =  8.500000e-01 : u^00 coefficient for exchange
    Parameter  1 _cx01      =  1.007000e+00 : u^01 coefficient for exchange
    Parameter  2 _cx10      =  2.590000e-01 : u^10 coefficient for exchange
    Parameter  3 _css00     =  4.430000e-01 : u^00 coefficient for same-spin correlation
    Parameter  4 _css04     = -1.437000e+00 : u^04 coefficient for same-spin correlation
    Parameter  5 _css10     = -4.535000e+00 : u^10 coefficient for same-spin correlation
    Parameter  6 _css20     = -3.390000e+00 : u^20 coefficient for same-spin correlation
    Parameter  7 _css43     =  4.278000e+00 : u^43 coefficient for same-spin correlation
    Parameter  8 _cos00     =  1.000000e+00 : u^00 coefficient for opposite-spin correlation
    Parameter  9 _cos10     =  1.358000e+00 : u^10 coefficient for opposite-spin correlation
    Parameter 10 _cos20     =  2.924000e+00 : u^20 coefficient for opposite-spin correlation
    Parameter 11 _cos21     = -8.812000e+00 : u^21 coefficient for opposite-spin correlation
    Parameter 12 _cos60     = -1.390000e+00 : u^60 coefficient for opposite-spin correlation
    Parameter 13 _cos61     =  9.142000e+00 : u^61 coefficient for opposite-spin correlation
    Parameter 14 _alpha     =  1.000000e+00 : fraction of HF exchange
    Parameter 15 _beta      = -8.500000e-01 : fraction of short-range exchange
    Parameter 16 _omega     =  3.000000e-01 : range-separation constant
 Long-range corrected/Screened/Range-Separated Hybrid DFT is turned on
   Amount of maximum screened exact exchange              ....  0.850000
   Range separation parameter mu (erf(mu*r12)/r12)        ....  0.300000
 RI-approximation to the Coulomb term is turned on
   Number of AuxJ basis functions       .... 1014
   RIJ-COSX (HFX calculated with COS-X)).... on


General Settings:
 Integral files         IntName         .... orca
 Hartree-Fock type      HFTyp           .... UHF
 Total Charge           Charge          ....    0
 Multiplicity           Mult            ....    3
 Number of Electrons    NEL             ....  132
 Basis Dimension        Dim             ....  882
 Nuclear Repulsion      ENuc            ....   1455.2710914367 Eh

Convergence Acceleration:
 AO-DIIS                CNVDIIS         .... on
   Start iteration      DIISMaxIt       ....    12
   Startup error        DIISStart       ....  0.200000
   # of expansion vecs  DIISMaxEq       ....     5
   Bias factor          DIISBfac        ....   1.050
   Max. coefficient     DIISMaxC        ....  10.000
 MO-DIIS                CNVKDIIS        .... off
 Trust-Rad. Augm. Hess. CNVTRAH         .... auto
   Auto Start mean grad. ratio tolernc. ....  1.125000
   Auto Start start iteration           ....    50
   Auto Start num. interpolation iter.  ....    10
   Max. Number of Micro iterations      ....    24
   Max. Number of Macro iterations      .... Maxiter - #DIIS iter
   Number of Davidson start vectors     ....     2
   Converg. threshold    (grad. norm)   ....   1.000e-05
   Grad. Scal. Fac. for Micro threshold ....   0.100
   Minimum threshold for Micro iter.    ....   1.000e-02
   NR start threshold (gradient norm)   ....   1.000e-04
   Initial trust radius                 ....   0.400
   Minimum AH scaling param. (alpha)    ....   1.000
   Maximum AH scaling param. (alpha)    .... 1000.000
   Quad. conv. algorithm                .... NR
   White noise on init. David. guess    .... on
   Maximum white noise                  ....   0.010
   Pseudo random numbers                .... off
   Inactive MOs                         .... canonical
   Orbital update algorithm             .... Taylor
   Preconditioner                       .... Diag
   Full preconditioner red. dimension   ....   250
 SOSCF                  CNVSOSCF        .... on
   Start iteration      SOSCFMaxIt      ....   150
   Startup grad/error   SOSCFStart      ....  0.003300
   Hessian update       SOSCFHessUp     .... L-BFGS
 Level Shifting         CNVShift        .... on
   Level shift para.    LevelShift      ....    0.2500
   Turn off err/grad.   ShiftErr        ....    0.0010
 Zerner damping         CNVZerner       .... off
 Static damping         CNVDamp         .... on
   Fraction old density DampFac         ....    0.7000
   Max. Damping (<1)    DampMax         ....    0.9800
   Min. Damping (>=0)   DampMin         ....    0.0000
   Turn off err/grad.   DampErr         ....    0.1000

SCF Procedure:
 Maximum # iterations   MaxIter         ....   125
 SCF integral mode      SCFMode         .... Direct
   Integral package                     .... SHARK and LIBINT hybrid scheme
 Reset frequency        DirectResetFreq ....    20
 Integral Threshold     Thresh          ....  1.000e-12 Eh
 Primitive CutOff       TCut            ....  1.000e-13 Eh

Convergence Tolerance:
 Convergence Check Mode ConvCheckMode   .... Total+1el-Energy
 Convergence forced     ConvForced      .... 1
 Energy Change          TolE            ....  1.000e-08 Eh
 1-El. energy change                    ....  1.000e-05 Eh
 Orbital Gradient       TolG            ....  1.000e-05
 Orbital Rotation angle TolX            ....  1.000e-05
 DIIS Error             TolErr          ....  5.000e-07

------------------------------
INITIAL GUESS: MODEL POTENTIAL
------------------------------
Loading Hartree-Fock densities                     ... done
Calculating cut-offs                               ... done
Initializing the effective Hamiltonian             ... done
Setting up the integral package (SHARK)            ... done
Starting the Coulomb interaction                   ... done (   0.1 sec)
Making the grid                                    ... done (   0.2 sec)
Mapping shells                                     ... done
Starting the XC term evaluation                    ... done (   0.2 sec)
  promolecular density results
     # of electrons  =    132.001372426
     EX              =   -113.609376270
     EC              =     -4.481658115
     EX+EC           =   -118.091034385
Transforming the Hamiltonian                       ... done (   0.1 sec)
Diagonalizing the Hamiltonian                      ... done (   0.1 sec)
Back transforming the eigenvectors                 ... done (   0.1 sec)
Now organizing SCF variables                       ... done
                      ------------------
                      INITIAL GUESS DONE (   1.1 sec)
                      ------------------
             **** ENERGY FILE WAS UPDATED (orca.en.tmp) ****
Finished Guess after   3.5 sec
Maximum memory used throughout the entire GUESS-calculation: 72.7 MB
[1739922092.398139] [ohm:601888:0]        ib_iface.c:1059 UCX  ERROR ibv_create_cq(cqe=256) failed: Connection timed out
[1739922092.400568] [ohm:601891:0]        ib_iface.c:1059 UCX  ERROR ibv_create_cq(cqe=256) failed: Connection timed out
[1739922092.402387] [ohm:601880:0]        ib_iface.c:1059 UCX  ERROR ibv_create_cq(cqe=256) failed: Connection timed out
[1739922092.404136] [ohm:601887:0]        ib_iface.c:1059 UCX  ERROR ibv_create_cq(cqe=256) failed: Connection timed out
[1739922092.451393] [ohm:601883:0]        ib_iface.c:1059 UCX  ERROR ibv_create_cq(cqe=256) failed: Connection timed out
[1739922092.453615] [ohm:601886:0]        ib_iface.c:1059 UCX  ERROR ibv_create_cq(cqe=256) failed: Connection timed out
[1739922092.461701] [ohm:601882:0]        ib_iface.c:1059 UCX  ERROR ibv_create_cq(cqe=256) failed: Connection timed out
[1739922092.487323] [ohm:601881:0]        ib_iface.c:1059 UCX  ERROR ibv_create_cq(cqe=256) failed: Connection timed out
[1739922092.493879] [ohm:601894:0]        ib_iface.c:1059 UCX  ERROR ibv_create_cq(cqe=256) failed: Connection timed out
[1739922092.499770] [ohm:601889:0]        ib_iface.c:1059 UCX  ERROR ibv_create_cq(cqe=256) failed: Connection timed out
[1739922092.506163] [ohm:601897:0]        ib_iface.c:1059 UCX  ERROR ibv_create_cq(cqe=256) failed: Connection timed out
[1739922092.506455] [ohm:601884:0]        ib_iface.c:1059 UCX  ERROR ibv_create_cq(cqe=256) failed: Connection timed out
[1739922092.508908] [ohm:602007:0]        ib_iface.c:1059 UCX  ERROR ibv_create_cq(cqe=256) failed: Connection timed out
[1739922092.513426] [ohm:601885:0]        ib_iface.c:1059 UCX  ERROR ibv_create_cq(cqe=256) failed: Connection timed out
[1739922092.514258] [ohm:601943:0]        ib_iface.c:1059 UCX  ERROR ibv_create_cq(cqe=256) failed: Connection timed out
[1739922092.523477] [ohm:601930:0]        ib_iface.c:1059 UCX  ERROR ibv_create_cq(cqe=256) failed: Connection timed out
[1739922092.566608] [ohm:601938:0]        ib_iface.c:1059 UCX  ERROR ibv_create_cq(cqe=256) failed: Connection timed out
[1739922092.575177] [ohm:601945:0]        ib_iface.c:1059 UCX  ERROR ibv_create_cq(cqe=256) failed: Connection timed out
[1739922092.585324] [ohm:601940:0]        ib_iface.c:1059 UCX  ERROR ibv_create_cq(cqe=256) failed: Connection timed out
[1739922092.597587] [ohm:601977:0]        ib_iface.c:1059 UCX  ERROR ibv_create_cq(cqe=256) failed: Connection timed out
[1739922092.601731] [ohm:601972:0]        ib_iface.c:1059 UCX  ERROR ibv_create_cq(cqe=256) failed: Connection timed out
[1739922092.607868] [ohm:601951:0]        ib_iface.c:1059 UCX  ERROR ibv_create_cq(cqe=256) failed: Connection timed out
[1739922092.610241] [ohm:602024:0]        ib_iface.c:1059 UCX  ERROR ibv_create_cq(cqe=256) failed: Connection timed out
[1739922092.613941] [ohm:601915:0]        ib_iface.c:1059 UCX  ERROR ibv_create_cq(cqe=256) failed: Connection timed out
[1739922092.618591] [ohm:601933:0]        ib_iface.c:1059 UCX  ERROR ibv_create_cq(cqe=256) failed: Connection timed out
[1739922092.632042] [ohm:601927:0]        ib_iface.c:1059 UCX  ERROR ibv_create_cq(cqe=256) failed: Connection timed out
[1739922092.636084] [ohm:601909:0]        ib_iface.c:1059 UCX  ERROR ibv_create_cq(cqe=256) failed: Connection timed out
[1739922092.636629] [ohm:601899:0]        ib_iface.c:1059 UCX  ERROR ibv_create_cq(cqe=256) failed: Connection timed out
[1739922092.636997] [ohm:601987:0]        ib_iface.c:1059 UCX  ERROR ibv_create_cq(cqe=256) failed: Connection timed out
[1739922092.640683] [ohm:601892:0]        ib_iface.c:1059 UCX  ERROR ibv_create_cq(cqe=256) failed: Connection timed out
[1739922092.642364] [ohm:601922:0]        ib_iface.c:1059 UCX  ERROR ibv_create_cq(cqe=256) failed: Connection timed out
[1739922092.643435] [ohm:602001:0]        ib_iface.c:1059 UCX  ERROR ibv_create_cq(cqe=256) failed: Connection timed out
[1739922092.649396] [ohm:602028:0]        ib_iface.c:1059 UCX  ERROR ibv_create_cq(cqe=256) failed: Connection timed out
[1739922092.657351] [ohm:601941:0]        ib_iface.c:1059 UCX  ERROR ibv_create_cq(cqe=256) failed: Connection timed out
[1739922092.662333] [ohm:601970:0]        ib_iface.c:1059 UCX  ERROR ibv_create_cq(cqe=256) failed: Connection timed out
[1739922092.665617] [ohm:601967:0]        ib_iface.c:1059 UCX  ERROR ibv_create_cq(cqe=256) failed: Connection timed out
[1739922092.670073] [ohm:601942:0]        ib_iface.c:1059 UCX  ERROR ibv_create_cq(cqe=256) failed: Connection timed out
[1739922092.674082] [ohm:602004:0]        ib_iface.c:1059 UCX  ERROR ibv_create_cq(cqe=256) failed: Connection timed out
[1739922092.674881] [ohm:602020:0]        ib_iface.c:1059 UCX  ERROR ibv_create_cq(cqe=256) failed: Connection timed out
[1739922092.682478] [ohm:602030:0]        ib_iface.c:1059 UCX  ERROR ibv_create_cq(cqe=256) failed: Connection timed out
[1739922092.682661] [ohm:601964:0]        ib_iface.c:1059 UCX  ERROR ibv_create_cq(cqe=256) failed: Connection timed out
[1739922092.698641] [ohm:601936:0]        ib_iface.c:1059 UCX  ERROR ibv_create_cq(cqe=256) failed: Connection timed out
[1739922092.698797] [ohm:601920:0]        ib_iface.c:1059 UCX  ERROR ibv_create_cq(cqe=256) failed: Connection timed out
[1739922092.700987] [ohm:601901:0]        ib_iface.c:1059 UCX  ERROR ibv_create_cq(cqe=256) failed: Connection timed out
[1739922092.710695] [ohm:602015:0]        ib_iface.c:1059 UCX  ERROR ibv_create_cq(cqe=256) failed: Connection timed out
[1739922092.715222] [ohm:602009:0]        ib_iface.c:1059 UCX  ERROR ibv_create_cq(cqe=256) failed: Connection timed out
[1739922092.715603] [ohm:601995:0]        ib_iface.c:1059 UCX  ERROR ibv_create_cq(cqe=256) failed: Connection timed out
[1739922092.717546] [ohm:601954:0]        ib_iface.c:1059 UCX  ERROR ibv_create_cq(cqe=256) failed: Connection timed out
[1739922092.722348] [ohm:601944:0]        ib_iface.c:1059 UCX  ERROR ibv_create_cq(cqe=256) failed: Connection timed out
[1739922092.722390] [ohm:602017:0]        ib_iface.c:1059 UCX  ERROR ibv_create_cq(cqe=256) failed: Connection timed out
[1739922092.726890] [ohm:601925:0]        ib_iface.c:1059 UCX  ERROR ibv_create_cq(cqe=256) failed: Connection timed out
[1739922092.730310] [ohm:601917:0]        ib_iface.c:1059 UCX  ERROR ibv_create_cq(cqe=256) failed: Connection timed out
[1739922092.730589] [ohm:601948:0]        ib_iface.c:1059 UCX  ERROR ibv_create_cq(cqe=256) failed: Connection timed out
[1739922092.732083] [ohm:601978:0]        ib_iface.c:1059 UCX  ERROR ibv_create_cq(cqe=256) failed: Connection timed out
[1739922092.732337] [ohm:601992:0]        ib_iface.c:1059 UCX  ERROR ibv_create_cq(cqe=256) failed: Connection timed out
[1739922092.733243] [ohm:601904:0]        ib_iface.c:1059 UCX  ERROR ibv_create_cq(cqe=256) failed: Connection timed out
[1739922092.734895] [ohm:601890:0]        ib_iface.c:1059 UCX  ERROR ibv_create_cq(cqe=256) failed: Connection timed out
[1739922092.736876] [ohm:601950:0]        ib_iface.c:1059 UCX  ERROR ibv_create_cq(cqe=256) failed: Connection timed out
[1739922092.736917] [ohm:601893:0]        ib_iface.c:1059 UCX  ERROR ibv_create_cq(cqe=256) failed: Connection timed out
[1739922092.737767] [ohm:601947:0]        ib_iface.c:1059 UCX  ERROR ibv_create_cq(cqe=256) failed: Connection timed out
[1739922092.738193] [ohm:601946:0]        ib_iface.c:1059 UCX  ERROR ibv_create_cq(cqe=256) failed: Connection timed out
[1739922092.739859] [ohm:601959:0]        ib_iface.c:1059 UCX  ERROR ibv_create_cq(cqe=256) failed: Connection timed out
[1739922092.740007] [ohm:601957:0]        ib_iface.c:1059 UCX  ERROR ibv_create_cq(cqe=256) failed: Connection timed out
[1739922092.746611] [ohm:601985:0]        ib_iface.c:1059 UCX  ERROR ibv_create_cq(cqe=256) failed: Connection timed out


           ************************************************************
           *        Program running with 64 parallel MPI-processes    *
           *              working on a common directory               *
           ************************************************************

-------------------------------------------------------------------------------------------
                                      ORCA LEAN-SCF
                              memory conserving SCF solver
-------------------------------------------------------------------------------------------

----------------------------------------D-I-I-S--------------------------------------------
Iteration    Energy (Eh)           Delta-E    RMSDP     MaxDP     DIISErr   Damp  Time(sec)
-------------------------------------------------------------------------------------------
               ***  Starting incremental Fock matrix formation  ***
    1    -907.9846074773279270     0.00e+00  1.41e-03  2.11e-01  1.56e-01  0.700   7.9
Warning: op=0 Small HOMO/LUMO gap (   0.038) - skipping pre-diagonalization
         Will do a full diagonalization
    2    -908.2772190891062110    -2.93e-01  1.37e-03  1.43e-01  7.68e-02  0.700   6.8
                               ***Turning on AO-DIIS***
    3    -908.4106960031638209    -1.33e-01  8.89e-04  8.37e-02  2.98e-02  0.700   5.8
    4    -908.4914156916640877    -8.07e-02  1.91e-03  1.57e-01  1.97e-02  0.000   5.8
    5    -908.6766855279076935    -1.85e-01  3.61e-04  7.68e-02  1.03e-02  0.000   6.0
    6    -908.6817335706098220    -5.05e-03  2.59e-04  3.79e-02  9.94e-03  0.000   5.7
    7    -908.6863861319927764    -4.65e-03  2.27e-04  3.08e-02  1.03e-02  0.000   5.8
    8    -908.6905537735090093    -4.17e-03  2.37e-04  3.64e-02  1.02e-02  0.000   5.7
    9    -908.6946841400447283    -4.13e-03  4.61e-04  8.85e-02  1.01e-02  0.000   5.7
   10    -908.7011782550187036    -6.49e-03  2.26e-04  3.39e-02  1.03e-02  0.000   5.8
   11    -908.7052423881912091    -4.06e-03  1.13e-03  2.93e-01  8.47e-03  0.000   5.7
   12    -908.7115485850297318    -6.31e-03  4.50e-04  1.38e-01  7.54e-03  0.000   5.9
   13    -908.7137519646450983    -2.20e-03  3.48e-04  1.08e-01  5.14e-03  0.000   5.8
                              *** Initializing SOSCF ***
---------------------------------------S-O-S-C-F--------------------------------------
Iteration    Energy (Eh)           Delta-E    RMSDP     MaxDP     MaxGrad    Time(sec)
--------------------------------------------------------------------------------------
   14    -908.7153148610716471    -1.56e-03  9.18e-05  1.82e-02  3.10e-03     6.7
               *** Restarting incremental Fock matrix formation ***
   15    -908.7159164367760695    -6.02e-04  2.52e-04  5.27e-02  5.93e-03     7.7
   16    -908.7162005688467161    -2.84e-04  1.53e-04  3.10e-02  3.26e-03     6.9
   17    -908.7163877854093244    -1.87e-04  7.75e-05  7.79e-03  9.39e-04     6.9
   18    -908.7164181577456930    -3.04e-05  5.33e-05  8.38e-03  4.80e-04     6.8
   19    -908.7164337416099897    -1.56e-05  1.44e-05  1.75e-03  3.23e-04     6.6
   20    -908.7164376749453822    -3.93e-06  1.39e-05  2.13e-03  2.77e-04     6.5
   21    -908.7164400187568845    -2.34e-06  7.05e-06  1.22e-03  1.49e-04     6.4
   22    -908.7164406954982496    -6.77e-07  4.94e-06  7.11e-04  4.80e-05     6.3
   23    -908.7164408785049545    -1.83e-07  2.12e-06  2.95e-04  3.98e-05     6.1
   24    -908.7164409330355284    -5.45e-08  1.46e-06  4.63e-04  1.64e-05     5.9
   25    -908.7164409912932115    -5.83e-08  9.58e-07  2.77e-04  1.02e-05     5.9
   26    -908.7164410067550762    -1.55e-08  1.44e-06  3.45e-04  4.55e-06     5.8
   27    -908.7164409817557953     2.50e-08  9.36e-07  1.71e-04  2.89e-06     5.7
   28    -908.7164409767017332     5.05e-09  1.07e-06  1.87e-04  9.73e-07     5.5
                 **** Energy Check signals convergence ****

               *****************************************************
               *                     SUCCESS                       *
               *           SCF CONVERGED AFTER  28 CYCLES          *
               *****************************************************

Recomputing exchange energy using gridx3       ... done (    7.959 sec)
Old exchange energy                            :    -35.050245171 Eh
New exchange energy                            :    -35.050233900 Eh
Exchange energy change after final integration :      0.000011270 Eh
Total energy after final integration           :   -908.716429706 Eh
             **** ENERGY FILE WAS UPDATED (orca.en.tmp) ****

----------------
TOTAL SCF ENERGY
----------------

Total Energy       :       -908.71642970634355 Eh          -24727.43117 eV

Components:
Nuclear Repulsion  :       1455.27109143670464 Eh           39599.93962 eV
Electronic Energy  :      -2363.98753241340637 Eh          -64327.37110 eV
One Electron Energy:      -4128.03916407275301 Eh         -112329.65638 eV
Two Electron Energy:       1764.05163165934687 Eh           48002.28529 eV

Virial components:
Potential Energy   :      -1815.15612519336082 Eh          -49392.90925 eV
Kinetic Energy     :        906.43969548701716 Eh           24665.47808 eV
Virial Ratio       :          2.00251173269514

DFT components:
N(Alpha)           :       67.000166958802 electrons
N(Beta)            :       65.000156473765 electrons
N(Total)           :      132.000323432568 electrons
E(XC)              :      -86.353878218832 Eh       

---------------
SCF CONVERGENCE
---------------

  Last Energy change         ...   -5.0541e-09  Tolerance :   1.0000e-08
  Last MAX-Density change    ...    1.8722e-04  Tolerance :   1.0000e-07
  Last RMS-Density change    ...    1.0697e-06  Tolerance :   5.0000e-09
  Last DIIS Error            ...    3.1028e-03  Tolerance :   5.0000e-07
  Last Orbital Gradient      ...    9.7270e-07  Tolerance :   1.0000e-05
  Last Orbital Rotation      ...    5.5624e-06  Tolerance :   1.0000e-05


----------------------
UHF SPIN CONTAMINATION
----------------------

Warning: in a DFT calculation there is little theoretical justification to 
         calculate <S**2> as in Hartree-Fock theory. We will do it anyways
         but you should keep in mind that the values have only limited relevance

Expectation value of <S**2>     :     2.009984
Ideal value S*(S+1) for S=1.0   :     2.000000
Deviation                       :     0.009984

----------------
ORBITAL ENERGIES
----------------
                 SPIN UP ORBITALS
  NO   OCC          E(Eh)            E(eV) 
   0   1.0000     -19.333950      -526.1035 
   1   1.0000     -19.325153      -525.8642 
   2   1.0000     -19.317917      -525.6672 
   3   1.0000     -19.317025      -525.6430 
   4   1.0000     -14.594704      -397.1421 
   5   1.0000     -14.576706      -396.6523 
   6   1.0000     -14.558409      -396.1544 
   7   1.0000     -14.547672      -395.8623 
   8   1.0000     -10.511749      -286.0392 
   9   1.0000     -10.501690      -285.7655 
  10   1.0000     -10.471035      -284.9313 
  11   1.0000     -10.463202      -284.7182 
  12   1.0000     -10.440761      -284.1076 
  13   1.0000     -10.413341      -283.3614 
  14   1.0000     -10.405417      -283.1458 
  15   1.0000     -10.375432      -282.3299 
  16   1.0000     -10.360884      -281.9340 
  17   1.0000     -10.354228      -281.7529 
  18   1.0000      -1.228766       -33.4364 
  19   1.0000      -1.224748       -33.3271 
  20   1.0000      -1.198838       -32.6221 
  21   1.0000      -1.182614       -32.1806 
  22   1.0000      -1.126747       -30.6603 
  23   1.0000      -1.125734       -30.6328 
  24   1.0000      -1.067428       -29.0462 
  25   1.0000      -1.065519       -28.9942 
  26   1.0000      -0.975755       -26.5517 
  27   1.0000      -0.945648       -25.7324 
  28   1.0000      -0.859659       -23.3925 
  29   1.0000      -0.845466       -23.0063 
  30   1.0000      -0.820838       -22.3361 
  31   1.0000      -0.808732       -22.0067 
  32   1.0000      -0.797477       -21.7005 
  33   1.0000      -0.790260       -21.5041 
  34   1.0000      -0.702996       -19.1295 
  35   1.0000      -0.694936       -18.9102 
  36   1.0000      -0.690559       -18.7911 
  37   1.0000      -0.684253       -18.6195 
  38   1.0000      -0.644540       -17.5388 
  39   1.0000      -0.635079       -17.2814 
  40   1.0000      -0.630789       -17.1646 
  41   1.0000      -0.603169       -16.4130 
  42   1.0000      -0.598289       -16.2803 
  43   1.0000      -0.587475       -15.9860 
  44   1.0000      -0.577222       -15.7070 
  45   1.0000      -0.571228       -15.5439 
  46   1.0000      -0.557943       -15.1824 
  47   1.0000      -0.554995       -15.1022 
  48   1.0000      -0.551358       -15.0032 
  49   1.0000      -0.545705       -14.8494 
  50   1.0000      -0.539210       -14.6726 
  51   1.0000      -0.526089       -14.3156 
  52   1.0000      -0.516652       -14.0588 
  53   1.0000      -0.506291       -13.7769 
  54   1.0000      -0.502365       -13.6701 
  55   1.0000      -0.491411       -13.3720 
  56   1.0000      -0.489700       -13.3254 
  57   1.0000      -0.477223       -12.9859 
  58   1.0000      -0.423735       -11.5304 
  59   1.0000      -0.412643       -11.2286 
  60   1.0000      -0.408249       -11.1090 
  61   1.0000      -0.397727       -10.8227 
  62   1.0000      -0.391287       -10.6475 
  63   1.0000      -0.387078       -10.5329 
  64   1.0000      -0.381421       -10.3790 
  65   1.0000      -0.334914        -9.1135 
  66   1.0000      -0.226627        -6.1668 
  67   0.0000       0.011426         0.3109 
  68   0.0000       0.018532         0.5043 
  69   0.0000       0.031049         0.8449 
  70   0.0000       0.039089         1.0637 
  71   0.0000       0.041296         1.1237 
  72   0.0000       0.055683         1.5152 
  73   0.0000       0.059881         1.6294 
  74   0.0000       0.064322         1.7503 
  75   0.0000       0.067167         1.8277 
  76   0.0000       0.068494         1.8638 
  77   0.0000       0.070432         1.9166 

                 SPIN DOWN ORBITALS
  NO   OCC          E(Eh)            E(eV) 
   0   1.0000     -19.331919      -526.0483 
   1   1.0000     -19.319718      -525.7162 
   2   1.0000     -19.317898      -525.6667 
   3   1.0000     -19.316773      -525.6361 
   4   1.0000     -14.590774      -397.0351 
   5   1.0000     -14.576687      -396.6518 
   6   1.0000     -14.558433      -396.1551 
   7   1.0000     -14.546795      -395.8384 
   8   1.0000     -10.511937      -286.0444 
   9   1.0000     -10.501692      -285.7656 
  10   1.0000     -10.471063      -284.9321 
  11   1.0000     -10.463192      -284.7179 
  12   1.0000     -10.440727      -284.1066 
  13   1.0000     -10.403058      -283.0816 
  14   1.0000     -10.394238      -282.8416 
  15   1.0000     -10.375423      -282.3296 
  16   1.0000     -10.361323      -281.9459 
  17   1.0000     -10.354081      -281.7489 
  18   1.0000      -1.227647       -33.4060 
  19   1.0000      -1.221194       -33.2304 
  20   1.0000      -1.191135       -32.4124 
  21   1.0000      -1.182185       -32.1689 
  22   1.0000      -1.125791       -30.6343 
  23   1.0000      -1.117143       -30.3990 
  24   1.0000      -1.067360       -29.0444 
  25   1.0000      -1.060462       -28.8566 
  26   1.0000      -0.951658       -25.8959 
  27   1.0000      -0.945031       -25.7156 
  28   1.0000      -0.848115       -23.0784 
  29   1.0000      -0.844615       -22.9832 
  30   1.0000      -0.810900       -22.0657 
  31   1.0000      -0.807705       -21.9788 
  32   1.0000      -0.790598       -21.5133 
  33   1.0000      -0.790023       -21.4976 
  34   1.0000      -0.693942       -18.8831 
  35   1.0000      -0.690581       -18.7917 
  36   1.0000      -0.684622       -18.6295 
  37   1.0000      -0.683233       -18.5917 
  38   1.0000      -0.636789       -17.3279 
  39   1.0000      -0.631822       -17.1927 
  40   1.0000      -0.624926       -17.0051 
  41   1.0000      -0.593815       -16.1585 
  42   1.0000      -0.589439       -16.0394 
  43   1.0000      -0.585936       -15.9441 
  44   1.0000      -0.565608       -15.3910 
  45   1.0000      -0.560045       -15.2396 
  46   1.0000      -0.556901       -15.1541 
  47   1.0000      -0.550372       -14.9764 
  48   1.0000      -0.546246       -14.8641 
  49   1.0000      -0.540326       -14.7030 
  50   1.0000      -0.529354       -14.4044 
  51   1.0000      -0.517937       -14.0938 
  52   1.0000      -0.508662       -13.8414 
  53   1.0000      -0.501223       -13.6390 
  54   1.0000      -0.499017       -13.5789 
  55   1.0000      -0.490986       -13.3604 
  56   1.0000      -0.477367       -12.9898 
  57   1.0000      -0.446771       -12.1573 
  58   1.0000      -0.418705       -11.3935 
  59   1.0000      -0.412230       -11.2174 
  60   1.0000      -0.395786       -10.7699 
  61   1.0000      -0.386637       -10.5209 
  62   1.0000      -0.384035       -10.4501 
  63   1.0000      -0.380484       -10.3535 
  64   1.0000      -0.333795        -9.0830 
  65   0.0000      -0.105237        -2.8636 
  66   0.0000       0.011115         0.3024 
  67   0.0000       0.019668         0.5352 
  68   0.0000       0.030018         0.8168 
  69   0.0000       0.038900         1.0585 
  70   0.0000       0.039283         1.0690 
  71   0.0000       0.053754         1.4627 
  72   0.0000       0.056519         1.5379 
  73   0.0000       0.060320         1.6414 
  74   0.0000       0.066476         1.8089 
  75   0.0000       0.069445         1.8897 
*Only the first 10 virtual orbitals were printed.

                    ********************************
                    * MULLIKEN POPULATION ANALYSIS *
                    ********************************

--------------------------------------------
MULLIKEN ATOMIC CHARGES AND SPIN POPULATIONS
--------------------------------------------
   0 O :   -0.691145    0.013341
   1 O :   -0.680859    0.204766
   2 O :   -0.643524    0.000752
   3 O :   -0.671572    0.075337
   4 N :    0.112248    0.000925
   5 N :    0.099918    0.177629
   6 N :    0.030758   -0.000281
   7 N :    0.074164    0.036799
   8 C :    0.586757    0.038052
   9 C :    0.880814    0.295624
  10 C :   -0.104729   -0.000638
  11 C :   -0.643035    0.911275
  12 C :   -1.283877   -0.005238
  13 C :   -1.381466   -0.016617
  14 C :    0.451086   -0.009893
  15 C :    0.828336    0.260312
  16 C :    0.390023   -0.000390
  17 C :    0.474335   -0.014547
  18 H :    0.184067    0.003638
  19 H :    0.148806    0.000117
  20 H :    0.260600    0.000445
  21 H :    0.331209   -0.002386
  22 H :    0.340520    0.004571
  23 H :    0.356870    0.007478
  24 H :    0.337302    0.012844
[...]
[1739922428.880229] [ohm:604855:0]        ib_iface.c:1059 UCX  ERROR ibv_create_cq(cqe=256) failed: Connection timed out
[1739922428.882118] [ohm:604970:0]        ib_iface.c:1059 UCX  ERROR ibv_create_cq(cqe=256) failed: Connection timed out
[1739922428.885246] [ohm:604854:0]        ib_iface.c:1059 UCX  ERROR ibv_create_cq(cqe=256) failed: Connection timed out
[1739922428.885549] [ohm:604924:0]        ib_iface.c:1059 UCX  ERROR ibv_create_cq(cqe=256) failed: Connection timed out
[1739922428.887572] [ohm:604943:0]        ib_iface.c:1059 UCX  ERROR ibv_create_cq(cqe=256) failed: Connection timed out
[1739922428.888580] [ohm:604842:0]        ib_iface.c:1059 UCX  ERROR ibv_create_cq(cqe=256) failed: Connection timed out
[1739922428.889702] [ohm:604865:0]        ib_iface.c:1059 UCX  ERROR ibv_create_cq(cqe=256) failed: Connection timed out
[1739922428.890123] [ohm:604859:0]        ib_iface.c:1059 UCX  ERROR ibv_create_cq(cqe=256) failed: Connection timed out
[1739922428.891418] [ohm:604841:0]        ib_iface.c:1059 UCX  ERROR ibv_create_cq(cqe=256) failed: Connection timed out
[1739922428.891977] [ohm:604840:0]        ib_iface.c:1059 UCX  ERROR ibv_create_cq(cqe=256) failed: Connection timed out
[1739922428.893529] [ohm:604852:0]        ib_iface.c:1059 UCX  ERROR ibv_create_cq(cqe=256) failed: Connection timed out


           ************************************************************
           *        Program running with 64 parallel MPI-processes    *
           *              working on a common directory               *
           ************************************************************

------------------------------------------------------------------------------
                              ORCA PROPERTY CALCULATIONS
------------------------------------------------------------------------------

GBWName                                 ... orca.gbw
Number of atoms                         ...     30
Number of basis functions               ...    882
Max core memory                         ...   1024 MB

Electric properties:
Dipole moment                           ... YES
Quadrupole moment                       ...  NO
Static polarizability (Dipole/Dipole)   ...  NO
Static polarizability (Dipole/Quad.)    ...  NO
Static polarizability (Quad./Quad.)     ...  NO
Static polarizability (Velocity)        ...  NO

Atomic electric properties:
Dipole moment                           ...  NO
Quadrupole moment                       ...  NO
Static polarizability                   ...  NO

Choice of electric origin               ... Center of mass
Position of electric origin             ...     0.015562    -0.016963     0.083134

General magnetic properties:
Magnetizability                         ...  NO

EPR properties:
g-Tensor (aka g-matrix)                 ...  NO
Zero-Field splitting spin-orbit         ...  NO
Zero-field splitting spin-spin          ...  NO
Hyperfine couplings                     ...  NO (   0 nuclei)
Quadrupole couplings                    ...  NO (   0 nuclei)
Contact density                         ...  NO (   0 nuclei)

NMR properties:
Chemical shifts                         ...  NO (   0 nuclei)
Spin-rotation constants                 ...  NO (   0 nuclei)
Spin-spin couplings                     ...  NO (   0 nuclei,    0 pairs)

Choice of magnetic origin               ... GIAO
Position of magnetic origin             ...     0.000000     0.000000     0.000000

Properties with geometric perturbations:
SCF Hessian                             ...  NO
IR spectrum                             ...  NO
VCD spectrum                            ...  NO
X-ray spectroscopy properties:
SCF XES/XAS/RIXS spectra                ...  NO


-------------
DIPOLE MOMENT
-------------

Method             : SCF
Type of density    : Electron Density
Multiplicity       :   3
Irrep              :   0
Energy             :  -908.7164297063435470 Eh
Relativity type    : 
Basis              : AO
                                X                 Y                 Z
Electronic contribution:     -1.681827318     -10.286936803      -5.697522579
Nuclear contribution   :      1.051264282      11.299733194       8.045466526
                        -----------------------------------------
Total Dipole Moment    :     -0.630563036       1.012796391       2.347943947
                        -----------------------------------------
Magnitude (a.u.)       :      2.633667984
Magnitude (Debye)      :      6.694252015



--------------------
Rotational spectrum 
--------------------
 
Rotational constants in cm-1:             0.017503             0.015857             0.013728 
Rotational constants in MHz :           524.735699           475.375395           411.544804 

Dipole components along the rotational axes: 
x,y,z [a.u.] :    -1.123333    -0.355837     2.355358 
x,y,z [Debye]:    -2.855287    -0.904465     5.986843 

 

-------------
DIPOLE MOMENT
-------------

Method             : TDA/CIS
Type of density    : Electron Density
Level              : Relaxed density
State              :   2
Multiplicity       :   3
Irrep              :   0
Energy             :     0.0000000000000000 Eh
Relativity type    : 
Basis              : AO
                                X                 Y                 Z
Electronic contribution:     -1.735148231     -10.290496037      -5.624436748
Nuclear contribution   :      1.051264282      11.299733194       8.045466526
                        -----------------------------------------
Total Dipole Moment    :     -0.683883949       1.009237157       2.421029778
                        -----------------------------------------
Magnitude (a.u.)       :      2.710653442
Magnitude (Debye)      :      6.889933497



--------------------
Rotational spectrum 
--------------------
 
Rotational constants in cm-1:             0.017503             0.015857             0.013728 
Rotational constants in MHz :           524.735699           475.375395           411.544804 

Dipole components along the rotational axes: 
x,y,z [a.u.] :    -1.138153    -0.411077     2.425545 
x,y,z [Debye]:    -2.892954    -1.044875     6.165244 

 

Dipole moment calculation done in   0.2 sec 

Maximum memory used throughout the entire PROP-calculation: 81.8 MB
[1739922431.288195] [ohm:605189:0]        ib_iface.c:1059 UCX  ERROR ibv_create_cq(cqe=256) failed: Connection timed out
[1739922431.295048] [ohm:605196:0]        ib_iface.c:1059 UCX  ERROR ibv_create_cq(cqe=256) failed: Connection timed out
[1739922431.305155] [ohm:605187:0]        ib_iface.c:1059 UCX  ERROR ibv_create_cq(cqe=256) failed: Connection timed out
[1739922431.307634] [ohm:605186:0]        ib_iface.c:1059 UCX  ERROR ibv_create_cq(cqe=256) failed: Connection timed out
[1739922431.309120] [ohm:605192:0]        ib_iface.c:1059 UCX  ERROR ibv_create_cq(cqe=256) failed: Connection timed out
[1739922431.329357] [ohm:605199:0]        ib_iface.c:1059 UCX  ERROR ibv_create_cq(cqe=256) failed: Connection timed out
[1739922431.334582] [ohm:605188:0]        ib_iface.c:1059 UCX  ERROR ibv_create_cq(cqe=256) failed: Connection timed out
[1739922431.339029] [ohm:605191:0]        ib_iface.c:1059 UCX  ERROR ibv_create_cq(cqe=256) failed: Connection timed out
[1739922431.339882] [ohm:605218:0]        ib_iface.c:1059 UCX  ERROR ibv_create_cq(cqe=256) failed: Connection timed out
[1739922431.344674] [ohm:605207:0]        ib_iface.c:1059 UCX  ERROR ibv_create_cq(cqe=256) failed: Connection timed out
[1739922431.387191] [ohm:605193:0]        ib_iface.c:1059 UCX  ERROR ibv_create_cq(cqe=256) failed: Connection timed out
[1739922431.390887] [ohm:605210:0]        ib_iface.c:1059 UCX  ERROR ibv_create_cq(cqe=256) failed: Connection timed out
[1739922431.391214] [ohm:605259:0]        ib_iface.c:1059 UCX  ERROR ibv_create_cq(cqe=256) failed: Connection timed out
[1739922431.397057] [ohm:605214:0]        ib_iface.c:1059 UCX  ERROR ibv_create_cq(cqe=256) failed: Connection timed out
[1739922431.397816] [ohm:605205:0]        ib_iface.c:1059 UCX  ERROR ibv_create_cq(cqe=256) failed: Connection timed out
[1739922431.401513] [ohm:605237:0]        ib_iface.c:1059 UCX  ERROR ibv_create_cq(cqe=256) failed: Connection timed out
[1739922431.403111] [ohm:605201:0]        ib_iface.c:1059 UCX  ERROR ibv_create_cq(cqe=256) failed: Connection timed out
[1739922431.403163] [ohm:605202:0]        ib_iface.c:1059 UCX  ERROR ibv_create_cq(cqe=256) failed: Connection timed out
[1739922431.408231] [ohm:605229:0]        ib_iface.c:1059 UCX  ERROR ibv_create_cq(cqe=256) failed: Connection timed out
[1739922431.410356] [ohm:605300:0]        ib_iface.c:1059 UCX  ERROR ibv_create_cq(cqe=256) failed: Connection timed out
[1739922431.417196] [ohm:605208:0]        ib_iface.c:1059 UCX  ERROR ibv_create_cq(cqe=256) failed: Connection timed out
[1739922431.461844] [ohm:605204:0]        ib_iface.c:1059 UCX  ERROR ibv_create_cq(cqe=256) failed: Connection timed out
[1739922431.465365] [ohm:605206:0]        ib_iface.c:1059 UCX  ERROR ibv_create_cq(cqe=256) failed: Connection timed out
[1739922431.470043] [ohm:605280:0]        ib_iface.c:1059 UCX  ERROR ibv_create_cq(cqe=256) failed: Connection timed out
[1739922431.471214] [ohm:605246:0]        ib_iface.c:1059 UCX  ERROR ibv_create_cq(cqe=256) failed: Connection timed out
[1739922431.472028] [ohm:605278:0]        ib_iface.c:1059 UCX  ERROR ibv_create_cq(cqe=256) failed: Connection timed out
[1739922431.486678] [ohm:605337:0]        ib_iface.c:1059 UCX  ERROR ibv_create_cq(cqe=256) failed: Connection timed out
[1739922431.499830] [ohm:605197:0]        ib_iface.c:1059 UCX  ERROR ibv_create_cq(cqe=256) failed: Connection timed out
[1739922431.500111] [ohm:605216:0]        ib_iface.c:1059 UCX  ERROR ibv_create_cq(cqe=256) failed: Connection timed out
[1739922431.515419] [ohm:605226:0]        ib_iface.c:1059 UCX  ERROR ibv_create_cq(cqe=256) failed: Connection timed out
[1739922431.516343] [ohm:605256:0]        ib_iface.c:1059 UCX  ERROR ibv_create_cq(cqe=256) failed: Connection timed out
[1739922431.520078] [ohm:605221:0]        ib_iface.c:1059 UCX  ERROR ibv_create_cq(cqe=256) failed: Connection timed out
[1739922431.526926] [ohm:605238:0]        ib_iface.c:1059 UCX  ERROR ibv_create_cq(cqe=256) failed: Connection timed out
[1739922431.532742] [ohm:605319:0]        ib_iface.c:1059 UCX  ERROR ibv_create_cq(cqe=256) failed: Connection timed out
[1739922431.534934] [ohm:605273:0]        ib_iface.c:1059 UCX  ERROR ibv_create_cq(cqe=256) failed: Connection timed out
[1739922431.539125] [ohm:605267:0]        ib_iface.c:1059 UCX  ERROR ibv_create_cq(cqe=256) failed: Connection timed out
[1739922431.540565] [ohm:605317:0]        ib_iface.c:1059 UCX  ERROR ibv_create_cq(cqe=256) failed: Connection timed out
[1739922431.541992] [ohm:605321:0]        ib_iface.c:1059 UCX  ERROR ibv_create_cq(cqe=256) failed: Connection timed out
[1739922431.542679] [ohm:605305:0]        ib_iface.c:1059 UCX  ERROR ibv_create_cq(cqe=256) failed: Connection timed out
[1739922431.547094] [ohm:605212:0]        ib_iface.c:1059 UCX  ERROR ibv_create_cq(cqe=256) failed: Connection timed out
[1739922431.548499] [ohm:605289:0]        ib_iface.c:1059 UCX  ERROR ibv_create_cq(cqe=256) failed: Connection timed out
[1739922431.550809] [ohm:605261:0]        ib_iface.c:1059 UCX  ERROR ibv_create_cq(cqe=256) failed: Connection timed out
[1739922431.554250] [ohm:605198:0]        ib_iface.c:1059 UCX  ERROR ibv_create_cq(cqe=256) failed: Connection timed out
[1739922431.554337] [ohm:605234:0]        ib_iface.c:1059 UCX  ERROR ibv_create_cq(cqe=256) failed: Connection timed out
[1739922431.556123] [ohm:605307:0]        ib_iface.c:1059 UCX  ERROR ibv_create_cq(cqe=256) failed: Connection timed out
[1739922431.560256] [ohm:605309:0]        ib_iface.c:1059 UCX  ERROR ibv_create_cq(cqe=256) failed: Connection timed out
[1739922431.568602] [ohm:605314:0]        ib_iface.c:1059 UCX  ERROR ibv_create_cq(cqe=256) failed: Connection timed out
[1739922431.575841] [ohm:605277:0]        ib_iface.c:1059 UCX  ERROR ibv_create_cq(cqe=256) failed: Connection timed out
[1739922431.576516] [ohm:605303:0]        ib_iface.c:1059 UCX  ERROR ibv_create_cq(cqe=256) failed: Connection timed out
[1739922431.583898] [ohm:605232:0]        ib_iface.c:1059 UCX  ERROR ibv_create_cq(cqe=256) failed: Connection timed out
[1739922431.584278] [ohm:605190:0]        ib_iface.c:1059 UCX  ERROR ibv_create_cq(cqe=256) failed: Connection timed out
[1739922431.585802] [ohm:605211:0]        ib_iface.c:1059 UCX  ERROR ibv_create_cq(cqe=256) failed: Connection timed out
[1739922431.588285] [ohm:605283:0]        ib_iface.c:1059 UCX  ERROR ibv_create_cq(cqe=256) failed: Connection timed out
[1739922431.590391] [ohm:605292:0]        ib_iface.c:1059 UCX  ERROR ibv_create_cq(cqe=256) failed: Connection timed out
[1739922431.591874] [ohm:605248:0]        ib_iface.c:1059 UCX  ERROR ibv_create_cq(cqe=256) failed: Connection timed out
[1739922431.593131] [ohm:605200:0]        ib_iface.c:1059 UCX  ERROR ibv_create_cq(cqe=256) failed: Connection timed out
[1739922431.593410] [ohm:605328:0]        ib_iface.c:1059 UCX  ERROR ibv_create_cq(cqe=256) failed: Connection timed out
[1739922431.594584] [ohm:605269:0]        ib_iface.c:1059 UCX  ERROR ibv_create_cq(cqe=256) failed: Connection timed out
[1739922431.595824] [ohm:605301:0]        ib_iface.c:1059 UCX  ERROR ibv_create_cq(cqe=256) failed: Connection timed out
[1739922431.595825] [ohm:605203:0]        ib_iface.c:1059 UCX  ERROR ibv_create_cq(cqe=256) failed: Connection timed out
[1739922431.597192] [ohm:605274:0]        ib_iface.c:1059 UCX  ERROR ibv_create_cq(cqe=256) failed: Connection timed out
[1739922431.598429] [ohm:605194:0]        ib_iface.c:1059 UCX  ERROR ibv_create_cq(cqe=256) failed: Connection timed out
[1739922431.601838] [ohm:605209:0]        ib_iface.c:1059 UCX  ERROR ibv_create_cq(cqe=256) failed: Connection timed out
[1739922431.608729] [ohm:605195:0]        ib_iface.c:1059 UCX  ERROR ibv_create_cq(cqe=256) failed: Connection timed out

--------------------------------
SUGGESTED CITATIONS FOR THIS RUN
--------------------------------

Below you find a list of papers that are relevant to this ORCA run
We neither can nor want to force you to cite these papers, but we appreciate if you do
You receive ORCA, which is the product of decades of hard work by many enthusiastic individuals, for free
The only thing we kindly ask in return is that you cite our papers,
We deeply appreciate it, if you show your appreciation for ORCA by not just citing the generic ORCA reference.

Please note that relegating all ORCA citations to the supporting information does *not* help us.
SI sections are not indexed - citations you put there will not count into any citation statistics
But we need these citations in order to attract the funding resources that allow us to do what we are doing

Therefore, if you are a happy ORCA user, please consider citing a few of the papers listed below in the main body of your paper

In addition to the list printed below, the program has created the file orca.bibtex that contains the list in bibtex format
You can import this file easily into all common literature databanks and citation aid programs


List of essential papers. We consider these as the minimum necessary citations

  1. Neese,F.
     Software update: the ORCA program system, version 5.0
     WIRES Comput. Molec. Sci., 2022 12(1)e1606
     doi.org/10.1002/wcms.1606

List of papers to cite with high priority. The work reported in these papers was absolutely
necessary for this run to complete.
Our perspective: the developers of density functionals and basis sets usually get cited in chemistry papers
Good! But without the algorithms to do something with them, the functionals or basis sets would not do anything.
Hence, in our opinion, the algorithm design and method developments papers are equally worthy of getting cited

  1. Neese,F.; Olbrich,G.
     Efficient use of the resolution of the identity approximation in time-dependent density functional calculations with hybrid density functionals
     Chem. Phys. Lett., 2002 362 170-178
     doi.org/10.1016/s0009-2614(02)01053-9
  2. Neese,F.
     An improvement of the resolution of the identity approximation for the formation of the Coulomb matrix
     J. Comp. Chem., 2003 24(14)1740-1747
     doi.org/10.1002/jcc.10318
  3. Neese,F.; Wennmohs,F.; Hansen,A.; Becker,U.
     Efficient, approximate and parallel Hartree-Fock and hybrid DFT calculations. A 'chain-of-spheres' algorithm for the Hartree-Fock exchange
     Chem. Phys., 2009 356(1-3)98-109
     doi.org/10.1016/j.chemphys.2008.10.036
  4. Petrenko,T.; Kossmann,S.; Neese,F.
     Efficient time-dependent density functional theory approximations for hybrid density functionals: Analytical gradients and parallelization
     J. Chem. Phys., 2011 134 054116
     doi.org/10.1063/1.3533441
  5. Helmich-Paris,B.; de Souza,B.; Neese,F.; Izsák,R.
     An improved chain of spheres for exchange algorithm
     J. Chem. Phys., 2021 155 104109
     doi.org/doi: 10.1063/5.0058766.
  6. Neese,F.
     The SHARK Integral Generation and Digestion System
     J. Comp. Chem., 2022  1-16
     doi.org/10.1002/jcc.26942
  7. Lehtola,S.; Steigemann,C.; Oliveira,M.; Marques,M.
     Recent developments in Libxc - A comprehensive library of functionals for density functional theory
     Software X, 2018 7 
     doi.org/10.1016/j.softx.2017.11.002
  8. Grimme,S.; Antony,J.; Ehrlich,S.; Krieg,H.
     A consistent and accurate ab initio parametrization of density functional dispersion correction (DFT-D) for the 94 elements H-Pu
     J. Chem. Phys., 2010 132 154104-XXXX
     doi.org/10.1063/1.3382344
  9. Grimme,S.; Ehrlich,S.; Goerigk,L.
     Effect of the damping function in dispersion corrected density functional theory
     J. Comput. Chem., 2011 32(7)1456-1465
     doi.org/10.1002/jcc.21759

List of suggested additional citations. These are papers that are important in the 'surrounding' of 
of this run, or papers that preceded the highly important papers. If you like your results we are grateful for a citation.

  1. Izsak,R.; Neese,F.
     An overlap fitted chain of spheres exchange method
     J. Chem. Phys., 2011 135 144105
     doi.org/10.1063/1.3646921
  2. Izsak,R.; Hansen,A.; Neese,F.
     The resolution of identity and chain of spheres approximations for the LPNO-CCSD singles Fock term
     Molec. Phys., 2012 110 2413-2417
     doi.org/10.1080/00268976.2012.687466
  3. Neese,F.
     The ORCA program system
     WIRES Comput. Molec. Sci., 2012 2(1)73-78
     doi.org/10.1002/wcms.81
  4. Izsak,R.; Neese,F.; Klopper,W.
     Robust fitting techniques in the chain of spheres approximation to the Fock exchange: The role of the complementary space
     J. Chem. Phys., 2013 139 
     doi.org/10.1063/1.4819264
  5. Neese,F.
     Software update: the ORCA program system, version 4.0
     WIRES Comput. Molec. Sci., 2018 8(1)1-6
     doi.org/10.1002/wcms.1327
  6. Neese,F.; Wennmohs,F.; Becker,U.; Riplinger,C.
     The ORCA quantum chemistry program package
     J. Chem. Phys., 2020 152 Art. No. L224108
     doi.org/10.1063/5.0004608

List of optional additional citations

  1. Neese,F.
     Approximate second-order SCF convergence for spin unrestricted wavefunctions
     Chem. Phys. Lett., 2000 325(1-3)93-98
     doi.org/10.1016/s0009-2614(00)00662-x

Timings for individual modules:

Sum of individual times          ...      349.677 sec (=   5.828 min)
Startup calculation              ...        6.668 sec (=   0.111 min)   1.9 %
SCF iterations                   ...      191.602 sec (=   3.193 min)  54.8 %
Property integrals               ...        4.494 sec (=   0.075 min)   1.3 %
Property calculations            ...        2.854 sec (=   0.048 min)   0.8 %
CIS module                       ...      144.059 sec (=   2.401 min)  41.2 %
                             ****ORCA TERMINATED NORMALLY****
TOTAL RUN TIME: 0 days 0 hours 5 minutes 51 seconds 688 msec
