7
Properties=species:S:1:pos:R:3:momenta:R:3:forces:R:3 Coordinates=T from=T ORCA-job=T orca=T E=T -153.873139603898=T energy=-4181.033639694353 free_energy=-4181.033639694353 stress="4.126584171857115e-06 1.9885124353349646e-05 -1.0861772261562543e-06 1.9885124353349646e-05 -4.517766982422282e-05 2.468431316026646e-08 -1.0861772261562543e-06 2.468431316026646e-08 7.51661761209399e-06" pbc="F F F"
O       -0.09587380       0.81258604       0.00547136      -0.64338693       3.63083646       0.42005029      -3.11496253       6.78803405       0.04721647
C        0.78326160      -0.55433774      -0.00686899       0.13529266      -2.24597146      -0.22833136       1.42959392      -5.08026211      -0.32009871
C       -0.73269882      -0.41232101       0.00179669       0.51450383      -1.78444340       0.04109774       2.07436941      -2.09527241      -0.27789270
H        1.32356388      -0.61643441       0.92915559       0.02837271       0.08617460      -0.16323980      -0.09604703      -0.08154818      -0.26452727
H        1.33225480      -0.61032461      -0.95646864       0.00066249       0.09934885      -0.00997958      -0.36906930      -0.05210291       0.63435469
H       -1.27872166      -0.61834054      -0.93675323       0.01806281       0.14063441      -0.04737074       0.05139322       0.28405286       0.43359121
H       -1.29184960      -0.62111751       0.92307181      -0.05350757       0.07342055      -0.01222655       0.02472230       0.23709870      -0.25264370
