
                                 *****************
                                 * O   R   C   A *
                                 *****************

                                            #,                                       
                                            ###                                      
                                            ####                                     
                                            #####                                    
                                            ######                                   
                                           ########,                                 
                                     ,,################,,,,,                         
                               ,,#################################,,                 
                          ,,##########################################,,             
                       ,#########################################, ''#####,          
                    ,#############################################,,   '####,        
                  ,##################################################,,,,####,       
                ,###########''''           ''''###############################       
              ,#####''   ,,,,##########,,,,          '''####'''          '####       
            ,##' ,,,,###########################,,,                        '##       
           ' ,,###''''                  '''############,,,                           
         ,,##''                                '''############,,,,        ,,,,,,###''
      ,#''                                            '''#######################'''  
     '                                                          ''''####''''         
             ,#######,   #######,   ,#######,      ##                                
            ,#'     '#,  ##    ##  ,#'     '#,    #''#        ,####,   ,####,        
            ##       ##  ##   ,#'  ##            #'  '#       #'       #'  '#        
            ##       ##  #######   ##           ,######,      #####,   #    #        
            '#,     ,#'  ##    ##  '#,     ,#' ,#      #,     #,   #   #,  ,#        
             '#######'   ##     ##  '#######'  #'      '#     '####' # '####'        



                #########################################################
                #                        -***-                          #
                #          Department of theory and spectroscopy        #
                #                                                       #
                #                      Frank Neese                      #
                #                                                       #
                #     Directorship, Architecture, Infrastructure        #
                #                    SHARK, DRIVERS                     #
                #        Core code/Algorithms in most modules           #
                #                                                       #
                #        Max Planck Institute fuer Kohlenforschung      #
                #                Kaiser Wilhelm Platz 1                 #
                #                 D-45470 Muelheim/Ruhr                 #
                #                      Germany                          #
                #                                                       #
                #                  All rights reserved                  #
                #                        -***-                          #
                #########################################################


                         Program Version 6.0.0  -   RELEASE  -


 With contributions from (in alphabetic order):
   Daniel Aravena         : Magnetic Suceptibility
   Michael Atanasov       : Ab Initio Ligand Field Theory (pilot matlab implementation)
   Alexander A. Auer      : GIAO ZORA, VPT2 properties, NMR spectrum
   Ute Becker             : All parallelization in ORCA, NUMFREQ, NUMCALC
   Giovanni Bistoni       : ED, misc. LED, open-shell LED, HFLD
   Martin Brehm           : Molecular dynamics
   Dmytro Bykov           : pre 5.0 version of the SCF Hessian
   Marcos Casanova-Páez   : Triplet and SCS-CIS(D). UHF-(DLPNO)-IP/EA/STEOM-CCSD. UHF-CVS-IP/STEOM-CCSD
   Vijay G. Chilkuri      : MRCI spin determinant printing, contributions to CSF-ICE
   Pauline Colinet        : FMM embedding
   Dipayan Datta          : RHF DLPNO-CCSD density
   Achintya Kumar Dutta   : EOM-CC, STEOM-CC
   Nicolas Foglia         : Exact transition moments, OPA infrastructure, MCD improvements
   Dmitry Ganyushin       : Spin-Orbit,Spin-Spin,Magnetic field MRCI
   Miquel Garcia          : C-PCM and meta-GGA Hessian, CCSD/C-PCM, Gaussian charge scheme
   Tiago L. C. Gouveia    : GS-ROHF, GS-ROCIS
   Yang Guo               : DLPNO-NEVPT2, F12-NEVPT2, CIM, IAO-localization
   Andreas Hansen         : Spin unrestricted coupled pair/coupled cluster methods
   Ingolf Harden          : AUTO-CI MPn and infrastructure 
   Benjamin Helmich-Paris : MC-RPA, TRAH-(SCF,CASSCF), AVAS, COSX integrals, SCF dyn. polar.
   Lee Huntington         : MR-EOM, pCC
   Robert Izsak           : Overlap fitted RIJCOSX, COSX-SCS-MP3, EOM
   Riya Kayal             : Wick's Theorem for AUTO-CI, AUTO-CI UHF-CCSDT
   Emily Kempfer          : AUTO-CI, RHF CISDT and CCSDT
   Christian Kollmar      : KDIIS, OOCD, Brueckner-CCSD(T), CCSD density, CASPT2, CASPT2-K, improved NEVPT2
   Axel Koslowski         : Symmetry handling
   Simone Kossmann        : Meta GGA functionals, TD-DFT gradient, OOMP2, (MP2 Hessian; deprecated post 5.0)
   Lucas Lang             : DCDCAS
   Marvin Lechner         : AUTO-CI (C++ implementation), FIC-MRCC
   Spencer Leger          : CASSCF response
   Dagmar Lenk            : GEPOL surface, SMD, ORCA-2-JSON
   Dimitrios Liakos       : Extrapolation schemes; Compound Job, initial MDCI parallelization
   Dimitrios Manganas     : Further ROCIS development; embedding schemes. LFT, Crystal Embedding
   Dimitrios Pantazis     : SARC Basis sets
   Anastasios Papadopoulos: AUTO-CI, single reference methods and gradients
   Taras Petrenko         : pre 6.0 DFT Hessian and TD-DFT gradient, (ASA, deprecated), ECA, 1-Electron XAS/XES, NRVS
   Peter Pinski           : DLPNO-MP2, DLPNO-MP2 Gradient
   Christoph Reimann      : Effective Core Potentials
   Marius Retegan         : Local ZFS, SOC
   Christoph Riplinger    : Optimizer, TS searches, QM/MM, DLPNO-CCSD(T), (RO)-DLPNO pert. Triples
   Michael Roemelt        : Original ROCIS implementation
   Masaaki Saitow         : Open-shell DLPNO-CCSD energy and density
   Barbara Sandhoefer     : DKH picture change effects
   Kantharuban Sivalingam : CASSCF convergence/infrastructure, NEVPT2 and variants, FIC-MRCI
   Bernardo de Souza      : ESD, SOC TD-DFT
   Georgi Stoychev        : AutoAux, RI-MP2 NMR, DLPNO-MP2 response, X2C
   Van Anh Tran           : RI-MP2 g-tensors
   Willem Van den Heuvel  : Paramagnetic NMR
   Zikuan Wang            : NOTCH, Electric field optimization 
   Frank Wennmohs         : Technical directorship and infrastructure
   Hang Xu                : AUTO-CI-Response properties 


 We gratefully acknowledge several colleagues who have allowed us to
 interface, adapt or use parts of their codes:
   Stefan Grimme, W. Hujo, H. Kruse, P. Pracht,  : VdW corrections, initial TS optimization,
                  C. Bannwarth, S. Ehlert,         DFT functionals, gCP, sTDA/sTD-DF
                  L. Wittmann, M. Mueller
   Ed Valeev, F. Pavosevic, A. Kumar             : LibInt (2-el integral package), F12 methods
   Garnet Chan, S. Sharma, J. Yang, R. Olivares  : DMRG
   Ulf Ekstrom                                   : XCFun DFT Library
   Mihaly Kallay                                 : mrcc  (arbitrary order and MRCC methods)
   Frank Weinhold                                : gennbo (NPA and NBO analysis)
   Simon Mueller                                 : openCOSMO-RS
   Christopher J. Cramer and Donald G. Truhlar   : smd solvation model
   Lars Goerigk                                  : TD-DFT with DH, B97 family of functionals
   V. Asgeirsson, H. Jonsson                     : NEB implementation
   FAccTs GmbH                                   : IRC, NEB, NEB-TS, DLPNO-Multilevel, CI-OPT
                                                   MM, QMMM, 2- and 3-layer-ONIOM, Crystal-QMMM,
                                                   LR-CPCM, SF, NACMEs, symmetry and pop. for TD-DFT,
                                                   nearIR, NL-DFT gradient (VV10), updates on ESD,
                                                   ML-optimized integration grids, MBIS, APM,
                                                   GOAT, DOCKER, SOLVATOR, interface openCOSMO-RS
   S Lehtola, MJT Oliveira, MAL Marques          : LibXC Library
   Liviu Ungur et al                             : ANISO software


 Your calculation uses the libint2 library for the computation of 2-el integrals
 For citations please refer to: http://libint.valeyev.net

 Your ORCA version has been built with support for libXC version: 6.2.2
 For citations please refer to: https://libxc.gitlab.io

 This ORCA versions uses:
   CBLAS   interface :  Fast vector & matrix operations
   LAPACKE interface :  Fast linear algebra routines
   SCALAPACK package :  Parallel linear algebra routines
   Shared memory     :  Shared parallel matrices
   BLAS/LAPACK       :  OpenBLAS 0.3.27  USE64BITINT DYNAMIC_ARCH NO_AFFINITY Zen SINGLE_THREADED
        Core in use  :  Zen
   Copyright (c) 2011-2014, The OpenBLAS Project


Your calculation utilizes the atom-pairwise dispersion correction
with the Becke-Johnson damping scheme (D3BJ)


Warning: RI is on but no J-basis has been assigned. Assigning Def2/J (nothing to worry about!)
================================================================================

----- Orbital basis set information -----
Your calculation utilizes the basis: def2-TZVPPD
   F. Weigend and R. Ahlrichs, Phys. Chem. Chem. Phys. 7, 3297 (2005).
   D. Rappoport and F. Furche, J. Chem. Phys. 133, 134105 (2010)
   D. Rappoport, J. Chem. Phys. 155, 124102 (2021).

----- AuxJ basis set information -----
Your calculation utilizes the auxiliary basis: def2/J
   F. Weigend, Phys. Chem. Chem. Phys. 8, 1057 (2006).

================================================================================
                                        WARNINGS
                       Please study these warnings very carefully!
================================================================================

Using LibXC functional ID 531 : wB97M-V exchange-correlation functional
[ 1]  N. Mardirossian and M. Head-Gordon.,  J. Chem. Phys. 144, 214110 (2016)
Using LibXC functional ID 531 : wB97M-V exchange-correlation functional
[ 1]  N. Mardirossian and M. Head-Gordon.,  J. Chem. Phys. 144, 214110 (2016)

WARNING: B97M-V or wB97M-V functional requested.
  ===> : libXC variant has now been activated.
         Any manually given DFX/HFX/RangeSep scaling parameters are IGNORED!

Your calculation utilizes LibXC
 by S Lehtola, C Steigemann, MJT Oliveira & MAL Marques
Please cite in your paper:
 S Lehtola, C Steigemann, MJT Oliveira & MAL Marques, SoftwareX, 7, (2018), 1.
   


WARNING: your system is open-shell and RHF/RKS was chosen
  ===> : WILL SWITCH to UHF/UKS

INFO   : Checking CIS options ...

WARNING: CIS/ROCIS methods need fully converged wavefunctions
  ===> : Setting SCFConvForced true
         You can overwrite this default with %scf ConvForced false 


================================================================================
                                       INPUT FILE
================================================================================
NAME = orca.inp
|  1> ! Engrad def2-TZVPPD wB97M-D3BJ 
|  2> %pal nprocs 8 end%pal nprocs 64 end 
|  3> %tddft 
|  4>  Iroot 1 Nroots 3 
|  5> sf true 
|  6> end 
|  7> *xyz 0 3 
|  8> O   2.97432521 -0.82935903 -2.09738513
|  9> O   -2.26475355 1.23164259 -1.66611632
| 10> O   -1.2413433 -2.33460756 -1.18728185
| 11> O   -2.76334119 0.73253994 2.79077352
| 12> N   0.20913549 -1.75954851 0.5240836
| 13> N   -0.59984062 0.99241657 2.05915577
| 14> N   0.87126095 -1.49494362 -1.63474424
| 15> N   -2.4615823 0.92016034 0.59041657
| 16> C   2.27398775 -0.6338299 0.17488005
| 17> C   -0.31127203 1.29132476 -0.26321483
| 18> C   1.03736284 -0.63345247 0.96877395
| 19> C   0.34645799 0.84860072 1.01518961
| 20> C   3.49100939 0.05059415 0.67845813
| 21> C   0.45994039 1.7478101 -1.47229031
| 22> C   2.08641671 -1.00254291 -1.25527772
| 23> C   -1.74588167 1.12087521 -0.60754205
| 24> C   -0.16579049 -1.88386948 -0.81573694
| 25> C   -1.96779359 0.86377743 1.91711532
| 26> H   1.3159074 -0.89507583 2.02029622
| 27> H   1.29989322 1.4183655 1.24206379
| 28> H   3.55186256 1.03929474 0.37262516
| 29> H   3.4923006 0.05755449 1.73799335
| 30> H   4.45269032 -0.41130997 0.35555028
| 31> H   0.20883951 1.23667431 -2.3622016
| 32> H   0.15491599 2.78187831 -1.53310097
| 33> H   1.57582719 1.58637969 -1.30438818
| 34> H   -0.59651274 -2.03239864 1.09776628
| 35> H   -0.3193705 0.95824956 2.9892981
| 36> H   0.74698784 -1.52177043 -2.65316848
| 37> H   -3.46088823 0.89100925 0.47139866
| 38> *
| 39> 
| 40>                          ****END OF INPUT****
================================================================================

                     *******************************
                     * Energy+Gradient Calculation *
                     *******************************

---------------------------------
CARTESIAN COORDINATES (ANGSTROEM)
---------------------------------
  O      2.974325   -0.829359   -2.097385
  O     -2.264754    1.231643   -1.666116
  O     -1.241343   -2.334608   -1.187282
  O     -2.763341    0.732540    2.790774
  N      0.209135   -1.759549    0.524084
  N     -0.599841    0.992417    2.059156
  N      0.871261   -1.494944   -1.634744
  N     -2.461582    0.920160    0.590417
  C      2.273988   -0.633830    0.174880
  C     -0.311272    1.291325   -0.263215
  C      1.037363   -0.633452    0.968774
  C      0.346458    0.848601    1.015190
  C      3.491009    0.050594    0.678458
  C      0.459940    1.747810   -1.472290
  C      2.086417   -1.002543   -1.255278
  C     -1.745882    1.120875   -0.607542
  C     -0.165790   -1.883869   -0.815737
  C     -1.967794    0.863777    1.917115
  H      1.315907   -0.895076    2.020296
  H      1.299893    1.418365    1.242064
  H      3.551863    1.039295    0.372625
  H      3.492301    0.057554    1.737993
  H      4.452690   -0.411310    0.355550
  H      0.208840    1.236674   -2.362202
  H      0.154916    2.781878   -1.533101
  H      1.575827    1.586380   -1.304388
  H     -0.596513   -2.032399    1.097766
  H     -0.319371    0.958250    2.989298
  H      0.746988   -1.521770   -2.653168
  H     -3.460888    0.891009    0.471399

----------------------------
CARTESIAN COORDINATES (A.U.)
----------------------------
  NO LB      ZA    FRAG     MASS         X           Y           Z
   0 O     8.0000    0    15.999    5.620660   -1.567261   -3.963483
   1 O     8.0000    0    15.999   -4.279764    2.327467   -3.148504
   2 O     8.0000    0    15.999   -2.345799   -4.411769   -2.243638
   3 O     8.0000    0    15.999   -5.221958    1.384300    5.273798
   4 N     7.0000    0    14.007    0.395209   -3.325065    0.990374
   5 N     7.0000    0    14.007   -1.133534    1.875396    3.891240
   6 N     7.0000    0    14.007    1.646445   -2.825034   -3.089219
   7 N     7.0000    0    14.007   -4.651716    1.738851    1.115726
   8 C     6.0000    0    12.011    4.297214   -1.197765    0.330475
   9 C     6.0000    0    12.011   -0.588219    2.440250   -0.497404
  10 C     6.0000    0    12.011    1.960332   -1.197052    1.830717
  11 C     6.0000    0    12.011    0.654711    1.603623    1.918430
  12 C     6.0000    0    12.011    6.597052    0.095609    1.282100
  13 C     6.0000    0    12.011    0.869161    3.302882   -2.782225
  14 C     6.0000    0    12.011    3.942756   -1.894532   -2.372131
  15 C     6.0000    0    12.011   -3.299238    2.118147   -1.148088
  16 C     6.0000    0    12.011   -0.313299   -3.559997   -1.541519
  17 C     6.0000    0    12.011   -3.718591    1.632303    3.622823
  18 H     1.0000    0     1.008    2.486705   -1.691448    3.817807
  19 H     1.0000    0     1.008    2.456442    2.680322    2.347160
  20 H     1.0000    0     1.008    6.712048    1.963982    0.704160
  21 H     1.0000    0     1.008    6.599492    0.108762    3.284331
  22 H     1.0000    0     1.008    8.414365   -0.777263    0.671893
  23 H     1.0000    0     1.008    0.394649    2.336976   -4.463914
  24 H     1.0000    0     1.008    0.292749    5.256988   -2.897141
  25 H     1.0000    0     1.008    2.977882    2.997823   -2.464936
  26 H     1.0000    0     1.008   -1.127246   -3.840677    2.074478
  27 H     1.0000    0     1.008   -0.603523    1.810829    5.648955
  28 H     1.0000    0     1.008    1.411602   -2.875729   -5.013762
  29 H     1.0000    0     1.008   -6.540131    1.683763    0.890814

--------------------------------
INTERNAL COORDINATES (ANGSTROEM)
--------------------------------
 O      0   0   0     0.000000000000     0.00000000     0.00000000
 O      1   0   0     5.646385278885     0.00000000     0.00000000
 O      2   1   0     3.740961256394    53.69923389     0.00000000
 O      2   1   3     4.512378545279    97.90841775    69.22851551
 N      3   2   1     2.315891477311    91.67401777    58.84552199
 N      4   2   1     2.298594159769    64.47659576    26.90324256
 N      1   2   3     2.253867503034    39.31547647   359.06992596
 N      4   2   1     2.228863062102     2.08056605   335.79546901
 C      5   3   2     2.377561852794   123.57118770   287.37660183
 C      8   4   6     2.343135474318   119.81702559   357.09553533
 C      5   3   2     1.466902294625   140.19797632   331.25245189
 C      6   4   2     1.416343673416   148.42841838   333.68591601
 C      9   5   3     1.484307527133   151.71212283   172.87038840
 C     10   8   4     1.504995341765   144.19277837   197.25640449
 C      1   2   3     1.235928416471    48.12672442   314.34006836
 C      2   1   3     1.184093292538    68.13294085    82.08579435
 C      3   2   1     1.223938022944    85.88194939    29.40538823
 C      4   2   1     1.188864127255    35.71020792    24.75436454
 H     11   5   3     1.118808714084   104.23935223   166.53645738
 H     12   6   4     1.133641273016   111.30761318   166.93188340
 H     13   9   5     1.036709106020   112.81745814   242.10412193
 H     13   9   5     1.059558868575   110.07736590     1.26105081
 H     13   9   5     1.114654702942   114.71074405   121.90306582
 H     14  10   8     1.056529011350   114.08884056   306.65906599
 H     14  10   8     1.079830951537   101.00831873    65.09103220
 H     14  10   8     1.139936074061   109.89766138   186.82021510
 H      5   3   2     1.025976647529    81.68288631    96.64774561
 H      6   4   2     0.972108855449    87.88176132   177.82912858
 H      7   1   2     1.026329097426    85.24000620    81.69342723
 H      8   4  18     1.006790638952    88.84744645   182.60215667

---------------------------
INTERNAL COORDINATES (A.U.)
---------------------------
 O      0   0   0     0.000000000000     0.00000000     0.00000000
 O      1   0   0    10.670121823696     0.00000000     0.00000000
 O      2   1   0     7.069392252194    53.69923389     0.00000000
 O      2   1   3     8.527159663159    97.90841775    69.22851551
 N      3   2   1     4.376400648000    91.67401777    58.84552199
 N      4   2   1     4.343713454995    64.47659576    26.90324256
 N      1   2   3     4.259192322880    39.31547647   359.06992596
 N      4   2   1     4.211940777386     2.08056605   335.79546901
 C      5   3   2     4.492940768239   123.57118770   287.37660183
 C      8   4   6     4.427884341137   119.81702559   357.09553533
 C      5   3   2     2.772043602061   140.19797632   331.25245189
 C      6   4   2     2.676501654267   148.42841838   333.68591601
 C      9   5   3     2.804934724799   151.71212283   172.87038840
 C     10   8   4     2.844029028763   144.19277837   197.25640449
 C      1   2   3     2.335566228262    48.12672442   314.34006836
 C      2   1   3     2.237612039909    68.13294085    82.08579435
 C      3   2   1     2.312907668257    85.88194939    29.40538823
 C      4   2   1     2.246627610956    35.71020792    24.75436454
 H     11   5   3     2.114242065862   104.23935223   166.53645738
 H     12   6   4     2.142271540109   111.30761318   166.93188340
 H     13   9   5     1.959096290920   112.81745814   242.10412193
 H     13   9   5     2.002276084375   110.07736590     1.26105081
 H     13   9   5     2.106392122447   114.71074405   121.90306582
 H     14  10   8     1.996550483995   114.08884056   306.65906599
 H     14  10   8     2.040584769337   101.00831873    65.09103220
 H     14  10   8     2.154166990153   109.89766138   186.82021510
 H      5   3   2     1.938814883629    81.68288631    96.64774561
 H      6   4   2     1.837019509159    87.88176132   177.82912858
 H      7   1   2     1.939480917410    85.24000620    81.69342723
 H      8   4  18     1.902558581816    88.84744645   182.60215667

---------------------
BASIS SET INFORMATION
---------------------
There are 4 groups of distinct atoms

 Group   1 Type O   : 12s7p3d1f contracted to 6s4p3d1f pattern {621111/4111/111/1}
 Group   2 Type N   : 12s6p3d1f contracted to 6s3p3d1f pattern {621111/411/111/1}
 Group   3 Type C   : 12s6p3d1f contracted to 6s3p3d1f pattern {621111/411/111/1}
 Group   4 Type H   : 5s3p1d contracted to 3s3p1d pattern {311/111/1}

Atom   0O    basis set group =>   1
Atom   1O    basis set group =>   1
Atom   2O    basis set group =>   1
Atom   3O    basis set group =>   1
Atom   4N    basis set group =>   2
Atom   5N    basis set group =>   2
Atom   6N    basis set group =>   2
Atom   7N    basis set group =>   2
Atom   8C    basis set group =>   3
Atom   9C    basis set group =>   3
Atom  10C    basis set group =>   3
Atom  11C    basis set group =>   3
Atom  12C    basis set group =>   3
Atom  13C    basis set group =>   3
Atom  14C    basis set group =>   3
Atom  15C    basis set group =>   3
Atom  16C    basis set group =>   3
Atom  17C    basis set group =>   3
Atom  18H    basis set group =>   4
Atom  19H    basis set group =>   4
Atom  20H    basis set group =>   4
Atom  21H    basis set group =>   4
Atom  22H    basis set group =>   4
Atom  23H    basis set group =>   4
Atom  24H    basis set group =>   4
Atom  25H    basis set group =>   4
Atom  26H    basis set group =>   4
Atom  27H    basis set group =>   4
Atom  28H    basis set group =>   4
Atom  29H    basis set group =>   4
---------------------------------
AUXILIARY/J BASIS SET INFORMATION
---------------------------------
There are 4 groups of distinct atoms

 Group   1 Type O   : 12s5p4d2f1g contracted to 6s4p3d1f1g pattern {711111/2111/211/2/1}
 Group   2 Type N   : 12s5p4d2f1g contracted to 6s4p3d1f1g pattern {711111/2111/211/2/1}
 Group   3 Type C   : 12s5p4d2f1g contracted to 6s4p3d1f1g pattern {711111/2111/211/2/1}
 Group   4 Type H   : 5s2p1d contracted to 3s1p1d pattern {311/2/1}

Atom   0O    basis set group =>   1
Atom   1O    basis set group =>   1
Atom   2O    basis set group =>   1
Atom   3O    basis set group =>   1
Atom   4N    basis set group =>   2
Atom   5N    basis set group =>   2
Atom   6N    basis set group =>   2
Atom   7N    basis set group =>   2
Atom   8C    basis set group =>   3
Atom   9C    basis set group =>   3
Atom  10C    basis set group =>   3
Atom  11C    basis set group =>   3
Atom  12C    basis set group =>   3
Atom  13C    basis set group =>   3
Atom  14C    basis set group =>   3
Atom  15C    basis set group =>   3
Atom  16C    basis set group =>   3
Atom  17C    basis set group =>   3
Atom  18H    basis set group =>   4
Atom  19H    basis set group =>   4
Atom  20H    basis set group =>   4
Atom  21H    basis set group =>   4
Atom  22H    basis set group =>   4
Atom  23H    basis set group =>   4
Atom  24H    basis set group =>   4
Atom  25H    basis set group =>   4
Atom  26H    basis set group =>   4
Atom  27H    basis set group =>   4
Atom  28H    basis set group =>   4
Atom  29H    basis set group =>   4
[1741106692.190649] [ohm:865109:0]        ib_iface.c:1059 UCX  ERROR ibv_create_cq(cqe=256) failed: Connection timed out
[1741106692.237821] [ohm:865106:0]        ib_iface.c:1059 UCX  ERROR ibv_create_cq(cqe=256) failed: Connection timed out
[1741106692.253239] [ohm:865108:0]        ib_iface.c:1059 UCX  ERROR ibv_create_cq(cqe=256) failed: Connection timed out
[1741106692.323667] [ohm:865121:0]        ib_iface.c:1059 UCX  ERROR ibv_create_cq(cqe=256) failed: Connection timed out
[1741106692.332903] [ohm:865115:0]        ib_iface.c:1059 UCX  ERROR ibv_create_cq(cqe=256) failed: Connection timed out
[1741106692.336530] [ohm:865122:0]        ib_iface.c:1059 UCX  ERROR ibv_create_cq(cqe=256) failed: Connection timed out
[1741106692.342409] [ohm:865107:0]        ib_iface.c:1059 UCX  ERROR ibv_create_cq(cqe=256) failed: Connection timed out
[1741106692.352754] [ohm:865125:0]        ib_iface.c:1059 UCX  ERROR ibv_create_cq(cqe=256) failed: Connection timed out
[1741106692.353451] [ohm:865126:0]        ib_iface.c:1059 UCX  ERROR ibv_create_cq(cqe=256) failed: Connection timed out
[1741106692.371143] [ohm:865110:0]        ib_iface.c:1059 UCX  ERROR ibv_create_cq(cqe=256) failed: Connection timed out
[1741106692.373382] [ohm:865114:0]        ib_iface.c:1059 UCX  ERROR ibv_create_cq(cqe=256) failed: Connection timed out
[1741106692.393780] [ohm:865112:0]        ib_iface.c:1059 UCX  ERROR ibv_create_cq(cqe=256) failed: Connection timed out
[1741106692.397089] [ohm:865116:0]        ib_iface.c:1059 UCX  ERROR ibv_create_cq(cqe=256) failed: Connection timed out
[1741106692.414223] [ohm:865128:0]        ib_iface.c:1059 UCX  ERROR ibv_create_cq(cqe=256) failed: Connection timed out
[1741106692.427922] [ohm:865111:0]        ib_iface.c:1059 UCX  ERROR ibv_create_cq(cqe=256) failed: Connection timed out
[1741106692.430001] [ohm:865123:0]        ib_iface.c:1059 UCX  ERROR ibv_create_cq(cqe=256) failed: Connection timed out
[1741106692.433100] [ohm:865118:0]        ib_iface.c:1059 UCX  ERROR ibv_create_cq(cqe=256) failed: Connection timed out
[1741106692.446701] [ohm:865136:0]        ib_iface.c:1059 UCX  ERROR ibv_create_cq(cqe=256) failed: Connection timed out
[1741106692.455507] [ohm:865143:0]        ib_iface.c:1059 UCX  ERROR ibv_create_cq(cqe=256) failed: Connection timed out
[1741106692.471882] [ohm:865178:0]        ib_iface.c:1059 UCX  ERROR ibv_create_cq(cqe=256) failed: Connection timed out
[1741106692.480197] [ohm:865155:0]        ib_iface.c:1059 UCX  ERROR ibv_create_cq(cqe=256) failed: Connection timed out
[1741106692.483131] [ohm:865221:0]        ib_iface.c:1059 UCX  ERROR ibv_create_cq(cqe=256) failed: Connection timed out
[1741106692.488403] [ohm:865163:0]        ib_iface.c:1059 UCX  ERROR ibv_create_cq(cqe=256) failed: Connection timed out
[1741106692.490499] [ohm:865194:0]        ib_iface.c:1059 UCX  ERROR ibv_create_cq(cqe=256) failed: Connection timed out
[1741106692.496350] [ohm:865157:0]        ib_iface.c:1059 UCX  ERROR ibv_create_cq(cqe=256) failed: Connection timed out
[1741106692.514279] [ohm:865131:0]        ib_iface.c:1059 UCX  ERROR ibv_create_cq(cqe=256) failed: Connection timed out
[1741106692.516838] [ohm:865189:0]        ib_iface.c:1059 UCX  ERROR ibv_create_cq(cqe=256) failed: Connection timed out
[1741106692.533646] [ohm:865211:0]        ib_iface.c:1059 UCX  ERROR ibv_create_cq(cqe=256) failed: Connection timed out
[1741106692.544520] [ohm:865169:0]        ib_iface.c:1059 UCX  ERROR ibv_create_cq(cqe=256) failed: Connection timed out
[1741106692.545708] [ohm:865119:0]        ib_iface.c:1059 UCX  ERROR ibv_create_cq(cqe=256) failed: Connection timed out
[1741106692.552310] [ohm:865134:0]        ib_iface.c:1059 UCX  ERROR ibv_create_cq(cqe=256) failed: Connection timed out
[1741106692.561101] [ohm:865226:0]        ib_iface.c:1059 UCX  ERROR ibv_create_cq(cqe=256) failed: Connection timed out
[1741106692.574335] [ohm:865235:0]        ib_iface.c:1059 UCX  ERROR ibv_create_cq(cqe=256) failed: Connection timed out
[1741106692.575110] [ohm:865117:0]        ib_iface.c:1059 UCX  ERROR ibv_create_cq(cqe=256) failed: Connection timed out
[1741106692.580780] [ohm:865166:0]        ib_iface.c:1059 UCX  ERROR ibv_create_cq(cqe=256) failed: Connection timed out
[1741106692.593224] [ohm:865216:0]        ib_iface.c:1059 UCX  ERROR ibv_create_cq(cqe=256) failed: Connection timed out
[1741106692.595791] [ohm:865138:0]        ib_iface.c:1059 UCX  ERROR ibv_create_cq(cqe=256) failed: Connection timed out
[1741106692.596858] [ohm:865152:0]        ib_iface.c:1059 UCX  ERROR ibv_create_cq(cqe=256) failed: Connection timed out
[1741106692.597282] [ohm:865187:0]        ib_iface.c:1059 UCX  ERROR ibv_create_cq(cqe=256) failed: Connection timed out
[1741106692.604757] [ohm:865148:0]        ib_iface.c:1059 UCX  ERROR ibv_create_cq(cqe=256) failed: Connection timed out
[1741106692.605243] [ohm:865192:0]        ib_iface.c:1059 UCX  ERROR ibv_create_cq(cqe=256) failed: Connection timed out
[1741106692.606436] [ohm:865214:0]        ib_iface.c:1059 UCX  ERROR ibv_create_cq(cqe=256) failed: Connection timed out
[1741106692.610504] [ohm:865160:0]        ib_iface.c:1059 UCX  ERROR ibv_create_cq(cqe=256) failed: Connection timed out
[1741106692.617598] [ohm:865208:0]        ib_iface.c:1059 UCX  ERROR ibv_create_cq(cqe=256) failed: Connection timed out
[1741106692.628490] [ohm:865172:0]        ib_iface.c:1059 UCX  ERROR ibv_create_cq(cqe=256) failed: Connection timed out
[1741106692.633701] [ohm:865222:0]        ib_iface.c:1059 UCX  ERROR ibv_create_cq(cqe=256) failed: Connection timed out
[1741106692.636933] [ohm:865228:0]        ib_iface.c:1059 UCX  ERROR ibv_create_cq(cqe=256) failed: Connection timed out
[1741106692.637176] [ohm:865204:0]        ib_iface.c:1059 UCX  ERROR ibv_create_cq(cqe=256) failed: Connection timed out
[1741106692.637637] [ohm:865237:0]        ib_iface.c:1059 UCX  ERROR ibv_create_cq(cqe=256) failed: Connection timed out
[1741106692.638130] [ohm:865124:0]        ib_iface.c:1059 UCX  ERROR ibv_create_cq(cqe=256) failed: Connection timed out
[1741106692.641904] [ohm:865133:0]        ib_iface.c:1059 UCX  ERROR ibv_create_cq(cqe=256) failed: Connection timed out
[1741106692.642531] [ohm:865130:0]        ib_iface.c:1059 UCX  ERROR ibv_create_cq(cqe=256) failed: Connection timed out
[1741106692.643489] [ohm:865113:0]        ib_iface.c:1059 UCX  ERROR ibv_create_cq(cqe=256) failed: Connection timed out
[1741106692.644200] [ohm:865129:0]        ib_iface.c:1059 UCX  ERROR ibv_create_cq(cqe=256) failed: Connection timed out
[1741106692.645016] [ohm:865229:0]        ib_iface.c:1059 UCX  ERROR ibv_create_cq(cqe=256) failed: Connection timed out
[1741106692.647060] [ohm:865244:0]        ib_iface.c:1059 UCX  ERROR ibv_create_cq(cqe=256) failed: Connection timed out
[1741106692.648923] [ohm:865252:0]        ib_iface.c:1059 UCX  ERROR ibv_create_cq(cqe=256) failed: Connection timed out
[1741106692.649023] [ohm:865258:0]        ib_iface.c:1059 UCX  ERROR ibv_create_cq(cqe=256) failed: Connection timed out
[1741106692.649478] [ohm:865182:0]        ib_iface.c:1059 UCX  ERROR ibv_create_cq(cqe=256) failed: Connection timed out
[1741106692.649638] [ohm:865120:0]        ib_iface.c:1059 UCX  ERROR ibv_create_cq(cqe=256) failed: Connection timed out
[1741106692.651960] [ohm:865200:0]        ib_iface.c:1059 UCX  ERROR ibv_create_cq(cqe=256) failed: Connection timed out
[1741106692.652167] [ohm:865127:0]        ib_iface.c:1059 UCX  ERROR ibv_create_cq(cqe=256) failed: Connection timed out
[1741106692.653000] [ohm:865219:0]        ib_iface.c:1059 UCX  ERROR ibv_create_cq(cqe=256) failed: Connection timed out
[1741106692.653573] [ohm:865197:0]        ib_iface.c:1059 UCX  ERROR ibv_create_cq(cqe=256) failed: Connection timed out


           ************************************************************
           *        Program running with 64 parallel MPI-processes    *
           *              working on a common directory               *
           ************************************************************
------------------------------------------------------------------------------
                             ORCA STARTUP CALCULATIONS
                           -- RI-GTO INTEGRALS CHOSEN --
------------------------------------------------------------------------------
------------------------------------------------------------------------------
                   ___                                                        
                  /   \      - P O W E R E D   B Y -                         
                 /     \                                                     
                 |  |  |   _    _      __       _____    __    __             
                 |  |  |  | |  | |    /  \     |  _  \  |  |  /  |          
                  \  \/   | |  | |   /    \    | | | |  |  | /  /          
                 / \  \   | |__| |  /  /\  \   | |_| |  |  |/  /          
                |  |  |   |  __  | /  /__\  \  |    /   |      \           
                |  |  |   | |  | | |   __   |  |    \   |  |\   \          
                \     /   | |  | | |  |  |  |  | |\  \  |  | \   \       
                 \___/    |_|  |_| |__|  |__|  |_| \__\ |__|  \__/        
                                                                              
                      - O R C A' S   B I G   F R I E N D -                    
                                      &                                       
                       - I N T E G R A L  F E E D E R -                       
                                                                              
 v1 FN, 2020, v2 2021, v3 2022-2024                                           
------------------------------------------------------------------------------


----------------------
SHARK INTEGRAL PACKAGE
----------------------

Number of atoms                             ...     30
Number of basis functions                   ...    882
Number of shells                            ...    322
Maximum angular momentum                    ...      3
Integral batch strategy                     ... SHARK/LIBINT Hybrid
RI-J (if used) integral strategy            ... SPLIT-RIJ (Revised 2003 algorithm where possible)
Printlevel                                  ...      1
Contraction scheme used                     ... SEGMENTED contraction
Prescreening option                         ... SCHWARTZ
   Thresh                                   ... 2.500e-11
   Tcut                                     ... 2.500e-12
   Tpresel                                  ... 2.500e-12 
Coulomb Range Separation                    ... NOT USED
Exchange Range Separation                   ... Long Range
   Mu parameter                             ... 3.000e-01
   Scaling (regular/separated)              ... 1.500e-01 8.500e-01
Multipole approximations                    ... NOT USED
Finite Nucleus Model                        ... NOT USED
CABS basis                                  ... NOT available
Auxiliary Coulomb fitting basis             ... AVAILABLE
   # of basis functions in Aux-J            ...   1014
   # of shells in Aux-J                     ...    330
   Maximum angular momentum in Aux-J        ...      4
Auxiliary J/K fitting basis                 ... NOT available
Auxiliary Correlation fitting basis         ... NOT available
Auxiliary 'external' fitting basis          ... NOT available

Checking pre-screening integrals            ... done (  0.0 sec) Dimension = 322
Check shell pair data                       ... done (  0.0 sec)
Shell pair information
Shell pair cut-off parameter TPreSel        ...   2.5e-12
Total number of shell pairs                 ...     52003
Shell pairs after pre-screening             ...     44860
Total number of primitive shell pairs       ...    129718
Primitive shell pairs kept                  ...     83750
          la=0 lb=0:   8687 shell pairs
          la=1 lb=0:  11887 shell pairs
          la=1 lb=1:   4107 shell pairs
          la=2 lb=0:   8057 shell pairs
          la=2 lb=1:   5579 shell pairs
          la=2 lb=2:   1922 shell pairs
          la=3 lb=0:   2040 shell pairs
          la=3 lb=1:   1452 shell pairs
          la=3 lb=2:    993 shell pairs
          la=3 lb=3:    136 shell pairs

Calculating one electron integrals          ... done (  0.2 sec)
Calculating RI/J V-Matrix + Cholesky decomp.... done (  0.1 sec)
Calculating Nuclear repulsion               ... done (  0.0 sec) ENN=   1427.372027044233 Eh

Diagonalization of the overlap matrix:
Smallest eigenvalue                        ... 7.381e-07
Time for diagonalization                   ...    0.125 sec
Threshold for overlap eigenvalues          ... 1.000e-07
Number of eigenvalues below threshold      ... 0

IMPORTANT:
Smallest eigenvalue of S below the DiffSThresh (1.000e-06) while
Thresh>1e-12 and/or TCut>1e-13! In order to avoid SCF convergence issues,
Thresh will be set to at least 1e-12 and TCut to at least 1e-13.
This can be turned off by adding %SCF DiffSThresh -1 END to the input.

Time for construction of square roots      ...    0.131 sec
Total time needed                          ...    0.274 sec

-------------------
DFT GRID GENERATION
-------------------

General Integration Accuracy     IntAcc      ... 4.388
Radial Grid Type                 RadialGrid  ... OptM3 with GC (2021)
Angular Grid (max. ang.)         AngularGrid ... 4 (Lebedev-302)
Angular grid pruning method      GridPruning ... 4 (adaptive)
Weight generation scheme         WeightScheme... mBecke (2022)
Basis function cutoff            BFCut       ... 1.0000e-11
Integration weight cutoff        WCut        ... 1.0000e-14
Partially contracted basis set               ... off
Rotationally invariant grid construction     ... off
Angular grids for H and He will be reduced by one unit
Diffuse basis detected: some atoms will have their outermost
                        angular grid increased by 1.

Total number of grid points                  ...   151878
Total number of batches                      ...     2388
Average number of points per batch           ...       63
Average number of grid points per atom       ...     5063

--------------------
COSX GRID GENERATION
--------------------

GRIDX 1
-------
General Integration Accuracy     IntAcc      ... 3.816
Radial Grid Type                 RadialGrid  ... OptM3 with GC (2021)
Angular Grid (max. ang.)         AngularGrid ... 1 (Lebedev-50)
Angular grid pruning method      GridPruning ... 4 (adaptive)
Weight generation scheme         WeightScheme... mBecke (2022)
Basis function cutoff            BFCut       ... 1.0000e-11
Integration weight cutoff        WCut        ... 1.0000e-14
Partially contracted basis set               ... on
Rotationally invariant grid construction     ... off
Angular grids for H and He will be reduced by one unit
Diffuse basis detected: some atoms will have their outermost
                        angular grid increased by 1.

Total number of grid points                  ...    19023
Total number of batches                      ...      166
Average number of points per batch           ...      114
Average number of grid points per atom       ...      634
UseSFitting                                  ... on

GRIDX 2
-------
General Integration Accuracy     IntAcc      ... 4.020
Radial Grid Type                 RadialGrid  ... OptM3 with GC (2021)
Angular Grid (max. ang.)         AngularGrid ... 2 (Lebedev-110)
Angular grid pruning method      GridPruning ... 4 (adaptive)
Weight generation scheme         WeightScheme... mBecke (2022)
Basis function cutoff            BFCut       ... 1.0000e-11
Integration weight cutoff        WCut        ... 1.0000e-14
Partially contracted basis set               ... on
Rotationally invariant grid construction     ... off
Angular grids for H and He will be reduced by one unit
Diffuse basis detected: some atoms will have their outermost
                        angular grid increased by 1.

Total number of grid points                  ...    45850
Total number of batches                      ...      374
Average number of points per batch           ...      122
Average number of grid points per atom       ...     1528
UseSFitting                                  ... on

GRIDX 3
-------
General Integration Accuracy     IntAcc      ... 4.338
Radial Grid Type                 RadialGrid  ... OptM3 with GC (2021)
Angular Grid (max. ang.)         AngularGrid ... 3 (Lebedev-194)
Angular grid pruning method      GridPruning ... 4 (adaptive)
Weight generation scheme         WeightScheme... mBecke (2022)
Basis function cutoff            BFCut       ... 1.0000e-11
Integration weight cutoff        WCut        ... 1.0000e-14
Partially contracted basis set               ... on
Rotationally invariant grid construction     ... off
Angular grids for H and He will be reduced by one unit
Diffuse basis detected: some atoms will have their outermost
                        angular grid increased by 1.

Total number of grid points                  ...   100875
Total number of batches                      ...      802
Average number of points per batch           ...      125
Average number of grid points per atom       ...     3362
UseSFitting                                  ... on
Initializing property integral containers    ... done (  0.0 sec)

SHARK setup successfully completed in   4.2 seconds

Maximum memory used throughout the entire STARTUP-calculation: 79.8 MB
[1741106698.899525] [ohm:865475:0]        ib_iface.c:1059 UCX  ERROR ibv_create_cq(cqe=256) failed: Connection timed out
[1741106698.935598] [ohm:865481:0]        ib_iface.c:1059 UCX  ERROR ibv_create_cq(cqe=256) failed: Connection timed out
[1741106698.938469] [ohm:865477:0]        ib_iface.c:1059 UCX  ERROR ibv_create_cq(cqe=256) failed: Connection timed out
[1741106698.943240] [ohm:865474:0]        ib_iface.c:1059 UCX  ERROR ibv_create_cq(cqe=256) failed: Connection timed out
[1741106698.943422] [ohm:865482:0]        ib_iface.c:1059 UCX  ERROR ibv_create_cq(cqe=256) failed: Connection timed out
[1741106698.948721] [ohm:865479:0]        ib_iface.c:1059 UCX  ERROR ibv_create_cq(cqe=256) failed: Connection timed out
[1741106698.951801] [ohm:865495:0]        ib_iface.c:1059 UCX  ERROR ibv_create_cq(cqe=256) failed: Connection timed out
[1741106698.957528] [ohm:865484:0]        ib_iface.c:1059 UCX  ERROR ibv_create_cq(cqe=256) failed: Connection timed out
[1741106698.963493] [ohm:865501:0]        ib_iface.c:1059 UCX  ERROR ibv_create_cq(cqe=256) failed: Connection timed out
[1741106698.982069] [ohm:865480:0]        ib_iface.c:1059 UCX  ERROR ibv_create_cq(cqe=256) failed: Connection timed out
[1741106699.010757] [ohm:865478:0]        ib_iface.c:1059 UCX  ERROR ibv_create_cq(cqe=256) failed: Connection timed out
[1741106699.036441] [ohm:865608:0]        ib_iface.c:1059 UCX  ERROR ibv_create_cq(cqe=256) failed: Connection timed out
[1741106699.040759] [ohm:865534:0]        ib_iface.c:1059 UCX  ERROR ibv_create_cq(cqe=256) failed: Connection timed out
[1741106699.048993] [ohm:865499:0]        ib_iface.c:1059 UCX  ERROR ibv_create_cq(cqe=256) failed: Connection timed out
[1741106699.056617] [ohm:865505:0]        ib_iface.c:1059 UCX  ERROR ibv_create_cq(cqe=256) failed: Connection timed out
[1741106699.066893] [ohm:865556:0]        ib_iface.c:1059 UCX  ERROR ibv_create_cq(cqe=256) failed: Connection timed out
[1741106699.071686] [ohm:865527:0]        ib_iface.c:1059 UCX  ERROR ibv_create_cq(cqe=256) failed: Connection timed out
[1741106699.098203] [ohm:865604:0]        ib_iface.c:1059 UCX  ERROR ibv_create_cq(cqe=256) failed: Connection timed out
[1741106699.098341] [ohm:865500:0]        ib_iface.c:1059 UCX  ERROR ibv_create_cq(cqe=256) failed: Connection timed out
[1741106699.098398] [ohm:865504:0]        ib_iface.c:1059 UCX  ERROR ibv_create_cq(cqe=256) failed: Connection timed out
[1741106699.098472] [ohm:865545:0]        ib_iface.c:1059 UCX  ERROR ibv_create_cq(cqe=256) failed: Connection timed out
[1741106699.103442] [ohm:865508:0]        ib_iface.c:1059 UCX  ERROR ibv_create_cq(cqe=256) failed: Connection timed out
[1741106699.112987] [ohm:865497:0]        ib_iface.c:1059 UCX  ERROR ibv_create_cq(cqe=256) failed: Connection timed out
[1741106699.116516] [ohm:865498:0]        ib_iface.c:1059 UCX  ERROR ibv_create_cq(cqe=256) failed: Connection timed out
[1741106699.129711] [ohm:865591:0]        ib_iface.c:1059 UCX  ERROR ibv_create_cq(cqe=256) failed: Connection timed out
[1741106699.153574] [ohm:865588:0]        ib_iface.c:1059 UCX  ERROR ibv_create_cq(cqe=256) failed: Connection timed out
[1741106699.161921] [ohm:865476:0]        ib_iface.c:1059 UCX  ERROR ibv_create_cq(cqe=256) failed: Connection timed out
[1741106699.162407] [ohm:865547:0]        ib_iface.c:1059 UCX  ERROR ibv_create_cq(cqe=256) failed: Connection timed out
[1741106699.163610] [ohm:865569:0]        ib_iface.c:1059 UCX  ERROR ibv_create_cq(cqe=256) failed: Connection timed out
[1741106699.166524] [ohm:865502:0]        ib_iface.c:1059 UCX  ERROR ibv_create_cq(cqe=256) failed: Connection timed out
[1741106699.170945] [ohm:865510:0]        ib_iface.c:1059 UCX  ERROR ibv_create_cq(cqe=256) failed: Connection timed out
[1741106699.174460] [ohm:865557:0]        ib_iface.c:1059 UCX  ERROR ibv_create_cq(cqe=256) failed: Connection timed out
[1741106699.184451] [ohm:865494:0]        ib_iface.c:1059 UCX  ERROR ibv_create_cq(cqe=256) failed: Connection timed out
[1741106699.187888] [ohm:865514:0]        ib_iface.c:1059 UCX  ERROR ibv_create_cq(cqe=256) failed: Connection timed out
[1741106699.195890] [ohm:865606:0]        ib_iface.c:1059 UCX  ERROR ibv_create_cq(cqe=256) failed: Connection timed out
[1741106699.198304] [ohm:865597:0]        ib_iface.c:1059 UCX  ERROR ibv_create_cq(cqe=256) failed: Connection timed out
[1741106699.198619] [ohm:865564:0]        ib_iface.c:1059 UCX  ERROR ibv_create_cq(cqe=256) failed: Connection timed out
[1741106699.212102] [ohm:865509:0]        ib_iface.c:1059 UCX  ERROR ibv_create_cq(cqe=256) failed: Connection timed out
[1741106699.219647] [ohm:865536:0]        ib_iface.c:1059 UCX  ERROR ibv_create_cq(cqe=256) failed: Connection timed out
[1741106699.220302] [ohm:865580:0]        ib_iface.c:1059 UCX  ERROR ibv_create_cq(cqe=256) failed: Connection timed out
[1741106699.224625] [ohm:865517:0]        ib_iface.c:1059 UCX  ERROR ibv_create_cq(cqe=256) failed: Connection timed out
[1741106699.225251] [ohm:865617:0]        ib_iface.c:1059 UCX  ERROR ibv_create_cq(cqe=256) failed: Connection timed out
[1741106699.240031] [ohm:865601:0]        ib_iface.c:1059 UCX  ERROR ibv_create_cq(cqe=256) failed: Connection timed out
[1741106699.244169] [ohm:865624:0]        ib_iface.c:1059 UCX  ERROR ibv_create_cq(cqe=256) failed: Connection timed out
[1741106699.248240] [ohm:865574:0]        ib_iface.c:1059 UCX  ERROR ibv_create_cq(cqe=256) failed: Connection timed out
[1741106699.250186] [ohm:865577:0]        ib_iface.c:1059 UCX  ERROR ibv_create_cq(cqe=256) failed: Connection timed out
[1741106699.254150] [ohm:865583:0]        ib_iface.c:1059 UCX  ERROR ibv_create_cq(cqe=256) failed: Connection timed out
[1741106699.259662] [ohm:865598:0]        ib_iface.c:1059 UCX  ERROR ibv_create_cq(cqe=256) failed: Connection timed out
[1741106699.265240] [ohm:865572:0]        ib_iface.c:1059 UCX  ERROR ibv_create_cq(cqe=256) failed: Connection timed out
[1741106699.270054] [ohm:865613:0]        ib_iface.c:1059 UCX  ERROR ibv_create_cq(cqe=256) failed: Connection timed out
[1741106699.271409] [ohm:865620:0]        ib_iface.c:1059 UCX  ERROR ibv_create_cq(cqe=256) failed: Connection timed out
[1741106699.277680] [ohm:865512:0]        ib_iface.c:1059 UCX  ERROR ibv_create_cq(cqe=256) failed: Connection timed out
[1741106699.277831] [ohm:865519:0]        ib_iface.c:1059 UCX  ERROR ibv_create_cq(cqe=256) failed: Connection timed out
[1741106699.278598] [ohm:865550:0]        ib_iface.c:1059 UCX  ERROR ibv_create_cq(cqe=256) failed: Connection timed out
[1741106699.281346] [ohm:865540:0]        ib_iface.c:1059 UCX  ERROR ibv_create_cq(cqe=256) failed: Connection timed out
[1741106699.281507] [ohm:865506:0]        ib_iface.c:1059 UCX  ERROR ibv_create_cq(cqe=256) failed: Connection timed out
[1741106699.282451] [ohm:865529:0]        ib_iface.c:1059 UCX  ERROR ibv_create_cq(cqe=256) failed: Connection timed out
[1741106699.283905] [ohm:865525:0]        ib_iface.c:1059 UCX  ERROR ibv_create_cq(cqe=256) failed: Connection timed out
[1741106699.284726] [ohm:865507:0]        ib_iface.c:1059 UCX  ERROR ibv_create_cq(cqe=256) failed: Connection timed out
[1741106699.286656] [ohm:865627:0]        ib_iface.c:1059 UCX  ERROR ibv_create_cq(cqe=256) failed: Connection timed out
[1741106699.287186] [ohm:865503:0]        ib_iface.c:1059 UCX  ERROR ibv_create_cq(cqe=256) failed: Connection timed out
[1741106699.287760] [ohm:865493:0]        ib_iface.c:1059 UCX  ERROR ibv_create_cq(cqe=256) failed: Connection timed out
[1741106699.288591] [ohm:865562:0]        ib_iface.c:1059 UCX  ERROR ibv_create_cq(cqe=256) failed: Connection timed out
[1741106699.288722] [ohm:865496:0]        ib_iface.c:1059 UCX  ERROR ibv_create_cq(cqe=256) failed: Connection timed out


           ************************************************************
           *        Program running with 64 parallel MPI-processes    *
           *              working on a common directory               *
           ************************************************************
-------------------------------------------------------------------------------
                                 ORCA GUESS
                   Start orbitals & Density for SCF / CASSCF
-------------------------------------------------------------------------------

------------
SCF SETTINGS
------------
Hamiltonian:
 Density Functional     Method          .... DFT(GTOs)
  Functional kind                       .... Exchange-Correlation
  Functional name                       .... wB97M-V exchange-correlation functional
  Functional family                     .... Hybrid MGGA
  Functional refs                              
    [ 0] N. Mardirossian and M. Head-Gordon.,  J. Chem. Phys. 144, 214110 (2016), doi: 10.1063/1.4952647
  Fraction of HF Exchange (short range) .... 0.1500
  Fraction of HF Exchange (long range)  .... 1.0000
  Range separation parameter mu         .... 0.3000
  Functional external parameters        .... 17
    Parameter  0 _cx00      =  8.500000e-01 : u^00 coefficient for exchange
    Parameter  1 _cx01      =  1.007000e+00 : u^01 coefficient for exchange
    Parameter  2 _cx10      =  2.590000e-01 : u^10 coefficient for exchange
    Parameter  3 _css00     =  4.430000e-01 : u^00 coefficient for same-spin correlation
    Parameter  4 _css04     = -1.437000e+00 : u^04 coefficient for same-spin correlation
    Parameter  5 _css10     = -4.535000e+00 : u^10 coefficient for same-spin correlation
    Parameter  6 _css20     = -3.390000e+00 : u^20 coefficient for same-spin correlation
    Parameter  7 _css43     =  4.278000e+00 : u^43 coefficient for same-spin correlation
    Parameter  8 _cos00     =  1.000000e+00 : u^00 coefficient for opposite-spin correlation
    Parameter  9 _cos10     =  1.358000e+00 : u^10 coefficient for opposite-spin correlation
    Parameter 10 _cos20     =  2.924000e+00 : u^20 coefficient for opposite-spin correlation
    Parameter 11 _cos21     = -8.812000e+00 : u^21 coefficient for opposite-spin correlation
    Parameter 12 _cos60     = -1.390000e+00 : u^60 coefficient for opposite-spin correlation
    Parameter 13 _cos61     =  9.142000e+00 : u^61 coefficient for opposite-spin correlation
    Parameter 14 _alpha     =  1.000000e+00 : fraction of HF exchange
    Parameter 15 _beta      = -8.500000e-01 : fraction of short-range exchange
    Parameter 16 _omega     =  3.000000e-01 : range-separation constant
 Long-range corrected/Screened/Range-Separated Hybrid DFT is turned on
   Amount of maximum screened exact exchange              ....  0.850000
   Range separation parameter mu (erf(mu*r12)/r12)        ....  0.300000
 RI-approximation to the Coulomb term is turned on
   Number of AuxJ basis functions       .... 1014
   RIJ-COSX (HFX calculated with COS-X)).... on


General Settings:
 Integral files         IntName         .... orca
 Hartree-Fock type      HFTyp           .... UHF
 Total Charge           Charge          ....    0
 Multiplicity           Mult            ....    3
 Number of Electrons    NEL             ....  132
 Basis Dimension        Dim             ....  882
 Nuclear Repulsion      ENuc            ....   1427.3720270442 Eh

Convergence Acceleration:
 AO-DIIS                CNVDIIS         .... on
   Start iteration      DIISMaxIt       ....    12
   Startup error        DIISStart       ....  0.200000
   # of expansion vecs  DIISMaxEq       ....     5
   Bias factor          DIISBfac        ....   1.050
   Max. coefficient     DIISMaxC        ....  10.000
 MO-DIIS                CNVKDIIS        .... off
 Trust-Rad. Augm. Hess. CNVTRAH         .... auto
   Auto Start mean grad. ratio tolernc. ....  1.125000
   Auto Start start iteration           ....    50
   Auto Start num. interpolation iter.  ....    10
   Max. Number of Micro iterations      ....    24
   Max. Number of Macro iterations      .... Maxiter - #DIIS iter
   Number of Davidson start vectors     ....     2
   Converg. threshold    (grad. norm)   ....   1.000e-05
   Grad. Scal. Fac. for Micro threshold ....   0.100
   Minimum threshold for Micro iter.    ....   1.000e-02
   NR start threshold (gradient norm)   ....   1.000e-04
   Initial trust radius                 ....   0.400
   Minimum AH scaling param. (alpha)    ....   1.000
   Maximum AH scaling param. (alpha)    .... 1000.000
   Quad. conv. algorithm                .... NR
   White noise on init. David. guess    .... on
   Maximum white noise                  ....   0.010
   Pseudo random numbers                .... off
   Inactive MOs                         .... canonical
   Orbital update algorithm             .... Taylor
   Preconditioner                       .... Diag
   Full preconditioner red. dimension   ....   250
 SOSCF                  CNVSOSCF        .... on
   Start iteration      SOSCFMaxIt      ....   150
   Startup grad/error   SOSCFStart      ....  0.003300
   Hessian update       SOSCFHessUp     .... L-BFGS
 Level Shifting         CNVShift        .... on
   Level shift para.    LevelShift      ....    0.2500
   Turn off err/grad.   ShiftErr        ....    0.0010
 Zerner damping         CNVZerner       .... off
 Static damping         CNVDamp         .... on
   Fraction old density DampFac         ....    0.7000
   Max. Damping (<1)    DampMax         ....    0.9800
   Min. Damping (>=0)   DampMin         ....    0.0000
   Turn off err/grad.   DampErr         ....    0.1000

SCF Procedure:
 Maximum # iterations   MaxIter         ....   125
 SCF integral mode      SCFMode         .... Direct
   Integral package                     .... SHARK and LIBINT hybrid scheme
 Reset frequency        DirectResetFreq ....    20
 Integral Threshold     Thresh          ....  1.000e-12 Eh
 Primitive CutOff       TCut            ....  1.000e-13 Eh

Convergence Tolerance:
 Convergence Check Mode ConvCheckMode   .... Total+1el-Energy
 Convergence forced     ConvForced      .... 1
 Energy Change          TolE            ....  1.000e-08 Eh
 1-El. energy change                    ....  1.000e-05 Eh
 Orbital Gradient       TolG            ....  1.000e-05
 Orbital Rotation angle TolX            ....  1.000e-05
 DIIS Error             TolErr          ....  5.000e-07

------------------------------
INITIAL GUESS: MODEL POTENTIAL
------------------------------
Loading Hartree-Fock densities                     ... done
Calculating cut-offs                               ... done
Initializing the effective Hamiltonian             ... done
Setting up the integral package (SHARK)            ... done
Starting the Coulomb interaction                   ... done (   0.1 sec)
Making the grid                                    ... done (   0.2 sec)
Mapping shells                                     ... done
Starting the XC term evaluation                    ... done (   0.1 sec)
  promolecular density results
     # of electrons  =    131.992452805
     EX              =   -113.535832524
     EC              =     -4.490165442
     EX+EC           =   -118.025997966
Transforming the Hamiltonian                       ... done (   0.1 sec)
Diagonalizing the Hamiltonian                      ... done (   0.1 sec)
Back transforming the eigenvectors                 ... done (   0.1 sec)
Now organizing SCF variables                       ... done
                      ------------------
                      INITIAL GUESS DONE (   1.1 sec)
                      ------------------
             **** ENERGY FILE WAS UPDATED (orca.en.tmp) ****
Finished Guess after   3.7 sec
Maximum memory used throughout the entire GUESS-calculation: 72.2 MB
[1741106703.085179] [ohm:865822:0]        ib_iface.c:1059 UCX  ERROR ibv_create_cq(cqe=256) failed: Connection timed out
[1741106703.085757] [ohm:865835:0]        ib_iface.c:1059 UCX  ERROR ibv_create_cq(cqe=256) failed: Connection timed out
[1741106703.086757] [ohm:865825:0]        ib_iface.c:1059 UCX  ERROR ibv_create_cq(cqe=256) failed: Connection timed out
[1741106703.091428] [ohm:865836:0]        ib_iface.c:1059 UCX  ERROR ibv_create_cq(cqe=256) failed: Connection timed out
[1741106703.091632] [ohm:865818:0]        ib_iface.c:1059 UCX  ERROR ibv_create_cq(cqe=256) failed: Connection timed out
[1741106703.095366] [ohm:865819:0]        ib_iface.c:1059 UCX  ERROR ibv_create_cq(cqe=256) failed: Connection timed out
[1741106703.115266] [ohm:865821:0]        ib_iface.c:1059 UCX  ERROR ibv_create_cq(cqe=256) failed: Connection timed out
[1741106703.116978] [ohm:865838:0]        ib_iface.c:1059 UCX  ERROR ibv_create_cq(cqe=256) failed: Connection timed out
[1741106703.119595] [ohm:865827:0]        ib_iface.c:1059 UCX  ERROR ibv_create_cq(cqe=256) failed: Connection timed out
[1741106703.124839] [ohm:865820:0]        ib_iface.c:1059 UCX  ERROR ibv_create_cq(cqe=256) failed: Connection timed out
[1741106703.165967] [ohm:865823:0]        ib_iface.c:1059 UCX  ERROR ibv_create_cq(cqe=256) failed: Connection timed out
[1741106703.168747] [ohm:865837:0]        ib_iface.c:1059 UCX  ERROR ibv_create_cq(cqe=256) failed: Connection timed out
[1741106703.199350] [ohm:865826:0]        ib_iface.c:1059 UCX  ERROR ibv_create_cq(cqe=256) failed: Connection timed out
[1741106703.214853] [ohm:865841:0]        ib_iface.c:1059 UCX  ERROR ibv_create_cq(cqe=256) failed: Connection timed out
[1741106703.224198] [ohm:865832:0]        ib_iface.c:1059 UCX  ERROR ibv_create_cq(cqe=256) failed: Connection timed out
[1741106703.231242] [ohm:865842:0]        ib_iface.c:1059 UCX  ERROR ibv_create_cq(cqe=256) failed: Connection timed out
[1741106703.248510] [ohm:865839:0]        ib_iface.c:1059 UCX  ERROR ibv_create_cq(cqe=256) failed: Connection timed out
[1741106703.257269] [ohm:865824:0]        ib_iface.c:1059 UCX  ERROR ibv_create_cq(cqe=256) failed: Connection timed out
[1741106703.258700] [ohm:865834:0]        ib_iface.c:1059 UCX  ERROR ibv_create_cq(cqe=256) failed: Connection timed out
[1741106703.289907] [ohm:865830:0]        ib_iface.c:1059 UCX  ERROR ibv_create_cq(cqe=256) failed: Connection timed out
[1741106703.297255] [ohm:865840:0]        ib_iface.c:1059 UCX  ERROR ibv_create_cq(cqe=256) failed: Connection timed out
[1741106703.298642] [ohm:865828:0]        ib_iface.c:1059 UCX  ERROR ibv_create_cq(cqe=256) failed: Connection timed out
[1741106703.299912] [ohm:865866:0]        ib_iface.c:1059 UCX  ERROR ibv_create_cq(cqe=256) failed: Connection timed out
[1741106703.302444] [ohm:865831:0]        ib_iface.c:1059 UCX  ERROR ibv_create_cq(cqe=256) failed: Connection timed out
[1741106703.305221] [ohm:865829:0]        ib_iface.c:1059 UCX  ERROR ibv_create_cq(cqe=256) failed: Connection timed out
[1741106703.309729] [ohm:865892:0]        ib_iface.c:1059 UCX  ERROR ibv_create_cq(cqe=256) failed: Connection timed out
[1741106703.318739] [ohm:865879:0]        ib_iface.c:1059 UCX  ERROR ibv_create_cq(cqe=256) failed: Connection timed out
[1741106703.323144] [ohm:865843:0]        ib_iface.c:1059 UCX  ERROR ibv_create_cq(cqe=256) failed: Connection timed out
[1741106703.335513] [ohm:865883:0]        ib_iface.c:1059 UCX  ERROR ibv_create_cq(cqe=256) failed: Connection timed out
[1741106703.340818] [ohm:865853:0]        ib_iface.c:1059 UCX  ERROR ibv_create_cq(cqe=256) failed: Connection timed out
[1741106703.340993] [ohm:865905:0]        ib_iface.c:1059 UCX  ERROR ibv_create_cq(cqe=256) failed: Connection timed out
[1741106703.342548] [ohm:865846:0]        ib_iface.c:1059 UCX  ERROR ibv_create_cq(cqe=256) failed: Connection timed out
[1741106703.348202] [ohm:865896:0]        ib_iface.c:1059 UCX  ERROR ibv_create_cq(cqe=256) failed: Connection timed out
[1741106703.352918] [ohm:865861:0]        ib_iface.c:1059 UCX  ERROR ibv_create_cq(cqe=256) failed: Connection timed out
[1741106703.354082] [ohm:865848:0]        ib_iface.c:1059 UCX  ERROR ibv_create_cq(cqe=256) failed: Connection timed out
[1741106703.355885] [ohm:865928:0]        ib_iface.c:1059 UCX  ERROR ibv_create_cq(cqe=256) failed: Connection timed out
[1741106703.361717] [ohm:865852:0]        ib_iface.c:1059 UCX  ERROR ibv_create_cq(cqe=256) failed: Connection timed out
[1741106703.368995] [ohm:865877:0]        ib_iface.c:1059 UCX  ERROR ibv_create_cq(cqe=256) failed: Connection timed out
[1741106703.370857] [ohm:865921:0]        ib_iface.c:1059 UCX  ERROR ibv_create_cq(cqe=256) failed: Connection timed out
[1741106703.390500] [ohm:865860:0]        ib_iface.c:1059 UCX  ERROR ibv_create_cq(cqe=256) failed: Connection timed out
[1741106703.390808] [ohm:865901:0]        ib_iface.c:1059 UCX  ERROR ibv_create_cq(cqe=256) failed: Connection timed out
[1741106703.393781] [ohm:865913:0]        ib_iface.c:1059 UCX  ERROR ibv_create_cq(cqe=256) failed: Connection timed out
[1741106703.395041] [ohm:865935:0]        ib_iface.c:1059 UCX  ERROR ibv_create_cq(cqe=256) failed: Connection timed out
[1741106703.397733] [ohm:865911:0]        ib_iface.c:1059 UCX  ERROR ibv_create_cq(cqe=256) failed: Connection timed out
[1741106703.397793] [ohm:865869:0]        ib_iface.c:1059 UCX  ERROR ibv_create_cq(cqe=256) failed: Connection timed out
[1741106703.400726] [ohm:865916:0]        ib_iface.c:1059 UCX  ERROR ibv_create_cq(cqe=256) failed: Connection timed out
[1741106703.407686] [ohm:865936:0]        ib_iface.c:1059 UCX  ERROR ibv_create_cq(cqe=256) failed: Connection timed out
[1741106703.407743] [ohm:865949:0]        ib_iface.c:1059 UCX  ERROR ibv_create_cq(cqe=256) failed: Connection timed out
[1741106703.408092] [ohm:865845:0]        ib_iface.c:1059 UCX  ERROR ibv_create_cq(cqe=256) failed: Connection timed out
[1741106703.408173] [ohm:865887:0]        ib_iface.c:1059 UCX  ERROR ibv_create_cq(cqe=256) failed: Connection timed out
[1741106703.410008] [ohm:865833:0]        ib_iface.c:1059 UCX  ERROR ibv_create_cq(cqe=256) failed: Connection timed out
[1741106703.411175] [ohm:865963:0]        ib_iface.c:1059 UCX  ERROR ibv_create_cq(cqe=256) failed: Connection timed out
[1741106703.413765] [ohm:865957:0]        ib_iface.c:1059 UCX  ERROR ibv_create_cq(cqe=256) failed: Connection timed out
[1741106703.418463] [ohm:865941:0]        ib_iface.c:1059 UCX  ERROR ibv_create_cq(cqe=256) failed: Connection timed out
[1741106703.420277] [ohm:865929:0]        ib_iface.c:1059 UCX  ERROR ibv_create_cq(cqe=256) failed: Connection timed out
[1741106703.421087] [ohm:865968:0]        ib_iface.c:1059 UCX  ERROR ibv_create_cq(cqe=256) failed: Connection timed out
[1741106703.422329] [ohm:865927:0]        ib_iface.c:1059 UCX  ERROR ibv_create_cq(cqe=256) failed: Connection timed out
[1741106703.424203] [ohm:865944:0]        ib_iface.c:1059 UCX  ERROR ibv_create_cq(cqe=256) failed: Connection timed out
[1741106703.424347] [ohm:865973:0]        ib_iface.c:1059 UCX  ERROR ibv_create_cq(cqe=256) failed: Connection timed out
[1741106703.426040] [ohm:865874:0]        ib_iface.c:1059 UCX  ERROR ibv_create_cq(cqe=256) failed: Connection timed out
[1741106703.426130] [ohm:865872:0]        ib_iface.c:1059 UCX  ERROR ibv_create_cq(cqe=256) failed: Connection timed out
[1741106703.427450] [ohm:865885:0]        ib_iface.c:1059 UCX  ERROR ibv_create_cq(cqe=256) failed: Connection timed out
[1741106703.428206] [ohm:865907:0]        ib_iface.c:1059 UCX  ERROR ibv_create_cq(cqe=256) failed: Connection timed out
[1741106703.429459] [ohm:865920:0]        ib_iface.c:1059 UCX  ERROR ibv_create_cq(cqe=256) failed: Connection timed out


           ************************************************************
           *        Program running with 64 parallel MPI-processes    *
           *              working on a common directory               *
           ************************************************************

-------------------------------------------------------------------------------------------
                                      ORCA LEAN-SCF
                              memory conserving SCF solver
-------------------------------------------------------------------------------------------

----------------------------------------D-I-I-S--------------------------------------------
Iteration    Energy (Eh)           Delta-E    RMSDP     MaxDP     DIISErr   Damp  Time(sec)
-------------------------------------------------------------------------------------------
               ***  Starting incremental Fock matrix formation  ***
    1    -908.1172134271403138     0.00e+00  1.56e-03  2.54e-01  1.49e-01  0.700   7.8
    2    -908.3852788480469371    -2.68e-01  1.23e-03  1.75e-01  7.19e-02  0.700   6.6
                               ***Turning on AO-DIIS***
    3    -908.5037380426804248    -1.18e-01  8.72e-04  1.22e-01  2.96e-02  0.700   5.7
    4    -908.5764681714638300    -7.27e-02  2.07e-03  2.36e-01  1.96e-02  0.000   5.7
    5    -908.7397195149280833    -1.63e-01  2.56e-04  5.66e-02  5.68e-03  0.000   5.7
                              *** Initializing SOSCF ***
---------------------------------------S-O-S-C-F--------------------------------------
Iteration    Energy (Eh)           Delta-E    RMSDP     MaxDP     MaxGrad    Time(sec)
--------------------------------------------------------------------------------------
    6    -908.7410346481913166    -1.32e-03  1.32e-04  3.46e-02  3.06e-03     6.4
               *** Restarting incremental Fock matrix formation ***
    7    -908.7415908120012773    -5.56e-04  2.52e-04  3.20e-02  4.68e-03     7.4
    8    -908.7419620915568430    -3.71e-04  2.34e-04  5.77e-02  2.42e-03     6.5
    9    -908.7420840316929116    -1.22e-04  1.18e-04  1.16e-02  7.14e-04     6.6
   10    -908.7421438662879609    -5.98e-05  2.94e-05  7.77e-03  4.02e-04     6.3
   11    -908.7421523730006356    -8.51e-06  7.62e-06  6.84e-04  1.32e-04     6.2
   12    -908.7421538008336483    -1.43e-06  5.16e-06  1.11e-03  1.47e-04     6.0
   13    -908.7421545920567496    -7.91e-07  4.30e-06  5.17e-04  4.79e-05     5.9
   14    -908.7421547449055197    -1.53e-07  1.68e-06  4.32e-04  2.14e-05     5.8
   15    -908.7421547935389299    -4.86e-08  1.32e-06  2.43e-04  1.10e-05     5.7
   16    -908.7421548159284157    -2.24e-08  9.53e-07  1.67e-04  3.31e-06     5.6
   17    -908.7421548427430480    -2.68e-08  1.30e-06  3.17e-04  2.89e-06     5.4
   18    -908.7421548552349577    -1.25e-08  1.29e-06  2.55e-04  1.17e-06     5.3
                  *** Gradient check signals convergence ***

               *****************************************************
               *                     SUCCESS                       *
               *           SCF CONVERGED AFTER  18 CYCLES          *
               *****************************************************

Recomputing exchange energy using gridx3       ... done (    7.773 sec)
Old exchange energy                            :    -35.035629308 Eh
New exchange energy                            :    -35.035635242 Eh
Exchange energy change after final integration :     -0.000005934 Eh
Total energy after final integration           :   -908.742160789 Eh
             **** ENERGY FILE WAS UPDATED (orca.en.tmp) ****

----------------
TOTAL SCF ENERGY
----------------

Total Energy       :       -908.74216078922200 Eh          -24728.13135 eV

Components:
Nuclear Repulsion  :       1427.37202704423339 Eh           38840.76748 eV
Electronic Energy  :      -2336.11418189946835 Eh          -63568.89867 eV
One Electron Energy:      -4071.65148256392058 Eh         -110795.26956 eV
Two Electron Energy:       1735.53730066445223 Eh           47226.37089 eV

Virial components:
Potential Energy   :      -1814.45418752101705 Eh          -49373.80856 eV
Kinetic Energy     :        905.71202673179505 Eh           24645.67721 eV
Virial Ratio       :          2.00334558222481

DFT components:
N(Alpha)           :       67.000008479043 electrons
N(Beta)            :       65.000018115898 electrons
N(Total)           :      132.000026594941 electrons
E(XC)              :      -86.247013786424 Eh       

---------------
SCF CONVERGENCE
---------------

  Last Energy change         ...    1.2492e-08  Tolerance :   1.0000e-08
  Last MAX-Density change    ...    2.5512e-04  Tolerance :   1.0000e-07
  Last RMS-Density change    ...    1.2865e-06  Tolerance :   5.0000e-09
  Last DIIS Error            ...    3.0612e-03  Tolerance :   5.0000e-07
  Last Orbital Gradient      ...    1.1693e-06  Tolerance :   1.0000e-05
  Last Orbital Rotation      ...    4.6634e-06  Tolerance :   1.0000e-05


----------------------
UHF SPIN CONTAMINATION
----------------------

Warning: in a DFT calculation there is little theoretical justification to 
         calculate <S**2> as in Hartree-Fock theory. We will do it anyways
         but you should keep in mind that the values have only limited relevance

Expectation value of <S**2>     :     2.011832
Ideal value S*(S+1) for S=1.0   :     2.000000
Deviation                       :     0.011832

----------------
ORBITAL ENERGIES
----------------
                 SPIN UP ORBITALS
  NO   OCC          E(Eh)            E(eV) 
   0   1.0000     -19.336563      -526.1746 
   1   1.0000     -19.336376      -526.1695 
   2   1.0000     -19.329174      -525.9736 
   3   1.0000     -19.325545      -525.8748 
   4   1.0000     -14.572019      -396.5248 
   5   1.0000     -14.565323      -396.3426 
   6   1.0000     -14.558098      -396.1460 
   7   1.0000     -14.553307      -396.0156 
   8   1.0000     -10.510383      -286.0021 
   9   1.0000     -10.510324      -286.0005 
  10   1.0000     -10.487907      -285.3905 
  11   1.0000     -10.479318      -285.1567 
  12   1.0000     -10.458232      -284.5830 
  13   1.0000     -10.446897      -284.2745 
  14   1.0000     -10.422933      -283.6224 
  15   1.0000     -10.416160      -283.4381 
  16   1.0000     -10.375902      -282.3426 
  17   1.0000     -10.367585      -282.1163 
  18   1.0000      -1.229116       -33.4460 
  19   1.0000      -1.218035       -33.1444 
  20   1.0000      -1.212956       -33.0062 
  21   1.0000      -1.191470       -32.4215 
  22   1.0000      -1.121391       -30.5146 
  23   1.0000      -1.105500       -30.0822 
  24   1.0000      -1.062455       -28.9109 
  25   1.0000      -1.055702       -28.7271 
  26   1.0000      -0.980029       -26.6679 
  27   1.0000      -0.953576       -25.9481 
  28   1.0000      -0.885436       -24.0939 
  29   1.0000      -0.851231       -23.1632 
  30   1.0000      -0.816704       -22.2236 
  31   1.0000      -0.798941       -21.7403 
  32   1.0000      -0.792441       -21.5634 
  33   1.0000      -0.785490       -21.3743 
  34   1.0000      -0.696112       -18.9422 
  35   1.0000      -0.692459       -18.8428 
  36   1.0000      -0.684984       -18.6394 
  37   1.0000      -0.675516       -18.3817 
  38   1.0000      -0.655197       -17.8288 
  39   1.0000      -0.634504       -17.2657 
  40   1.0000      -0.624274       -16.9874 
  41   1.0000      -0.602061       -16.3829 
  42   1.0000      -0.595474       -16.2037 
  43   1.0000      -0.591141       -16.0858 
  44   1.0000      -0.579413       -15.7666 
  45   1.0000      -0.573442       -15.6041 
  46   1.0000      -0.569778       -15.5044 
  47   1.0000      -0.565998       -15.4016 
  48   1.0000      -0.563726       -15.3398 
  49   1.0000      -0.556739       -15.1496 
  50   1.0000      -0.549542       -14.9538 
  51   1.0000      -0.542592       -14.7647 
  52   1.0000      -0.530623       -14.4390 
  53   1.0000      -0.517684       -14.0869 
  54   1.0000      -0.510988       -13.9047 
  55   1.0000      -0.504841       -13.7374 
  56   1.0000      -0.495638       -13.4870 
  57   1.0000      -0.433049       -11.7839 
  58   1.0000      -0.423933       -11.5358 
  59   1.0000      -0.410324       -11.1655 
  60   1.0000      -0.409297       -11.1375 
  61   1.0000      -0.404421       -11.0049 
  62   1.0000      -0.398446       -10.8423 
  63   1.0000      -0.391364       -10.6496 
  64   1.0000      -0.380278       -10.3479 
  65   1.0000      -0.353226        -9.6118 
  66   1.0000      -0.320536        -8.7222 
  67   0.0000       0.009392         0.2556 
  68   0.0000       0.030561         0.8316 
  69   0.0000       0.033963         0.9242 
  70   0.0000       0.035117         0.9556 
  71   0.0000       0.052089         1.4174 
  72   0.0000       0.057870         1.5747 
  73   0.0000       0.058436         1.5901 
  74   0.0000       0.062014         1.6875 
  75   0.0000       0.064589         1.7576 
  76   0.0000       0.065286         1.7765 
  77   0.0000       0.075484         2.0540 

                 SPIN DOWN ORBITALS
  NO   OCC          E(Eh)            E(eV) 
   0   1.0000     -19.333789      -526.0991 
   1   1.0000     -19.332432      -526.0622 
   2   1.0000     -19.328920      -525.9666 
   3   1.0000     -19.325297      -525.8681 
   4   1.0000     -14.571597      -396.5133 
   5   1.0000     -14.565043      -396.3350 
   6   1.0000     -14.557997      -396.1432 
   7   1.0000     -14.552433      -395.9918 
   8   1.0000     -10.510452      -286.0039 
   9   1.0000     -10.510379      -286.0020 
  10   1.0000     -10.488918      -285.4180 
  11   1.0000     -10.480119      -285.1785 
  12   1.0000     -10.457875      -284.5732 
  13   1.0000     -10.446358      -284.2599 
  14   1.0000     -10.411347      -283.3072 
  15   1.0000     -10.404303      -283.1155 
  16   1.0000     -10.376446      -282.3575 
  17   1.0000     -10.367949      -282.1262 
  18   1.0000      -1.227808       -33.4104 
  19   1.0000      -1.216226       -33.0952 
  20   1.0000      -1.209683       -32.9171 
  21   1.0000      -1.187181       -32.3049 
  22   1.0000      -1.118960       -30.4484 
  23   1.0000      -1.103262       -30.0213 
  24   1.0000      -1.060471       -28.8569 
  25   1.0000      -1.053955       -28.6796 
  26   1.0000      -0.967019       -26.3139 
  27   1.0000      -0.936459       -25.4823 
  28   1.0000      -0.880376       -23.9563 
  29   1.0000      -0.845538       -23.0083 
  30   1.0000      -0.808089       -21.9892 
  31   1.0000      -0.793377       -21.5889 
  32   1.0000      -0.790680       -21.5155 
  33   1.0000      -0.784190       -21.3389 
  34   1.0000      -0.689096       -18.7513 
  35   1.0000      -0.687372       -18.7043 
  36   1.0000      -0.680055       -18.5052 
  37   1.0000      -0.668730       -18.1971 
  38   1.0000      -0.640988       -17.4422 
  39   1.0000      -0.630158       -17.1475 
  40   1.0000      -0.620328       -16.8800 
  41   1.0000      -0.596220       -16.2240 
  42   1.0000      -0.590462       -16.0673 
  43   1.0000      -0.587085       -15.9754 
  44   1.0000      -0.571654       -15.5555 
  45   1.0000      -0.566824       -15.4241 
  46   1.0000      -0.562902       -15.3173 
  47   1.0000      -0.559608       -15.2277 
  48   1.0000      -0.555138       -15.1061 
  49   1.0000      -0.551480       -15.0065 
  50   1.0000      -0.543675       -14.7941 
  51   1.0000      -0.535782       -14.5794 
  52   1.0000      -0.524194       -14.2640 
  53   1.0000      -0.508636       -13.8407 
  54   1.0000      -0.503527       -13.7017 
  55   1.0000      -0.497133       -13.5277 
  56   1.0000      -0.492174       -13.3927 
  57   1.0000      -0.429083       -11.6759 
  58   1.0000      -0.421695       -11.4749 
  59   1.0000      -0.405929       -11.0459 
  60   1.0000      -0.397291       -10.8108 
  61   1.0000      -0.392848       -10.6899 
  62   1.0000      -0.391800       -10.6614 
  63   1.0000      -0.386887       -10.5277 
  64   1.0000      -0.370980       -10.0949 
  65   0.0000      -0.068127        -1.8538 
  66   0.0000      -0.041780        -1.1369 
  67   0.0000       0.008858         0.2410 
  68   0.0000       0.030236         0.8228 
  69   0.0000       0.033838         0.9208 
  70   0.0000       0.035121         0.9557 
  71   0.0000       0.054998         1.4966 
  72   0.0000       0.058275         1.5858 
  73   0.0000       0.059890         1.6297 
  74   0.0000       0.063193         1.7196 
  75   0.0000       0.064566         1.7569 
*Only the first 10 virtual orbitals were printed.

                    ********************************
                    * MULLIKEN POPULATION ANALYSIS *
                    ********************************

--------------------------------------------
MULLIKEN ATOMIC CHARGES AND SPIN POPULATIONS
--------------------------------------------
   0 O :   -0.684198    0.152953
   1 O :   -0.609338    0.098682
   2 O :   -0.636172    0.009684
   3 O :   -0.615396    0.008679
   4 N :   -0.307675    0.020767
   5 N :   -0.184462    0.027848
   6 N :    0.023500    0.030184
   7 N :   -0.048822    0.038318
   8 C :   -0.143741    0.485310
   9 C :   -0.455368    0.463366
  10 C :    0.656521    0.114853
  11 C :    0.680192    0.186242
  12 C :   -1.443757    0.028972
  13 C :   -1.470054   -0.016800
  14 C :    0.429648    0.091494
  15 C :    0.668168    0.131422
  16 C :    0.340520   -0.003837
  17 C :    0.409043   -0.001911
  18 H :    0.548932    0.024419
  19 H :    0.634145    0.023771
  20 H :    0.297741    0.021427
  21 H :    0.375084   -0.001099
  22 H :    0.337199    0.018961
  23 H :    0.299952    0.016186
  24 H :    0.456879    0.030280
  25 H :    0.247870    0.006646
  26 H :    0.114318   -0.000750
  27 H :   -0.002002   -0.002505
  28 H :    0.065379    0.000431
  29 H :    0.015893   -0.003995
Sum of atomic charges         :    0.0000000
Sum of atomic spin populations:    2.0000000

-----------------------------------------------------
MULLIKEN REDUCED ORBITAL CHARGES AND SPIN POPULATIONS
-----------------------------------------------------
CHARGE
  0 O s       :     4.110100  s :     4.110100
      pz      :     1.571777  p :     4.545093
      px      :     1.502716
      py      :     1.470601
      dz2     :     0.002749  d :     0.027170
      dxz     :     0.006898
      dyz     :     0.007389
      dx2y2   :     0.002612
      dxy     :     0.007522
      f0      :     0.000224  f :     0.001834
      f+1     :     0.000485
      f-1     :     0.000084
      f+2     :     0.000392
      f-2     :     0.000396
      f+3     :     0.000120
      f-3     :     0.000133

[...]
[1741106993.484431] [ohm:868132:0]        ib_iface.c:1059 UCX  ERROR ibv_create_cq(cqe=256) failed: Connection timed out
[1741106993.485197] [ohm:868096:0]        ib_iface.c:1059 UCX  ERROR ibv_create_cq(cqe=256) failed: Connection timed out
[1741106993.486609] [ohm:868075:0]        ib_iface.c:1059 UCX  ERROR ibv_create_cq(cqe=256) failed: Connection timed out
[1741106993.488160] [ohm:868142:0]        ib_iface.c:1059 UCX  ERROR ibv_create_cq(cqe=256) failed: Connection timed out
[1741106993.491702] [ohm:868086:0]        ib_iface.c:1059 UCX  ERROR ibv_create_cq(cqe=256) failed: Connection timed out
[1741106993.493044] [ohm:868093:0]        ib_iface.c:1059 UCX  ERROR ibv_create_cq(cqe=256) failed: Connection timed out
[1741106993.496734] [ohm:868092:0]        ib_iface.c:1059 UCX  ERROR ibv_create_cq(cqe=256) failed: Connection timed out
[1741106993.499149] [ohm:868095:0]        ib_iface.c:1059 UCX  ERROR ibv_create_cq(cqe=256) failed: Connection timed out
[1741106993.499551] [ohm:868147:0]        ib_iface.c:1059 UCX  ERROR ibv_create_cq(cqe=256) failed: Connection timed out
[1741106993.499795] [ohm:868138:0]        ib_iface.c:1059 UCX  ERROR ibv_create_cq(cqe=256) failed: Connection timed out
[1741106993.500680] [ohm:868032:0]        ib_iface.c:1059 UCX  ERROR ibv_create_cq(cqe=256) failed: Connection timed out


           ************************************************************
           *        Program running with 64 parallel MPI-processes    *
           *              working on a common directory               *
           ************************************************************

------------------------------------------------------------------------------
                              ORCA PROPERTY CALCULATIONS
------------------------------------------------------------------------------

GBWName                                 ... orca.gbw
Number of atoms                         ...     30
Number of basis functions               ...    882
Max core memory                         ...   1024 MB

Electric properties:
Dipole moment                           ... YES
Quadrupole moment                       ...  NO
Static polarizability (Dipole/Dipole)   ...  NO
Static polarizability (Dipole/Quad.)    ...  NO
Static polarizability (Quad./Quad.)     ...  NO
Static polarizability (Velocity)        ...  NO

Atomic electric properties:
Dipole moment                           ...  NO
Quadrupole moment                       ...  NO
Static polarizability                   ...  NO

Choice of electric origin               ... Center of mass
Position of electric origin             ...    -0.013719    -0.086840    -0.048405

General magnetic properties:
Magnetizability                         ...  NO

EPR properties:
g-Tensor (aka g-matrix)                 ...  NO
Zero-Field splitting spin-orbit         ...  NO
Zero-field splitting spin-spin          ...  NO
Hyperfine couplings                     ...  NO (   0 nuclei)
Quadrupole couplings                    ...  NO (   0 nuclei)
Contact density                         ...  NO (   0 nuclei)

NMR properties:
Chemical shifts                         ...  NO (   0 nuclei)
Spin-rotation constants                 ...  NO (   0 nuclei)
Spin-spin couplings                     ...  NO (   0 nuclei,    0 pairs)

Choice of magnetic origin               ... GIAO
Position of magnetic origin             ...     0.000000     0.000000     0.000000

Properties with geometric perturbations:
SCF Hessian                             ...  NO
IR spectrum                             ...  NO
VCD spectrum                            ...  NO
X-ray spectroscopy properties:
SCF XES/XAS/RIXS spectra                ...  NO


-------------
DIPOLE MOMENT
-------------

Method             : SCF
Type of density    : Electron Density
Multiplicity       :   3
Irrep              :   0
Energy             :  -908.7421607892219981 Eh
Relativity type    : 
Basis              : AO
                                X                 Y                 Z
Electronic contribution:     -9.863558982      -4.512487361      -1.065703022
Nuclear contribution   :     11.677131497       5.288953563       2.550630179
                        -----------------------------------------
Total Dipole Moment    :      1.813572515       0.776466203       1.484927157
                        -----------------------------------------
Magnitude (a.u.)       :      2.469201023
Magnitude (Debye)      :      6.276210222



--------------------
Rotational spectrum 
--------------------
 
Rotational constants in cm-1:             0.022296             0.012093             0.010985 
Rotational constants in MHz :           668.413831           362.549664           329.330315 

Dipole components along the rotational axes: 
x,y,z [a.u.] :     0.655607     2.327071     0.501870 
x,y,z [Debye]:     1.666421     5.914945     1.275651 

 

-------------
DIPOLE MOMENT
-------------

Method             : TDA/CIS
Type of density    : Electron Density
Level              : Relaxed density
State              :   1
Multiplicity       :   3
Irrep              :   0
Energy             :     0.0000000000000000 Eh
Relativity type    : 
Basis              : AO
                                X                 Y                 Z
Electronic contribution:     -9.857173854      -4.449222205      -0.977496539
Nuclear contribution   :     11.677131497       5.288953563       2.550630179
                        -----------------------------------------
Total Dipole Moment    :      1.819957643       0.839731359       1.573133640
                        -----------------------------------------
Magnitude (a.u.)       :      2.547968607
Magnitude (Debye)      :      6.476421510



--------------------
Rotational spectrum 
--------------------
 
Rotational constants in cm-1:             0.022296             0.012093             0.010985 
Rotational constants in MHz :           668.413831           362.549664           329.330315 

Dipole components along the rotational axes: 
x,y,z [a.u.] :     0.603040     2.418670     0.527754 
x,y,z [Debye]:     1.532806     6.147770     1.341443 

 

Dipole moment calculation done in   0.2 sec 

Maximum memory used throughout the entire PROP-calculation: 81.4 MB
[1741106996.216855] [ohm:868369:0]        ib_iface.c:1059 UCX  ERROR ibv_create_cq(cqe=256) failed: Connection timed out
[1741106996.251970] [ohm:868368:0]        ib_iface.c:1059 UCX  ERROR ibv_create_cq(cqe=256) failed: Connection timed out
[1741106996.256884] [ohm:868374:0]        ib_iface.c:1059 UCX  ERROR ibv_create_cq(cqe=256) failed: Connection timed out
[1741106996.303886] [ohm:868371:0]        ib_iface.c:1059 UCX  ERROR ibv_create_cq(cqe=256) failed: Connection timed out
[1741106996.318908] [ohm:868375:0]        ib_iface.c:1059 UCX  ERROR ibv_create_cq(cqe=256) failed: Connection timed out
[1741106996.332117] [ohm:868392:0]        ib_iface.c:1059 UCX  ERROR ibv_create_cq(cqe=256) failed: Connection timed out
[1741106996.334838] [ohm:868370:0]        ib_iface.c:1059 UCX  ERROR ibv_create_cq(cqe=256) failed: Connection timed out
[1741106996.341188] [ohm:868376:0]        ib_iface.c:1059 UCX  ERROR ibv_create_cq(cqe=256) failed: Connection timed out
[1741106996.342909] [ohm:868372:0]        ib_iface.c:1059 UCX  ERROR ibv_create_cq(cqe=256) failed: Connection timed out
[1741106996.347365] [ohm:868382:0]        ib_iface.c:1059 UCX  ERROR ibv_create_cq(cqe=256) failed: Connection timed out
[1741106996.349076] [ohm:868379:0]        ib_iface.c:1059 UCX  ERROR ibv_create_cq(cqe=256) failed: Connection timed out
[1741106996.361502] [ohm:868378:0]        ib_iface.c:1059 UCX  ERROR ibv_create_cq(cqe=256) failed: Connection timed out
[1741106996.365233] [ohm:868393:0]        ib_iface.c:1059 UCX  ERROR ibv_create_cq(cqe=256) failed: Connection timed out
[1741106996.388263] [ohm:868391:0]        ib_iface.c:1059 UCX  ERROR ibv_create_cq(cqe=256) failed: Connection timed out
[1741106996.393276] [ohm:868373:0]        ib_iface.c:1059 UCX  ERROR ibv_create_cq(cqe=256) failed: Connection timed out
[1741106996.395477] [ohm:868396:0]        ib_iface.c:1059 UCX  ERROR ibv_create_cq(cqe=256) failed: Connection timed out
[1741106996.395459] [ohm:868400:0]        ib_iface.c:1059 UCX  ERROR ibv_create_cq(cqe=256) failed: Connection timed out
[1741106996.423013] [ohm:868385:0]        ib_iface.c:1059 UCX  ERROR ibv_create_cq(cqe=256) failed: Connection timed out
[1741106996.424121] [ohm:868414:0]        ib_iface.c:1059 UCX  ERROR ibv_create_cq(cqe=256) failed: Connection timed out
[1741106996.427498] [ohm:868424:0]        ib_iface.c:1059 UCX  ERROR ibv_create_cq(cqe=256) failed: Connection timed out
[1741106996.430103] [ohm:868431:0]        ib_iface.c:1059 UCX  ERROR ibv_create_cq(cqe=256) failed: Connection timed out
[1741106996.466030] [ohm:868416:0]        ib_iface.c:1059 UCX  ERROR ibv_create_cq(cqe=256) failed: Connection timed out
[1741106996.468333] [ohm:868409:0]        ib_iface.c:1059 UCX  ERROR ibv_create_cq(cqe=256) failed: Connection timed out
[1741106996.473470] [ohm:868395:0]        ib_iface.c:1059 UCX  ERROR ibv_create_cq(cqe=256) failed: Connection timed out
[1741106996.473810] [ohm:868398:0]        ib_iface.c:1059 UCX  ERROR ibv_create_cq(cqe=256) failed: Connection timed out
[1741106996.489441] [ohm:868422:0]        ib_iface.c:1059 UCX  ERROR ibv_create_cq(cqe=256) failed: Connection timed out
[1741106996.512825] [ohm:868404:0]        ib_iface.c:1059 UCX  ERROR ibv_create_cq(cqe=256) failed: Connection timed out
[1741106996.513527] [ohm:868463:0]        ib_iface.c:1059 UCX  ERROR ibv_create_cq(cqe=256) failed: Connection timed out
[1741106996.514725] [ohm:868402:0]        ib_iface.c:1059 UCX  ERROR ibv_create_cq(cqe=256) failed: Connection timed out
[1741106996.519373] [ohm:868493:0]        ib_iface.c:1059 UCX  ERROR ibv_create_cq(cqe=256) failed: Connection timed out
[1741106996.523801] [ohm:868407:0]        ib_iface.c:1059 UCX  ERROR ibv_create_cq(cqe=256) failed: Connection timed out
[1741106996.529755] [ohm:868487:0]        ib_iface.c:1059 UCX  ERROR ibv_create_cq(cqe=256) failed: Connection timed out
[1741106996.532289] [ohm:868388:0]        ib_iface.c:1059 UCX  ERROR ibv_create_cq(cqe=256) failed: Connection timed out
[1741106996.535375] [ohm:868419:0]        ib_iface.c:1059 UCX  ERROR ibv_create_cq(cqe=256) failed: Connection timed out
[1741106996.537204] [ohm:868445:0]        ib_iface.c:1059 UCX  ERROR ibv_create_cq(cqe=256) failed: Connection timed out
[1741106996.537447] [ohm:868500:0]        ib_iface.c:1059 UCX  ERROR ibv_create_cq(cqe=256) failed: Connection timed out
[1741106996.548990] [ohm:868476:0]        ib_iface.c:1059 UCX  ERROR ibv_create_cq(cqe=256) failed: Connection timed out
[1741106996.560048] [ohm:868485:0]        ib_iface.c:1059 UCX  ERROR ibv_create_cq(cqe=256) failed: Connection timed out
[1741106996.566567] [ohm:868377:0]        ib_iface.c:1059 UCX  ERROR ibv_create_cq(cqe=256) failed: Connection timed out
[1741106996.570150] [ohm:868397:0]        ib_iface.c:1059 UCX  ERROR ibv_create_cq(cqe=256) failed: Connection timed out
[1741106996.572992] [ohm:868508:0]        ib_iface.c:1059 UCX  ERROR ibv_create_cq(cqe=256) failed: Connection timed out
[1741106996.578955] [ohm:868428:0]        ib_iface.c:1059 UCX  ERROR ibv_create_cq(cqe=256) failed: Connection timed out
[1741106996.583461] [ohm:868479:0]        ib_iface.c:1059 UCX  ERROR ibv_create_cq(cqe=256) failed: Connection timed out
[1741106996.589398] [ohm:868455:0]        ib_iface.c:1059 UCX  ERROR ibv_create_cq(cqe=256) failed: Connection timed out
[1741106996.590136] [ohm:868516:0]        ib_iface.c:1059 UCX  ERROR ibv_create_cq(cqe=256) failed: Connection timed out
[1741106996.591434] [ohm:868437:0]        ib_iface.c:1059 UCX  ERROR ibv_create_cq(cqe=256) failed: Connection timed out
[1741106996.600407] [ohm:868452:0]        ib_iface.c:1059 UCX  ERROR ibv_create_cq(cqe=256) failed: Connection timed out
[1741106996.606257] [ohm:868465:0]        ib_iface.c:1059 UCX  ERROR ibv_create_cq(cqe=256) failed: Connection timed out
[1741106996.607817] [ohm:868470:0]        ib_iface.c:1059 UCX  ERROR ibv_create_cq(cqe=256) failed: Connection timed out
[1741106996.610098] [ohm:868412:0]        ib_iface.c:1059 UCX  ERROR ibv_create_cq(cqe=256) failed: Connection timed out
[1741106996.610416] [ohm:868446:0]        ib_iface.c:1059 UCX  ERROR ibv_create_cq(cqe=256) failed: Connection timed out
[1741106996.612132] [ohm:868418:0]        ib_iface.c:1059 UCX  ERROR ibv_create_cq(cqe=256) failed: Connection timed out
[1741106996.612520] [ohm:868505:0]        ib_iface.c:1059 UCX  ERROR ibv_create_cq(cqe=256) failed: Connection timed out
[1741106996.613161] [ohm:868477:0]        ib_iface.c:1059 UCX  ERROR ibv_create_cq(cqe=256) failed: Connection timed out
[1741106996.617075] [ohm:868471:0]        ib_iface.c:1059 UCX  ERROR ibv_create_cq(cqe=256) failed: Connection timed out
[1741106996.619324] [ohm:868441:0]        ib_iface.c:1059 UCX  ERROR ibv_create_cq(cqe=256) failed: Connection timed out
[1741106996.620296] [ohm:868458:0]        ib_iface.c:1059 UCX  ERROR ibv_create_cq(cqe=256) failed: Connection timed out
[1741106996.621521] [ohm:868435:0]        ib_iface.c:1059 UCX  ERROR ibv_create_cq(cqe=256) failed: Connection timed out
[1741106996.621805] [ohm:868513:0]        ib_iface.c:1059 UCX  ERROR ibv_create_cq(cqe=256) failed: Connection timed out
[1741106996.621913] [ohm:868496:0]        ib_iface.c:1059 UCX  ERROR ibv_create_cq(cqe=256) failed: Connection timed out
[1741106996.622589] [ohm:868420:0]        ib_iface.c:1059 UCX  ERROR ibv_create_cq(cqe=256) failed: Connection timed out
[1741106996.623340] [ohm:868417:0]        ib_iface.c:1059 UCX  ERROR ibv_create_cq(cqe=256) failed: Connection timed out
[1741106996.624320] [ohm:868394:0]        ib_iface.c:1059 UCX  ERROR ibv_create_cq(cqe=256) failed: Connection timed out
[1741106996.624486] [ohm:868499:0]        ib_iface.c:1059 UCX  ERROR ibv_create_cq(cqe=256) failed: Connection timed out

--------------------------------
SUGGESTED CITATIONS FOR THIS RUN
--------------------------------

Below you find a list of papers that are relevant to this ORCA run
We neither can nor want to force you to cite these papers, but we appreciate if you do
You receive ORCA, which is the product of decades of hard work by many enthusiastic individuals, for free
The only thing we kindly ask in return is that you cite our papers,
We deeply appreciate it, if you show your appreciation for ORCA by not just citing the generic ORCA reference.

Please note that relegating all ORCA citations to the supporting information does *not* help us.
SI sections are not indexed - citations you put there will not count into any citation statistics
But we need these citations in order to attract the funding resources that allow us to do what we are doing

Therefore, if you are a happy ORCA user, please consider citing a few of the papers listed below in the main body of your paper

In addition to the list printed below, the program has created the file orca.bibtex that contains the list in bibtex format
You can import this file easily into all common literature databanks and citation aid programs


List of essential papers. We consider these as the minimum necessary citations

  1. Neese,F.
     Software update: the ORCA program system, version 5.0
     WIRES Comput. Molec. Sci., 2022 12(1)e1606
     doi.org/10.1002/wcms.1606

List of papers to cite with high priority. The work reported in these papers was absolutely
necessary for this run to complete.
Our perspective: the developers of density functionals and basis sets usually get cited in chemistry papers
Good! But without the algorithms to do something with them, the functionals or basis sets would not do anything.
Hence, in our opinion, the algorithm design and method developments papers are equally worthy of getting cited

  1. Neese,F.; Olbrich,G.
     Efficient use of the resolution of the identity approximation in time-dependent density functional calculations with hybrid density functionals
     Chem. Phys. Lett., 2002 362 170-178
     doi.org/10.1016/s0009-2614(02)01053-9
  2. Neese,F.
     An improvement of the resolution of the identity approximation for the formation of the Coulomb matrix
     J. Comp. Chem., 2003 24(14)1740-1747
     doi.org/10.1002/jcc.10318
  3. Neese,F.; Wennmohs,F.; Hansen,A.; Becker,U.
     Efficient, approximate and parallel Hartree-Fock and hybrid DFT calculations. A 'chain-of-spheres' algorithm for the Hartree-Fock exchange
     Chem. Phys., 2009 356(1-3)98-109
     doi.org/10.1016/j.chemphys.2008.10.036
  4. Petrenko,T.; Kossmann,S.; Neese,F.
     Efficient time-dependent density functional theory approximations for hybrid density functionals: Analytical gradients and parallelization
     J. Chem. Phys., 2011 134 054116
     doi.org/10.1063/1.3533441
  5. Helmich-Paris,B.; de Souza,B.; Neese,F.; Izsák,R.
     An improved chain of spheres for exchange algorithm
     J. Chem. Phys., 2021 155 104109
     doi.org/doi: 10.1063/5.0058766.
  6. Neese,F.
     The SHARK Integral Generation and Digestion System
     J. Comp. Chem., 2022  1-16
     doi.org/10.1002/jcc.26942
  7. Lehtola,S.; Steigemann,C.; Oliveira,M.; Marques,M.
     Recent developments in Libxc - A comprehensive library of functionals for density functional theory
     Software X, 2018 7 
     doi.org/10.1016/j.softx.2017.11.002
  8. Grimme,S.; Antony,J.; Ehrlich,S.; Krieg,H.
     A consistent and accurate ab initio parametrization of density functional dispersion correction (DFT-D) for the 94 elements H-Pu
     J. Chem. Phys., 2010 132 154104-XXXX
     doi.org/10.1063/1.3382344
  9. Grimme,S.; Ehrlich,S.; Goerigk,L.
     Effect of the damping function in dispersion corrected density functional theory
     J. Comput. Chem., 2011 32(7)1456-1465
     doi.org/10.1002/jcc.21759

List of suggested additional citations. These are papers that are important in the 'surrounding' of 
of this run, or papers that preceded the highly important papers. If you like your results we are grateful for a citation.

  1. Izsak,R.; Neese,F.
     An overlap fitted chain of spheres exchange method
     J. Chem. Phys., 2011 135 144105
     doi.org/10.1063/1.3646921
  2. Izsak,R.; Hansen,A.; Neese,F.
     The resolution of identity and chain of spheres approximations for the LPNO-CCSD singles Fock term
     Molec. Phys., 2012 110 2413-2417
     doi.org/10.1080/00268976.2012.687466
  3. Neese,F.
     The ORCA program system
     WIRES Comput. Molec. Sci., 2012 2(1)73-78
     doi.org/10.1002/wcms.81
  4. Izsak,R.; Neese,F.; Klopper,W.
     Robust fitting techniques in the chain of spheres approximation to the Fock exchange: The role of the complementary space
     J. Chem. Phys., 2013 139 
     doi.org/10.1063/1.4819264
  5. Neese,F.
     Software update: the ORCA program system, version 4.0
     WIRES Comput. Molec. Sci., 2018 8(1)1-6
     doi.org/10.1002/wcms.1327
  6. Neese,F.; Wennmohs,F.; Becker,U.; Riplinger,C.
     The ORCA quantum chemistry program package
     J. Chem. Phys., 2020 152 Art. No. L224108
     doi.org/10.1063/5.0004608

List of optional additional citations

  1. Neese,F.
     Approximate second-order SCF convergence for spin unrestricted wavefunctions
     Chem. Phys. Lett., 2000 325(1-3)93-98
     doi.org/10.1016/s0009-2614(00)00662-x

Timings for individual modules:

Sum of individual times          ...      303.823 sec (=   5.064 min)
Startup calculation              ...        6.573 sec (=   0.110 min)   2.2 %
SCF iterations                   ...      128.235 sec (=   2.137 min)  42.2 %
Property integrals               ...        4.179 sec (=   0.070 min)   1.4 %
Property calculations            ...        2.938 sec (=   0.049 min)   1.0 %
CIS module                       ...      161.898 sec (=   2.698 min)  53.3 %
                             ****ORCA TERMINATED NORMALLY****
TOTAL RUN TIME: 0 days 0 hours 5 minutes 6 seconds 131 msec
