
                                 *****************
                                 * O   R   C   A *
                                 *****************

                                            #,                                       
                                            ###                                      
                                            ####                                     
                                            #####                                    
                                            ######                                   
                                           ########,                                 
                                     ,,################,,,,,                         
                               ,,#################################,,                 
                          ,,##########################################,,             
                       ,#########################################, ''#####,          
                    ,#############################################,,   '####,        
                  ,##################################################,,,,####,       
                ,###########''''           ''''###############################       
              ,#####''   ,,,,##########,,,,          '''####'''          '####       
            ,##' ,,,,###########################,,,                        '##       
           ' ,,###''''                  '''############,,,                           
         ,,##''                                '''############,,,,        ,,,,,,###''
      ,#''                                            '''#######################'''  
     '                                                          ''''####''''         
             ,#######,   #######,   ,#######,      ##                                
            ,#'     '#,  ##    ##  ,#'     '#,    #''#        ,####,   ,####,        
            ##       ##  ##   ,#'  ##            #'  '#       #'       #'  '#        
            ##       ##  #######   ##           ,######,      #####,   #    #        
            '#,     ,#'  ##    ##  '#,     ,#' ,#      #,     #,   #   #,  ,#        
             '#######'   ##     ##  '#######'  #'      '#     '####' # '####'        



                #########################################################
                #                        -***-                          #
                #          Department of theory and spectroscopy        #
                #                                                       #
                #                      Frank Neese                      #
                #                                                       #
                #     Directorship, Architecture, Infrastructure        #
                #                    SHARK, DRIVERS                     #
                #        Core code/Algorithms in most modules           #
                #                                                       #
                #        Max Planck Institute fuer Kohlenforschung      #
                #                Kaiser Wilhelm Platz 1                 #
                #                 D-45470 Muelheim/Ruhr                 #
                #                      Germany                          #
                #                                                       #
                #                  All rights reserved                  #
                #                        -***-                          #
                #########################################################


                         Program Version 6.0.0  -   RELEASE  -


 With contributions from (in alphabetic order):
   Daniel Aravena         : Magnetic Suceptibility
   Michael Atanasov       : Ab Initio Ligand Field Theory (pilot matlab implementation)
   Alexander A. Auer      : GIAO ZORA, VPT2 properties, NMR spectrum
   Ute Becker             : All parallelization in ORCA, NUMFREQ, NUMCALC
   Giovanni Bistoni       : ED, misc. LED, open-shell LED, HFLD
   Martin Brehm           : Molecular dynamics
   Dmytro Bykov           : pre 5.0 version of the SCF Hessian
   Marcos Casanova-Páez   : Triplet and SCS-CIS(D). UHF-(DLPNO)-IP/EA/STEOM-CCSD. UHF-CVS-IP/STEOM-CCSD
   Vijay G. Chilkuri      : MRCI spin determinant printing, contributions to CSF-ICE
   Pauline Colinet        : FMM embedding
   Dipayan Datta          : RHF DLPNO-CCSD density
   Achintya Kumar Dutta   : EOM-CC, STEOM-CC
   Nicolas Foglia         : Exact transition moments, OPA infrastructure, MCD improvements
   Dmitry Ganyushin       : Spin-Orbit,Spin-Spin,Magnetic field MRCI
   Miquel Garcia          : C-PCM and meta-GGA Hessian, CCSD/C-PCM, Gaussian charge scheme
   Tiago L. C. Gouveia    : GS-ROHF, GS-ROCIS
   Yang Guo               : DLPNO-NEVPT2, F12-NEVPT2, CIM, IAO-localization
   Andreas Hansen         : Spin unrestricted coupled pair/coupled cluster methods
   Ingolf Harden          : AUTO-CI MPn and infrastructure 
   Benjamin Helmich-Paris : MC-RPA, TRAH-(SCF,CASSCF), AVAS, COSX integrals, SCF dyn. polar.
   Lee Huntington         : MR-EOM, pCC
   Robert Izsak           : Overlap fitted RIJCOSX, COSX-SCS-MP3, EOM
   Riya Kayal             : Wick's Theorem for AUTO-CI, AUTO-CI UHF-CCSDT
   Emily Kempfer          : AUTO-CI, RHF CISDT and CCSDT
   Christian Kollmar      : KDIIS, OOCD, Brueckner-CCSD(T), CCSD density, CASPT2, CASPT2-K, improved NEVPT2
   Axel Koslowski         : Symmetry handling
   Simone Kossmann        : Meta GGA functionals, TD-DFT gradient, OOMP2, (MP2 Hessian; deprecated post 5.0)
   Lucas Lang             : DCDCAS
   Marvin Lechner         : AUTO-CI (C++ implementation), FIC-MRCC
   Spencer Leger          : CASSCF response
   Dagmar Lenk            : GEPOL surface, SMD, ORCA-2-JSON
   Dimitrios Liakos       : Extrapolation schemes; Compound Job, initial MDCI parallelization
   Dimitrios Manganas     : Further ROCIS development; embedding schemes. LFT, Crystal Embedding
   Dimitrios Pantazis     : SARC Basis sets
   Anastasios Papadopoulos: AUTO-CI, single reference methods and gradients
   Taras Petrenko         : pre 6.0 DFT Hessian and TD-DFT gradient, (ASA, deprecated), ECA, 1-Electron XAS/XES, NRVS
   Peter Pinski           : DLPNO-MP2, DLPNO-MP2 Gradient
   Christoph Reimann      : Effective Core Potentials
   Marius Retegan         : Local ZFS, SOC
   Christoph Riplinger    : Optimizer, TS searches, QM/MM, DLPNO-CCSD(T), (RO)-DLPNO pert. Triples
   Michael Roemelt        : Original ROCIS implementation
   Masaaki Saitow         : Open-shell DLPNO-CCSD energy and density
   Barbara Sandhoefer     : DKH picture change effects
   Kantharuban Sivalingam : CASSCF convergence/infrastructure, NEVPT2 and variants, FIC-MRCI
   Bernardo de Souza      : ESD, SOC TD-DFT
   Georgi Stoychev        : AutoAux, RI-MP2 NMR, DLPNO-MP2 response, X2C
   Van Anh Tran           : RI-MP2 g-tensors
   Willem Van den Heuvel  : Paramagnetic NMR
   Zikuan Wang            : NOTCH, Electric field optimization 
   Frank Wennmohs         : Technical directorship and infrastructure
   Hang Xu                : AUTO-CI-Response properties 


 We gratefully acknowledge several colleagues who have allowed us to
 interface, adapt or use parts of their codes:
   Stefan Grimme, W. Hujo, H. Kruse, P. Pracht,  : VdW corrections, initial TS optimization,
                  C. Bannwarth, S. Ehlert,         DFT functionals, gCP, sTDA/sTD-DF
                  L. Wittmann, M. Mueller
   Ed Valeev, F. Pavosevic, A. Kumar             : LibInt (2-el integral package), F12 methods
   Garnet Chan, S. Sharma, J. Yang, R. Olivares  : DMRG
   Ulf Ekstrom                                   : XCFun DFT Library
   Mihaly Kallay                                 : mrcc  (arbitrary order and MRCC methods)
   Frank Weinhold                                : gennbo (NPA and NBO analysis)
   Simon Mueller                                 : openCOSMO-RS
   Christopher J. Cramer and Donald G. Truhlar   : smd solvation model
   Lars Goerigk                                  : TD-DFT with DH, B97 family of functionals
   V. Asgeirsson, H. Jonsson                     : NEB implementation
   FAccTs GmbH                                   : IRC, NEB, NEB-TS, DLPNO-Multilevel, CI-OPT
                                                   MM, QMMM, 2- and 3-layer-ONIOM, Crystal-QMMM,
                                                   LR-CPCM, SF, NACMEs, symmetry and pop. for TD-DFT,
                                                   nearIR, NL-DFT gradient (VV10), updates on ESD,
                                                   ML-optimized integration grids, MBIS, APM,
                                                   GOAT, DOCKER, SOLVATOR, interface openCOSMO-RS
   S Lehtola, MJT Oliveira, MAL Marques          : LibXC Library
   Liviu Ungur et al                             : ANISO software


 Your calculation uses the libint2 library for the computation of 2-el integrals
 For citations please refer to: http://libint.valeyev.net

 Your ORCA version has been built with support for libXC version: 6.2.2
 For citations please refer to: https://libxc.gitlab.io

 This ORCA versions uses:
   CBLAS   interface :  Fast vector & matrix operations
   LAPACKE interface :  Fast linear algebra routines
   SCALAPACK package :  Parallel linear algebra routines
   Shared memory     :  Shared parallel matrices
   BLAS/LAPACK       :  OpenBLAS 0.3.27  USE64BITINT DYNAMIC_ARCH NO_AFFINITY Zen SINGLE_THREADED
        Core in use  :  Zen
   Copyright (c) 2011-2014, The OpenBLAS Project


Your calculation utilizes the atom-pairwise dispersion correction
with the Becke-Johnson damping scheme (D3BJ)


Warning: RI is on but no J-basis has been assigned. Assigning Def2/J (nothing to worry about!)
================================================================================

----- Orbital basis set information -----
Your calculation utilizes the basis: def2-TZVPPD
   F. Weigend and R. Ahlrichs, Phys. Chem. Chem. Phys. 7, 3297 (2005).
   D. Rappoport and F. Furche, J. Chem. Phys. 133, 134105 (2010)
   D. Rappoport, J. Chem. Phys. 155, 124102 (2021).

----- AuxJ basis set information -----
Your calculation utilizes the auxiliary basis: def2/J
   F. Weigend, Phys. Chem. Chem. Phys. 8, 1057 (2006).

================================================================================
                                        WARNINGS
                       Please study these warnings very carefully!
================================================================================

Using LibXC functional ID 531 : wB97M-V exchange-correlation functional
[ 1]  N. Mardirossian and M. Head-Gordon.,  J. Chem. Phys. 144, 214110 (2016)
Using LibXC functional ID 531 : wB97M-V exchange-correlation functional
[ 1]  N. Mardirossian and M. Head-Gordon.,  J. Chem. Phys. 144, 214110 (2016)

WARNING: B97M-V or wB97M-V functional requested.
  ===> : libXC variant has now been activated.
         Any manually given DFX/HFX/RangeSep scaling parameters are IGNORED!

Your calculation utilizes LibXC
 by S Lehtola, C Steigemann, MJT Oliveira & MAL Marques
Please cite in your paper:
 S Lehtola, C Steigemann, MJT Oliveira & MAL Marques, SoftwareX, 7, (2018), 1.
   


WARNING: your system is open-shell and RHF/RKS was chosen
  ===> : WILL SWITCH to UHF/UKS

INFO   : Checking CIS options ...

WARNING: CIS/ROCIS methods need fully converged wavefunctions
  ===> : Setting SCFConvForced true
         You can overwrite this default with %scf ConvForced false 


================================================================================
                                       INPUT FILE
================================================================================
NAME = orca.inp
|  1> ! Engrad def2-TZVPPD wB97M-D3BJ 
|  2> %pal nprocs 8 end%pal nprocs 64 end 
|  3> %tddft Nroots 2 Iroot 2 
|  4> sf true 
|  5> end 
|  6> *xyz 0 3 
|  7> O   2.55532367 1.17423858 -0.56054181
|  8> O   -0.58178397 0.85651362 -2.31636079
|  9> O   0.73307577 -2.90086339 -1.44370458
| 10> O   -2.57967688 -1.6580382 0.97530411
| 11> N   0.59789284 -2.06442762 0.67727548
| 12> N   -2.00322271 0.51766004 1.48278486
| 13> N   1.73597314 -0.89928768 -0.94043844
| 14> N   -1.61442862 -0.33863296 -0.64511139
| 15> C   1.34712878 0.14218063 1.16840605
| 16> C   -0.86305523 1.8783246 -0.16789583
| 17> C   0.72582739 -1.00381389 1.52868841
| 18> C   -1.32087309 1.65803835 1.1218983
| 19> C   1.6138575 1.26066655 2.13877649
| 20> C   -0.05239218 3.07003255 -0.57836587
| 21> C   1.92130167 0.22706355 -0.16223292
| 22> C   -1.00152654 0.84615398 -1.15648853
| 23> C   0.98345617 -2.01871951 -0.64160314
| 24> C   -2.1163512 -0.58670581 0.63163086
| 25> H   0.34636806 -1.17753212 2.48236397
| 26> H   -1.20720059 2.37064391 1.85536638
| 27> H   1.26273585 2.19982694 1.72995662
| 28> H   1.10142348 1.08754922 3.08231023
| 29> H   2.68702067 1.39194935 2.33088248
| 30> H   -0.4411453 3.55379508 -1.49975412
| 31> H   0.00928345 3.79514716 0.2738115
| 32> H   0.97740169 2.68712717 -0.78825482
| 33> H   0.02068209 -2.85828055 0.89568973
| 34> H   -2.16258428 0.34795886 2.45252661
| 35> H   2.05629594 -0.83999053 -1.88037532
| 36> H   -1.51991196 -1.14035305 -1.20421906
| 37> *
| 38> 
| 39>                          ****END OF INPUT****
================================================================================

                     *******************************
                     * Energy+Gradient Calculation *
                     *******************************

---------------------------------
CARTESIAN COORDINATES (ANGSTROEM)
---------------------------------
  O      2.555324    1.174239   -0.560542
  O     -0.581784    0.856514   -2.316361
  O      0.733076   -2.900863   -1.443705
  O     -2.579677   -1.658038    0.975304
  N      0.597893   -2.064428    0.677275
  N     -2.003223    0.517660    1.482785
  N      1.735973   -0.899288   -0.940438
  N     -1.614429   -0.338633   -0.645111
  C      1.347129    0.142181    1.168406
  C     -0.863055    1.878325   -0.167896
  C      0.725827   -1.003814    1.528688
  C     -1.320873    1.658038    1.121898
  C      1.613857    1.260667    2.138776
  C     -0.052392    3.070033   -0.578366
  C      1.921302    0.227064   -0.162233
  C     -1.001527    0.846154   -1.156489
  C      0.983456   -2.018720   -0.641603
  C     -2.116351   -0.586706    0.631631
  H      0.346368   -1.177532    2.482364
  H     -1.207201    2.370644    1.855366
  H      1.262736    2.199827    1.729957
  H      1.101423    1.087549    3.082310
  H      2.687021    1.391949    2.330882
  H     -0.441145    3.553795   -1.499754
  H      0.009283    3.795147    0.273811
  H      0.977402    2.687127   -0.788255
  H      0.020682   -2.858281    0.895690
  H     -2.162584    0.347959    2.452527
  H      2.056296   -0.839991   -1.880375
  H     -1.519912   -1.140353   -1.204219

----------------------------
CARTESIAN COORDINATES (A.U.)
----------------------------
  NO LB      ZA    FRAG     MASS         X           Y           Z
   0 O     8.0000    0    15.999    4.828862    2.218989   -1.059271
   1 O     8.0000    0    15.999   -1.099412    1.618576   -4.377288
   2 O     8.0000    0    15.999    1.385312   -5.481837   -2.728206
   3 O     8.0000    0    15.999   -4.874883   -3.133238    1.843058
   4 N     7.0000    0    14.007    1.129854   -3.901203    1.279865
   5 N     7.0000    0    14.007   -3.785542    0.978236    2.802057
   6 N     7.0000    0    14.007    3.280514   -1.699407   -1.777171
   7 N     7.0000    0    14.007   -3.050828   -0.639924   -1.219084
   8 C     6.0000    0    12.011    2.545704    0.268682    2.207967
   9 C     6.0000    0    12.011   -1.630938    3.549519   -0.317277
  10 C     6.0000    0    12.011    1.371615   -1.896933    2.888802
  11 C     6.0000    0    12.011   -2.496088    3.133238    2.120081
  12 C     6.0000    0    12.011    3.049749    2.382315    4.041702
  13 C     6.0000    0    12.011   -0.099007    5.801521   -1.092953
  14 C     6.0000    0    12.011    3.630734    0.429088   -0.306576
  15 C     6.0000    0    12.011   -1.892611    1.598999   -2.185447
  16 C     6.0000    0    12.011    1.858463   -3.814827   -1.212454
  17 C     6.0000    0    12.011   -3.999324   -1.108713    1.193609
  18 H     1.0000    0     1.008    0.654541   -2.225213    4.690988
  19 H     1.0000    0     1.008   -2.281279    4.479868    3.506134
  20 H     1.0000    0     1.008    2.386225    4.157070    3.269144
  21 H     1.0000    0     1.008    2.081389    2.055170    5.824722
  22 H     1.0000    0     1.008    5.077733    2.630403    4.404730
  23 H     1.0000    0     1.008   -0.833644    6.715699   -2.834125
  24 H     1.0000    0     1.008    0.017543    7.171789    0.517429
  25 H     1.0000    0     1.008    1.847022    5.077934   -1.489586
  26 H     1.0000    0     1.008    0.039083   -5.401367    1.692608
  27 H     1.0000    0     1.008   -4.086692    0.657547    4.634604
  28 H     1.0000    0     1.008    3.885836   -1.587352   -3.553394
  29 H     1.0000    0     1.008   -2.872217   -2.154955   -2.275644

--------------------------------
INTERNAL COORDINATES (ANGSTROEM)
--------------------------------
 O      0   0   0     0.000000000000     0.00000000     0.00000000
 O      1   0   0     3.609057187921     0.00000000     0.00000000
 O      2   1   0     4.075324157905    72.33463769     0.00000000
 O      3   2   1     4.286087681706    66.68023464   106.71118207
 N      3   2   1     2.283956137236    80.91526511    59.29087454
 N      4   3   2     2.307270888576   101.79803244   317.31298070
 N      1   2   3     2.261673692513    61.48866890   359.78084426
 N      2   1   3     2.299522750020    94.73337078    57.15943371
 C      1   2   3     2.348220434069    82.66200971   297.44956982
 C      8   2   1     2.388974149033    61.42077677    61.85685381
 C      9   1   2     1.352450456029   143.60218663    65.77281955
 C      6   4   3     1.377063107857   147.89303730    26.90554253
 C      9   1   2     1.504584246274    93.26325929   236.91205005
 C     10   8   2     1.498608712262   148.58049127   347.57167704
 C      1   2   3     1.207383288684    68.59121680   325.98013200
 C      2   1   3     1.233529410565    80.73891269    86.92391285
 C      3   2   1     1.218291791721    62.59334884    33.86748547
 C      4   3   2     1.216772402044    78.55593061   336.90963861
 H     11   9   1     1.040992065436   123.56662044   172.64825869
 H     12   6   4     1.028933207637   116.19699244   193.60584459
 H     13   9   1     1.082793764920   110.10756544    56.90463594
 H     13   9   1     1.087572596804   110.95701076   176.70302929
 H     13   9   1     1.098097934801   112.02160282   298.94356907
 H     14  10   8     1.110905703010   112.59173561    65.51653896
 H     14  10   8     1.120625428460   109.63547313   190.39805747
 H     14  10   8     1.118546072388   106.09307411   307.10303723
 H      5   3   2     1.005524494475    86.93673496   126.08490769
 H      6   4   3     0.997293167619    90.77297430   230.68055883
 H      7   1   2     0.994788513495    89.27847623    78.14224201
 H      8   2   1     0.981982631404    88.12614806   254.39713072

---------------------------
INTERNAL COORDINATES (A.U.)
---------------------------
 O      0   0   0     0.000000000000     0.00000000     0.00000000
 O      1   0   0     6.820129686830     0.00000000     0.00000000
 O      2   1   0     7.701246565393    72.33463769     0.00000000
 O      3   2   1     8.099531904399    66.68023464   106.71118207
 N      3   2   1     4.316051601264    80.91526511    59.29087454
 N      4   3   2     4.360110096178   101.79803244   317.31298070
 N      1   2   3     4.273943883144    61.48866890   359.78084426
 N      2   1   3     4.345468236259    94.73337078    57.15943371
 C      1   2   3     4.437493522468    82.66200971   297.44956982
 C      8   2   1     4.514506882690    61.42077677    61.85685381
 C      9   1   2     2.555760971592   143.60218663    65.77281955
 C      6   4   3     2.602272142977   147.89303730    26.90554253
 C      9   1   2     2.843252170871    93.26325929   236.91205005
 C     10   8   2     2.831960048083   148.58049127   347.57167704
 C      1   2   3     2.281623754285    68.59121680   325.98013200
 C      2   1   3     2.331032764105    80.73891269    86.92391285
 C      3   2   1     2.302237837558    62.59334884    33.86748547
 C      4   3   2     2.299366607177    78.55593061   336.90963861
 H     11   9   1     1.967189911258   123.56662044   172.64825869
 H     12   6   4     1.944401972531   116.19699244   193.60584459
 H     13   9   1     2.046183675217   110.10756544    56.90463594
 H     13   9   1     2.055214358716   110.95701076   176.70302929
 H     13   9   1     2.075104364998   112.02160282   298.94356907
 H     14  10   8     2.099307539300   112.59173561    65.51653896
 H     14  10   8     2.117675158498   109.63547313   190.39805747
 H     14  10   8     2.113745744987   106.09307411   307.10303723
 H      5   3   2     1.900165915506    86.93673496   126.08490769
 H      6   4   3     1.884610962031    90.77297430   230.68055883
 H      7   1   2     1.879877851677    89.27847623    78.14224201
 H      8   2   1     1.855678241622    88.12614806   254.39713072

---------------------
BASIS SET INFORMATION
---------------------
There are 4 groups of distinct atoms

 Group   1 Type O   : 12s7p3d1f contracted to 6s4p3d1f pattern {621111/4111/111/1}
 Group   2 Type N   : 12s6p3d1f contracted to 6s3p3d1f pattern {621111/411/111/1}
 Group   3 Type C   : 12s6p3d1f contracted to 6s3p3d1f pattern {621111/411/111/1}
 Group   4 Type H   : 5s3p1d contracted to 3s3p1d pattern {311/111/1}

Atom   0O    basis set group =>   1
Atom   1O    basis set group =>   1
Atom   2O    basis set group =>   1
Atom   3O    basis set group =>   1
Atom   4N    basis set group =>   2
Atom   5N    basis set group =>   2
Atom   6N    basis set group =>   2
Atom   7N    basis set group =>   2
Atom   8C    basis set group =>   3
Atom   9C    basis set group =>   3
Atom  10C    basis set group =>   3
Atom  11C    basis set group =>   3
Atom  12C    basis set group =>   3
Atom  13C    basis set group =>   3
Atom  14C    basis set group =>   3
Atom  15C    basis set group =>   3
Atom  16C    basis set group =>   3
Atom  17C    basis set group =>   3
Atom  18H    basis set group =>   4
Atom  19H    basis set group =>   4
Atom  20H    basis set group =>   4
Atom  21H    basis set group =>   4
Atom  22H    basis set group =>   4
Atom  23H    basis set group =>   4
Atom  24H    basis set group =>   4
Atom  25H    basis set group =>   4
Atom  26H    basis set group =>   4
Atom  27H    basis set group =>   4
Atom  28H    basis set group =>   4
Atom  29H    basis set group =>   4
---------------------------------
AUXILIARY/J BASIS SET INFORMATION
---------------------------------
There are 4 groups of distinct atoms

 Group   1 Type O   : 12s5p4d2f1g contracted to 6s4p3d1f1g pattern {711111/2111/211/2/1}
 Group   2 Type N   : 12s5p4d2f1g contracted to 6s4p3d1f1g pattern {711111/2111/211/2/1}
 Group   3 Type C   : 12s5p4d2f1g contracted to 6s4p3d1f1g pattern {711111/2111/211/2/1}
 Group   4 Type H   : 5s2p1d contracted to 3s1p1d pattern {311/2/1}

Atom   0O    basis set group =>   1
Atom   1O    basis set group =>   1
Atom   2O    basis set group =>   1
Atom   3O    basis set group =>   1
Atom   4N    basis set group =>   2
Atom   5N    basis set group =>   2
Atom   6N    basis set group =>   2
Atom   7N    basis set group =>   2
Atom   8C    basis set group =>   3
Atom   9C    basis set group =>   3
Atom  10C    basis set group =>   3
Atom  11C    basis set group =>   3
Atom  12C    basis set group =>   3
Atom  13C    basis set group =>   3
Atom  14C    basis set group =>   3
Atom  15C    basis set group =>   3
Atom  16C    basis set group =>   3
Atom  17C    basis set group =>   3
Atom  18H    basis set group =>   4
Atom  19H    basis set group =>   4
Atom  20H    basis set group =>   4
Atom  21H    basis set group =>   4
Atom  22H    basis set group =>   4
Atom  23H    basis set group =>   4
Atom  24H    basis set group =>   4
Atom  25H    basis set group =>   4
Atom  26H    basis set group =>   4
Atom  27H    basis set group =>   4
Atom  28H    basis set group =>   4
Atom  29H    basis set group =>   4
[1739916481.694879] [ohm:526904:0]        ib_iface.c:1059 UCX  ERROR ibv_create_cq(cqe=256) failed: Connection timed out
[1739916481.699525] [ohm:526908:0]        ib_iface.c:1059 UCX  ERROR ibv_create_cq(cqe=256) failed: Connection timed out
[1739916481.716254] [ohm:526907:0]        ib_iface.c:1059 UCX  ERROR ibv_create_cq(cqe=256) failed: Connection timed out
[1739916481.746526] [ohm:526920:0]        ib_iface.c:1059 UCX  ERROR ibv_create_cq(cqe=256) failed: Connection timed out
[1739916481.746885] [ohm:526922:0]        ib_iface.c:1059 UCX  ERROR ibv_create_cq(cqe=256) failed: Connection timed out
[1739916481.750862] [ohm:526905:0]        ib_iface.c:1059 UCX  ERROR ibv_create_cq(cqe=256) failed: Connection timed out
[1739916481.760509] [ohm:526906:0]        ib_iface.c:1059 UCX  ERROR ibv_create_cq(cqe=256) failed: Connection timed out
[1739916481.760804] [ohm:526924:0]        ib_iface.c:1059 UCX  ERROR ibv_create_cq(cqe=256) failed: Connection timed out
[1739916481.762406] [ohm:526928:0]        ib_iface.c:1059 UCX  ERROR ibv_create_cq(cqe=256) failed: Connection timed out
[1739916481.767568] [ohm:527004:0]        ib_iface.c:1059 UCX  ERROR ibv_create_cq(cqe=256) failed: Connection timed out
[1739916481.769245] [ohm:526921:0]        ib_iface.c:1059 UCX  ERROR ibv_create_cq(cqe=256) failed: Connection timed out
[1739916481.787549] [ohm:527057:0]        ib_iface.c:1059 UCX  ERROR ibv_create_cq(cqe=256) failed: Connection timed out
[1739916481.793170] [ohm:527043:0]        ib_iface.c:1059 UCX  ERROR ibv_create_cq(cqe=256) failed: Connection timed out
[1739916481.797258] [ohm:527010:0]        ib_iface.c:1059 UCX  ERROR ibv_create_cq(cqe=256) failed: Connection timed out
[1739916481.799381] [ohm:526993:0]        ib_iface.c:1059 UCX  ERROR ibv_create_cq(cqe=256) failed: Connection timed out
[1739916481.801719] [ohm:526939:0]        ib_iface.c:1059 UCX  ERROR ibv_create_cq(cqe=256) failed: Connection timed out
[1739916481.804491] [ohm:526935:0]        ib_iface.c:1059 UCX  ERROR ibv_create_cq(cqe=256) failed: Connection timed out
[1739916481.848389] [ohm:526976:0]        ib_iface.c:1059 UCX  ERROR ibv_create_cq(cqe=256) failed: Connection timed out
[1739916481.853082] [ohm:527000:0]        ib_iface.c:1059 UCX  ERROR ibv_create_cq(cqe=256) failed: Connection timed out
[1739916481.858161] [ohm:526982:0]        ib_iface.c:1059 UCX  ERROR ibv_create_cq(cqe=256) failed: Connection timed out
[1739916481.890485] [ohm:527048:0]        ib_iface.c:1059 UCX  ERROR ibv_create_cq(cqe=256) failed: Connection timed out
[1739916481.913693] [ohm:527026:0]        ib_iface.c:1059 UCX  ERROR ibv_create_cq(cqe=256) failed: Connection timed out
[1739916481.914270] [ohm:526985:0]        ib_iface.c:1059 UCX  ERROR ibv_create_cq(cqe=256) failed: Connection timed out
[1739916481.916717] [ohm:527001:0]        ib_iface.c:1059 UCX  ERROR ibv_create_cq(cqe=256) failed: Connection timed out
[1739916481.917693] [ohm:526930:0]        ib_iface.c:1059 UCX  ERROR ibv_create_cq(cqe=256) failed: Connection timed out
[1739916481.921984] [ohm:526948:0]        ib_iface.c:1059 UCX  ERROR ibv_create_cq(cqe=256) failed: Connection timed out
[1739916481.925245] [ohm:526997:0]        ib_iface.c:1059 UCX  ERROR ibv_create_cq(cqe=256) failed: Connection timed out
[1739916481.935162] [ohm:527008:0]        ib_iface.c:1059 UCX  ERROR ibv_create_cq(cqe=256) failed: Connection timed out
[1739916481.935382] [ohm:527019:0]        ib_iface.c:1059 UCX  ERROR ibv_create_cq(cqe=256) failed: Connection timed out
[1739916481.935939] [ohm:526990:0]        ib_iface.c:1059 UCX  ERROR ibv_create_cq(cqe=256) failed: Connection timed out
[1739916481.945090] [ohm:526967:0]        ib_iface.c:1059 UCX  ERROR ibv_create_cq(cqe=256) failed: Connection timed out
[1739916481.950880] [ohm:526956:0]        ib_iface.c:1059 UCX  ERROR ibv_create_cq(cqe=256) failed: Connection timed out
[1739916481.951339] [ohm:526942:0]        ib_iface.c:1059 UCX  ERROR ibv_create_cq(cqe=256) failed: Connection timed out
[1739916481.966745] [ohm:526938:0]        ib_iface.c:1059 UCX  ERROR ibv_create_cq(cqe=256) failed: Connection timed out
[1739916481.969572] [ohm:526945:0]        ib_iface.c:1059 UCX  ERROR ibv_create_cq(cqe=256) failed: Connection timed out
[1739916481.974864] [ohm:526925:0]        ib_iface.c:1059 UCX  ERROR ibv_create_cq(cqe=256) failed: Connection timed out
[1739916481.979916] [ohm:526941:0]        ib_iface.c:1059 UCX  ERROR ibv_create_cq(cqe=256) failed: Connection timed out
[1739916481.982498] [ohm:526929:0]        ib_iface.c:1059 UCX  ERROR ibv_create_cq(cqe=256) failed: Connection timed out
[1739916481.984825] [ohm:526927:0]        ib_iface.c:1059 UCX  ERROR ibv_create_cq(cqe=256) failed: Connection timed out
[1739916481.985777] [ohm:527046:0]        ib_iface.c:1059 UCX  ERROR ibv_create_cq(cqe=256) failed: Connection timed out
[1739916481.987388] [ohm:526970:0]        ib_iface.c:1059 UCX  ERROR ibv_create_cq(cqe=256) failed: Connection timed out
[1739916481.988800] [ohm:526937:0]        ib_iface.c:1059 UCX  ERROR ibv_create_cq(cqe=256) failed: Connection timed out
[1739916481.994349] [ohm:527038:0]        ib_iface.c:1059 UCX  ERROR ibv_create_cq(cqe=256) failed: Connection timed out
[1739916481.994816] [ohm:526931:0]        ib_iface.c:1059 UCX  ERROR ibv_create_cq(cqe=256) failed: Connection timed out
[1739916481.995597] [ohm:526934:0]        ib_iface.c:1059 UCX  ERROR ibv_create_cq(cqe=256) failed: Connection timed out
[1739916482.008412] [ohm:526943:0]        ib_iface.c:1059 UCX  ERROR ibv_create_cq(cqe=256) failed: Connection timed out
[1739916482.011018] [ohm:527034:0]        ib_iface.c:1059 UCX  ERROR ibv_create_cq(cqe=256) failed: Connection timed out
[1739916482.013105] [ohm:526964:0]        ib_iface.c:1059 UCX  ERROR ibv_create_cq(cqe=256) failed: Connection timed out
[1739916482.014340] [ohm:526933:0]        ib_iface.c:1059 UCX  ERROR ibv_create_cq(cqe=256) failed: Connection timed out
[1739916482.017128] [ohm:526940:0]        ib_iface.c:1059 UCX  ERROR ibv_create_cq(cqe=256) failed: Connection timed out
[1739916482.019408] [ohm:526936:0]        ib_iface.c:1059 UCX  ERROR ibv_create_cq(cqe=256) failed: Connection timed out
[1739916482.025594] [ohm:527017:0]        ib_iface.c:1059 UCX  ERROR ibv_create_cq(cqe=256) failed: Connection timed out
[1739916482.027379] [ohm:527052:0]        ib_iface.c:1059 UCX  ERROR ibv_create_cq(cqe=256) failed: Connection timed out
[1739916482.029506] [ohm:527040:0]        ib_iface.c:1059 UCX  ERROR ibv_create_cq(cqe=256) failed: Connection timed out
[1739916482.029899] [ohm:527053:0]        ib_iface.c:1059 UCX  ERROR ibv_create_cq(cqe=256) failed: Connection timed out
[1739916482.033525] [ohm:526973:0]        ib_iface.c:1059 UCX  ERROR ibv_create_cq(cqe=256) failed: Connection timed out
[1739916482.034059] [ohm:526915:0]        ib_iface.c:1059 UCX  ERROR ibv_create_cq(cqe=256) failed: Connection timed out
[1739916482.034829] [ohm:527023:0]        ib_iface.c:1059 UCX  ERROR ibv_create_cq(cqe=256) failed: Connection timed out
[1739916482.034868] [ohm:526923:0]        ib_iface.c:1059 UCX  ERROR ibv_create_cq(cqe=256) failed: Connection timed out
[1739916482.036056] [ohm:526954:0]        ib_iface.c:1059 UCX  ERROR ibv_create_cq(cqe=256) failed: Connection timed out
[1739916482.036895] [ohm:526932:0]        ib_iface.c:1059 UCX  ERROR ibv_create_cq(cqe=256) failed: Connection timed out
[1739916482.037615] [ohm:527014:0]        ib_iface.c:1059 UCX  ERROR ibv_create_cq(cqe=256) failed: Connection timed out
[1739916482.038740] [ohm:526926:0]        ib_iface.c:1059 UCX  ERROR ibv_create_cq(cqe=256) failed: Connection timed out
[1739916482.039043] [ohm:527030:0]        ib_iface.c:1059 UCX  ERROR ibv_create_cq(cqe=256) failed: Connection timed out


           ************************************************************
           *        Program running with 64 parallel MPI-processes    *
           *              working on a common directory               *
           ************************************************************
------------------------------------------------------------------------------
                             ORCA STARTUP CALCULATIONS
                           -- RI-GTO INTEGRALS CHOSEN --
------------------------------------------------------------------------------
------------------------------------------------------------------------------
                   ___                                                        
                  /   \      - P O W E R E D   B Y -                         
                 /     \                                                     
                 |  |  |   _    _      __       _____    __    __             
                 |  |  |  | |  | |    /  \     |  _  \  |  |  /  |          
                  \  \/   | |  | |   /    \    | | | |  |  | /  /          
                 / \  \   | |__| |  /  /\  \   | |_| |  |  |/  /          
                |  |  |   |  __  | /  /__\  \  |    /   |      \           
                |  |  |   | |  | | |   __   |  |    \   |  |\   \          
                \     /   | |  | | |  |  |  |  | |\  \  |  | \   \       
                 \___/    |_|  |_| |__|  |__|  |_| \__\ |__|  \__/        
                                                                              
                      - O R C A' S   B I G   F R I E N D -                    
                                      &                                       
                       - I N T E G R A L  F E E D E R -                       
                                                                              
 v1 FN, 2020, v2 2021, v3 2022-2024                                           
------------------------------------------------------------------------------


----------------------
SHARK INTEGRAL PACKAGE
----------------------

Number of atoms                             ...     30
Number of basis functions                   ...    882
Number of shells                            ...    322
Maximum angular momentum                    ...      3
Integral batch strategy                     ... SHARK/LIBINT Hybrid
RI-J (if used) integral strategy            ... SPLIT-RIJ (Revised 2003 algorithm where possible)
Printlevel                                  ...      1
Contraction scheme used                     ... SEGMENTED contraction
Prescreening option                         ... SCHWARTZ
   Thresh                                   ... 2.500e-11
   Tcut                                     ... 2.500e-12
   Tpresel                                  ... 2.500e-12 
Coulomb Range Separation                    ... NOT USED
Exchange Range Separation                   ... Long Range
   Mu parameter                             ... 3.000e-01
   Scaling (regular/separated)              ... 1.500e-01 8.500e-01
Multipole approximations                    ... NOT USED
Finite Nucleus Model                        ... NOT USED
CABS basis                                  ... NOT available
Auxiliary Coulomb fitting basis             ... AVAILABLE
   # of basis functions in Aux-J            ...   1014
   # of shells in Aux-J                     ...    330
   Maximum angular momentum in Aux-J        ...      4
Auxiliary J/K fitting basis                 ... NOT available
Auxiliary Correlation fitting basis         ... NOT available
Auxiliary 'external' fitting basis          ... NOT available

Checking pre-screening integrals            ... done (  0.0 sec) Dimension = 322
Check shell pair data                       ... done (  0.0 sec)
Shell pair information
Shell pair cut-off parameter TPreSel        ...   2.5e-12
Total number of shell pairs                 ...     52003
Shell pairs after pre-screening             ...     45518
Total number of primitive shell pairs       ...    129718
Primitive shell pairs kept                  ...     84904
          la=0 lb=0:   8787 shell pairs
          la=1 lb=0:  12022 shell pairs
          la=1 lb=1:   4149 shell pairs
          la=2 lb=0:   8168 shell pairs
          la=2 lb=1:   5659 shell pairs
          la=2 lb=2:   1956 shell pairs
          la=3 lb=0:   2099 shell pairs
          la=3 lb=1:   1502 shell pairs
          la=3 lb=2:   1028 shell pairs
          la=3 lb=3:    148 shell pairs

Calculating one electron integrals          ... done (  0.2 sec)
Calculating RI/J V-Matrix + Cholesky decomp.... done (  0.1 sec)
Calculating Nuclear repulsion               ... done (  0.0 sec) ENN=   1459.199247342115 Eh

Diagonalization of the overlap matrix:
Smallest eigenvalue                        ... 4.522e-07
Time for diagonalization                   ...    0.125 sec
Threshold for overlap eigenvalues          ... 1.000e-07
Number of eigenvalues below threshold      ... 0

IMPORTANT:
Smallest eigenvalue of S below the DiffSThresh (1.000e-06) while
Thresh>1e-12 and/or TCut>1e-13! In order to avoid SCF convergence issues,
Thresh will be set to at least 1e-12 and TCut to at least 1e-13.
This can be turned off by adding %SCF DiffSThresh -1 END to the input.

Time for construction of square roots      ...    0.144 sec
Total time needed                          ...    0.283 sec

-------------------
DFT GRID GENERATION
-------------------

General Integration Accuracy     IntAcc      ... 4.388
Radial Grid Type                 RadialGrid  ... OptM3 with GC (2021)
Angular Grid (max. ang.)         AngularGrid ... 4 (Lebedev-302)
Angular grid pruning method      GridPruning ... 4 (adaptive)
Weight generation scheme         WeightScheme... mBecke (2022)
Basis function cutoff            BFCut       ... 1.0000e-11
Integration weight cutoff        WCut        ... 1.0000e-14
Partially contracted basis set               ... off
Rotationally invariant grid construction     ... off
Angular grids for H and He will be reduced by one unit
Diffuse basis detected: some atoms will have their outermost
                        angular grid increased by 1.

Total number of grid points                  ...   151903
Total number of batches                      ...     2387
Average number of points per batch           ...       63
Average number of grid points per atom       ...     5063

--------------------
COSX GRID GENERATION
--------------------

GRIDX 1
-------
General Integration Accuracy     IntAcc      ... 3.816
Radial Grid Type                 RadialGrid  ... OptM3 with GC (2021)
Angular Grid (max. ang.)         AngularGrid ... 1 (Lebedev-50)
Angular grid pruning method      GridPruning ... 4 (adaptive)
Weight generation scheme         WeightScheme... mBecke (2022)
Basis function cutoff            BFCut       ... 1.0000e-11
Integration weight cutoff        WCut        ... 1.0000e-14
Partially contracted basis set               ... on
Rotationally invariant grid construction     ... off
Angular grids for H and He will be reduced by one unit
Diffuse basis detected: some atoms will have their outermost
                        angular grid increased by 1.

Total number of grid points                  ...    19023
Total number of batches                      ...      165
Average number of points per batch           ...      115
Average number of grid points per atom       ...      634
UseSFitting                                  ... on

GRIDX 2
-------
General Integration Accuracy     IntAcc      ... 4.020
Radial Grid Type                 RadialGrid  ... OptM3 with GC (2021)
Angular Grid (max. ang.)         AngularGrid ... 2 (Lebedev-110)
Angular grid pruning method      GridPruning ... 4 (adaptive)
Weight generation scheme         WeightScheme... mBecke (2022)
Basis function cutoff            BFCut       ... 1.0000e-11
Integration weight cutoff        WCut        ... 1.0000e-14
Partially contracted basis set               ... on
Rotationally invariant grid construction     ... off
Angular grids for H and He will be reduced by one unit
Diffuse basis detected: some atoms will have their outermost
                        angular grid increased by 1.

Total number of grid points                  ...    45765
Total number of batches                      ...      373
Average number of points per batch           ...      122
Average number of grid points per atom       ...     1526
UseSFitting                                  ... on

GRIDX 3
-------
General Integration Accuracy     IntAcc      ... 4.338
Radial Grid Type                 RadialGrid  ... OptM3 with GC (2021)
Angular Grid (max. ang.)         AngularGrid ... 3 (Lebedev-194)
Angular grid pruning method      GridPruning ... 4 (adaptive)
Weight generation scheme         WeightScheme... mBecke (2022)
Basis function cutoff            BFCut       ... 1.0000e-11
Integration weight cutoff        WCut        ... 1.0000e-14
Partially contracted basis set               ... on
Rotationally invariant grid construction     ... off
Angular grids for H and He will be reduced by one unit
Diffuse basis detected: some atoms will have their outermost
                        angular grid increased by 1.

Total number of grid points                  ...   100748
Total number of batches                      ...      804
Average number of points per batch           ...      125
Average number of grid points per atom       ...     3358
UseSFitting                                  ... on
Initializing property integral containers    ... done (  0.0 sec)

SHARK setup successfully completed in   4.2 seconds

Maximum memory used throughout the entire STARTUP-calculation: 80.7 MB
[1739916488.108492] [ohm:527273:0]        ib_iface.c:1059 UCX  ERROR ibv_create_cq(cqe=256) failed: Connection timed out
[1739916488.108651] [ohm:527277:0]        ib_iface.c:1059 UCX  ERROR ibv_create_cq(cqe=256) failed: Connection timed out
[1739916488.109396] [ohm:527298:0]        ib_iface.c:1059 UCX  ERROR ibv_create_cq(cqe=256) failed: Connection timed out
[1739916488.112388] [ohm:527275:0]        ib_iface.c:1059 UCX  ERROR ibv_create_cq(cqe=256) failed: Connection timed out
[1739916488.112987] [ohm:527280:0]        ib_iface.c:1059 UCX  ERROR ibv_create_cq(cqe=256) failed: Connection timed out
[1739916488.114907] [ohm:527276:0]        ib_iface.c:1059 UCX  ERROR ibv_create_cq(cqe=256) failed: Connection timed out
[1739916488.115713] [ohm:527392:0]        ib_iface.c:1059 UCX  ERROR ibv_create_cq(cqe=256) failed: Connection timed out
[1739916488.118740] [ohm:527414:0]        ib_iface.c:1059 UCX  ERROR ibv_create_cq(cqe=256) failed: Connection timed out
[1739916488.129934] [ohm:527274:0]        ib_iface.c:1059 UCX  ERROR ibv_create_cq(cqe=256) failed: Connection timed out
[1739916488.132862] [ohm:527389:0]        ib_iface.c:1059 UCX  ERROR ibv_create_cq(cqe=256) failed: Connection timed out
[1739916488.136950] [ohm:527402:0]        ib_iface.c:1059 UCX  ERROR ibv_create_cq(cqe=256) failed: Connection timed out
[1739916488.136996] [ohm:527308:0]        ib_iface.c:1059 UCX  ERROR ibv_create_cq(cqe=256) failed: Connection timed out
[1739916488.140021] [ohm:527292:0]        ib_iface.c:1059 UCX  ERROR ibv_create_cq(cqe=256) failed: Connection timed out
[1739916488.143785] [ohm:527323:0]        ib_iface.c:1059 UCX  ERROR ibv_create_cq(cqe=256) failed: Connection timed out
[1739916488.185295] [ohm:527328:0]        ib_iface.c:1059 UCX  ERROR ibv_create_cq(cqe=256) failed: Connection timed out
[1739916488.193403] [ohm:527315:0]        ib_iface.c:1059 UCX  ERROR ibv_create_cq(cqe=256) failed: Connection timed out
[1739916488.204190] [ohm:527385:0]        ib_iface.c:1059 UCX  ERROR ibv_create_cq(cqe=256) failed: Connection timed out
[1739916488.204464] [ohm:527397:0]        ib_iface.c:1059 UCX  ERROR ibv_create_cq(cqe=256) failed: Connection timed out
[1739916488.222173] [ohm:527303:0]        ib_iface.c:1059 UCX  ERROR ibv_create_cq(cqe=256) failed: Connection timed out
[1739916488.226515] [ohm:527380:0]        ib_iface.c:1059 UCX  ERROR ibv_create_cq(cqe=256) failed: Connection timed out
[1739916488.232217] [ohm:527324:0]        ib_iface.c:1059 UCX  ERROR ibv_create_cq(cqe=256) failed: Connection timed out
[1739916488.248283] [ohm:527318:0]        ib_iface.c:1059 UCX  ERROR ibv_create_cq(cqe=256) failed: Connection timed out
[1739916488.252755] [ohm:527404:0]        ib_iface.c:1059 UCX  ERROR ibv_create_cq(cqe=256) failed: Connection timed out
[1739916488.252907] [ohm:527329:0]        ib_iface.c:1059 UCX  ERROR ibv_create_cq(cqe=256) failed: Connection timed out
[1739916488.253828] [ohm:527304:0]        ib_iface.c:1059 UCX  ERROR ibv_create_cq(cqe=256) failed: Connection timed out
[1739916488.261824] [ohm:527286:0]        ib_iface.c:1059 UCX  ERROR ibv_create_cq(cqe=256) failed: Connection timed out
[1739916488.275913] [ohm:527362:0]        ib_iface.c:1059 UCX  ERROR ibv_create_cq(cqe=256) failed: Connection timed out
[1739916488.275896] [ohm:527378:0]        ib_iface.c:1059 UCX  ERROR ibv_create_cq(cqe=256) failed: Connection timed out
[1739916488.281373] [ohm:527405:0]        ib_iface.c:1059 UCX  ERROR ibv_create_cq(cqe=256) failed: Connection timed out
[1739916488.288776] [ohm:527383:0]        ib_iface.c:1059 UCX  ERROR ibv_create_cq(cqe=256) failed: Connection timed out
[1739916488.294047] [ohm:527411:0]        ib_iface.c:1059 UCX  ERROR ibv_create_cq(cqe=256) failed: Connection timed out
[1739916488.295622] [ohm:527426:0]        ib_iface.c:1059 UCX  ERROR ibv_create_cq(cqe=256) failed: Connection timed out
[1739916488.295715] [ohm:527307:0]        ib_iface.c:1059 UCX  ERROR ibv_create_cq(cqe=256) failed: Connection timed out
[1739916488.325646] [ohm:527285:0]        ib_iface.c:1059 UCX  ERROR ibv_create_cq(cqe=256) failed: Connection timed out
[1739916488.328212] [ohm:527326:0]        ib_iface.c:1059 UCX  ERROR ibv_create_cq(cqe=256) failed: Connection timed out
[1739916488.328210] [ohm:527346:0]        ib_iface.c:1059 UCX  ERROR ibv_create_cq(cqe=256) failed: Connection timed out
[1739916488.328794] [ohm:527290:0]        ib_iface.c:1059 UCX  ERROR ibv_create_cq(cqe=256) failed: Connection timed out
[1739916488.330013] [ohm:527375:0]        ib_iface.c:1059 UCX  ERROR ibv_create_cq(cqe=256) failed: Connection timed out
[1739916488.333457] [ohm:527301:0]        ib_iface.c:1059 UCX  ERROR ibv_create_cq(cqe=256) failed: Connection timed out
[1739916488.338981] [ohm:527369:0]        ib_iface.c:1059 UCX  ERROR ibv_create_cq(cqe=256) failed: Connection timed out
[1739916488.342015] [ohm:527355:0]        ib_iface.c:1059 UCX  ERROR ibv_create_cq(cqe=256) failed: Connection timed out
[1739916488.343583] [ohm:527282:0]        ib_iface.c:1059 UCX  ERROR ibv_create_cq(cqe=256) failed: Connection timed out
[1739916488.343668] [ohm:527420:0]        ib_iface.c:1059 UCX  ERROR ibv_create_cq(cqe=256) failed: Connection timed out
[1739916488.350795] [ohm:527279:0]        ib_iface.c:1059 UCX  ERROR ibv_create_cq(cqe=256) failed: Connection timed out
[1739916488.360701] [ohm:527327:0]        ib_iface.c:1059 UCX  ERROR ibv_create_cq(cqe=256) failed: Connection timed out
[1739916488.360878] [ohm:527333:0]        ib_iface.c:1059 UCX  ERROR ibv_create_cq(cqe=256) failed: Connection timed out
[1739916488.361886] [ohm:527278:0]        ib_iface.c:1059 UCX  ERROR ibv_create_cq(cqe=256) failed: Connection timed out
[1739916488.362392] [ohm:527288:0]        ib_iface.c:1059 UCX  ERROR ibv_create_cq(cqe=256) failed: Connection timed out
[1739916488.364631] [ohm:527338:0]        ib_iface.c:1059 UCX  ERROR ibv_create_cq(cqe=256) failed: Connection timed out
[1739916488.365459] [ohm:527283:0]        ib_iface.c:1059 UCX  ERROR ibv_create_cq(cqe=256) failed: Connection timed out
[1739916488.377655] [ohm:527330:0]        ib_iface.c:1059 UCX  ERROR ibv_create_cq(cqe=256) failed: Connection timed out
[1739916488.377945] [ohm:527373:0]        ib_iface.c:1059 UCX  ERROR ibv_create_cq(cqe=256) failed: Connection timed out
[1739916488.379526] [ohm:527331:0]        ib_iface.c:1059 UCX  ERROR ibv_create_cq(cqe=256) failed: Connection timed out
[1739916488.381654] [ohm:527321:0]        ib_iface.c:1059 UCX  ERROR ibv_create_cq(cqe=256) failed: Connection timed out
[1739916488.386001] [ohm:527284:0]        ib_iface.c:1059 UCX  ERROR ibv_create_cq(cqe=256) failed: Connection timed out
[1739916488.389291] [ohm:527281:0]        ib_iface.c:1059 UCX  ERROR ibv_create_cq(cqe=256) failed: Connection timed out
[1739916488.393606] [ohm:527287:0]        ib_iface.c:1059 UCX  ERROR ibv_create_cq(cqe=256) failed: Connection timed out
[1739916488.393638] [ohm:527360:0]        ib_iface.c:1059 UCX  ERROR ibv_create_cq(cqe=256) failed: Connection timed out
[1739916488.394257] [ohm:527351:0]        ib_iface.c:1059 UCX  ERROR ibv_create_cq(cqe=256) failed: Connection timed out
[1739916488.395487] [ohm:527400:0]        ib_iface.c:1059 UCX  ERROR ibv_create_cq(cqe=256) failed: Connection timed out
[1739916488.395505] [ohm:527312:0]        ib_iface.c:1059 UCX  ERROR ibv_create_cq(cqe=256) failed: Connection timed out
[1739916488.395778] [ohm:527340:0]        ib_iface.c:1059 UCX  ERROR ibv_create_cq(cqe=256) failed: Connection timed out
[1739916488.396599] [ohm:527295:0]        ib_iface.c:1059 UCX  ERROR ibv_create_cq(cqe=256) failed: Connection timed out
[1739916488.396943] [ohm:527349:0]        ib_iface.c:1059 UCX  ERROR ibv_create_cq(cqe=256) failed: Connection timed out


           ************************************************************
           *        Program running with 64 parallel MPI-processes    *
           *              working on a common directory               *
           ************************************************************
-------------------------------------------------------------------------------
                                 ORCA GUESS
                   Start orbitals & Density for SCF / CASSCF
-------------------------------------------------------------------------------

------------
SCF SETTINGS
------------
Hamiltonian:
 Density Functional     Method          .... DFT(GTOs)
  Functional kind                       .... Exchange-Correlation
  Functional name                       .... wB97M-V exchange-correlation functional
  Functional family                     .... Hybrid MGGA
  Functional refs                              
    [ 0] N. Mardirossian and M. Head-Gordon.,  J. Chem. Phys. 144, 214110 (2016), doi: 10.1063/1.4952647
  Fraction of HF Exchange (short range) .... 0.1500
  Fraction of HF Exchange (long range)  .... 1.0000
  Range separation parameter mu         .... 0.3000
  Functional external parameters        .... 17
    Parameter  0 _cx00      =  8.500000e-01 : u^00 coefficient for exchange
    Parameter  1 _cx01      =  1.007000e+00 : u^01 coefficient for exchange
    Parameter  2 _cx10      =  2.590000e-01 : u^10 coefficient for exchange
    Parameter  3 _css00     =  4.430000e-01 : u^00 coefficient for same-spin correlation
    Parameter  4 _css04     = -1.437000e+00 : u^04 coefficient for same-spin correlation
    Parameter  5 _css10     = -4.535000e+00 : u^10 coefficient for same-spin correlation
    Parameter  6 _css20     = -3.390000e+00 : u^20 coefficient for same-spin correlation
    Parameter  7 _css43     =  4.278000e+00 : u^43 coefficient for same-spin correlation
    Parameter  8 _cos00     =  1.000000e+00 : u^00 coefficient for opposite-spin correlation
    Parameter  9 _cos10     =  1.358000e+00 : u^10 coefficient for opposite-spin correlation
    Parameter 10 _cos20     =  2.924000e+00 : u^20 coefficient for opposite-spin correlation
    Parameter 11 _cos21     = -8.812000e+00 : u^21 coefficient for opposite-spin correlation
    Parameter 12 _cos60     = -1.390000e+00 : u^60 coefficient for opposite-spin correlation
    Parameter 13 _cos61     =  9.142000e+00 : u^61 coefficient for opposite-spin correlation
    Parameter 14 _alpha     =  1.000000e+00 : fraction of HF exchange
    Parameter 15 _beta      = -8.500000e-01 : fraction of short-range exchange
    Parameter 16 _omega     =  3.000000e-01 : range-separation constant
 Long-range corrected/Screened/Range-Separated Hybrid DFT is turned on
   Amount of maximum screened exact exchange              ....  0.850000
   Range separation parameter mu (erf(mu*r12)/r12)        ....  0.300000
 RI-approximation to the Coulomb term is turned on
   Number of AuxJ basis functions       .... 1014
   RIJ-COSX (HFX calculated with COS-X)).... on


General Settings:
 Integral files         IntName         .... orca
 Hartree-Fock type      HFTyp           .... UHF
 Total Charge           Charge          ....    0
 Multiplicity           Mult            ....    3
 Number of Electrons    NEL             ....  132
 Basis Dimension        Dim             ....  882
 Nuclear Repulsion      ENuc            ....   1459.1992473421 Eh

Convergence Acceleration:
 AO-DIIS                CNVDIIS         .... on
   Start iteration      DIISMaxIt       ....    12
   Startup error        DIISStart       ....  0.200000
   # of expansion vecs  DIISMaxEq       ....     5
   Bias factor          DIISBfac        ....   1.050
   Max. coefficient     DIISMaxC        ....  10.000
 MO-DIIS                CNVKDIIS        .... off
 Trust-Rad. Augm. Hess. CNVTRAH         .... auto
   Auto Start mean grad. ratio tolernc. ....  1.125000
   Auto Start start iteration           ....    50
   Auto Start num. interpolation iter.  ....    10
   Max. Number of Micro iterations      ....    24
   Max. Number of Macro iterations      .... Maxiter - #DIIS iter
   Number of Davidson start vectors     ....     2
   Converg. threshold    (grad. norm)   ....   1.000e-05
   Grad. Scal. Fac. for Micro threshold ....   0.100
   Minimum threshold for Micro iter.    ....   1.000e-02
   NR start threshold (gradient norm)   ....   1.000e-04
   Initial trust radius                 ....   0.400
   Minimum AH scaling param. (alpha)    ....   1.000
   Maximum AH scaling param. (alpha)    .... 1000.000
   Quad. conv. algorithm                .... NR
   White noise on init. David. guess    .... on
   Maximum white noise                  ....   0.010
   Pseudo random numbers                .... off
   Inactive MOs                         .... canonical
   Orbital update algorithm             .... Taylor
   Preconditioner                       .... Diag
   Full preconditioner red. dimension   ....   250
 SOSCF                  CNVSOSCF        .... on
   Start iteration      SOSCFMaxIt      ....   150
   Startup grad/error   SOSCFStart      ....  0.003300
   Hessian update       SOSCFHessUp     .... L-BFGS
 Level Shifting         CNVShift        .... on
   Level shift para.    LevelShift      ....    0.2500
   Turn off err/grad.   ShiftErr        ....    0.0010
 Zerner damping         CNVZerner       .... off
 Static damping         CNVDamp         .... on
   Fraction old density DampFac         ....    0.7000
   Max. Damping (<1)    DampMax         ....    0.9800
   Min. Damping (>=0)   DampMin         ....    0.0000
   Turn off err/grad.   DampErr         ....    0.1000

SCF Procedure:
 Maximum # iterations   MaxIter         ....   125
 SCF integral mode      SCFMode         .... Direct
   Integral package                     .... SHARK and LIBINT hybrid scheme
 Reset frequency        DirectResetFreq ....    20
 Integral Threshold     Thresh          ....  1.000e-12 Eh
 Primitive CutOff       TCut            ....  1.000e-13 Eh

Convergence Tolerance:
 Convergence Check Mode ConvCheckMode   .... Total+1el-Energy
 Convergence forced     ConvForced      .... 1
 Energy Change          TolE            ....  1.000e-08 Eh
 1-El. energy change                    ....  1.000e-05 Eh
 Orbital Gradient       TolG            ....  1.000e-05
 Orbital Rotation angle TolX            ....  1.000e-05
 DIIS Error             TolErr          ....  5.000e-07

------------------------------
INITIAL GUESS: MODEL POTENTIAL
------------------------------
Loading Hartree-Fock densities                     ... done
Calculating cut-offs                               ... done
Initializing the effective Hamiltonian             ... done
Setting up the integral package (SHARK)            ... done
Starting the Coulomb interaction                   ... done (   0.1 sec)
Making the grid                                    ... done (   0.3 sec)
Mapping shells                                     ... done
Starting the XC term evaluation                    ... done (   0.1 sec)
  promolecular density results
     # of electrons  =    132.002349760
     EX              =   -113.568120380
     EC              =     -4.483561817
     EX+EC           =   -118.051682197
Transforming the Hamiltonian                       ... done (   0.1 sec)
Diagonalizing the Hamiltonian                      ... done (   0.1 sec)
Back transforming the eigenvectors                 ... done (   0.1 sec)
Now organizing SCF variables                       ... done
                      ------------------
                      INITIAL GUESS DONE (   1.1 sec)
                      ------------------
             **** ENERGY FILE WAS UPDATED (orca.en.tmp) ****
Finished Guess after   3.6 sec
Maximum memory used throughout the entire GUESS-calculation: 73.0 MB
[1739916492.295191] [ohm:527640:0]        ib_iface.c:1059 UCX  ERROR ibv_create_cq(cqe=256) failed: Connection timed out
[1739916492.307736] [ohm:527626:0]        ib_iface.c:1059 UCX  ERROR ibv_create_cq(cqe=256) failed: Connection timed out
[1739916492.314355] [ohm:527631:0]        ib_iface.c:1059 UCX  ERROR ibv_create_cq(cqe=256) failed: Connection timed out
[1739916492.324014] [ohm:527636:0]        ib_iface.c:1059 UCX  ERROR ibv_create_cq(cqe=256) failed: Connection timed out
[1739916492.324108] [ohm:527635:0]        ib_iface.c:1059 UCX  ERROR ibv_create_cq(cqe=256) failed: Connection timed out
[1739916492.329517] [ohm:527630:0]        ib_iface.c:1059 UCX  ERROR ibv_create_cq(cqe=256) failed: Connection timed out
[1739916492.337628] [ohm:527642:0]        ib_iface.c:1059 UCX  ERROR ibv_create_cq(cqe=256) failed: Connection timed out
[1739916492.359542] [ohm:527627:0]        ib_iface.c:1059 UCX  ERROR ibv_create_cq(cqe=256) failed: Connection timed out
[1739916492.361992] [ohm:527644:0]        ib_iface.c:1059 UCX  ERROR ibv_create_cq(cqe=256) failed: Connection timed out
[1739916492.370623] [ohm:527703:0]        ib_iface.c:1059 UCX  ERROR ibv_create_cq(cqe=256) failed: Connection timed out
[1739916492.377474] [ohm:527628:0]        ib_iface.c:1059 UCX  ERROR ibv_create_cq(cqe=256) failed: Connection timed out
[1739916492.396568] [ohm:527690:0]        ib_iface.c:1059 UCX  ERROR ibv_create_cq(cqe=256) failed: Connection timed out
[1739916492.416803] [ohm:527717:0]        ib_iface.c:1059 UCX  ERROR ibv_create_cq(cqe=256) failed: Connection timed out
[1739916492.419192] [ohm:527727:0]        ib_iface.c:1059 UCX  ERROR ibv_create_cq(cqe=256) failed: Connection timed out
[1739916492.425386] [ohm:527648:0]        ib_iface.c:1059 UCX  ERROR ibv_create_cq(cqe=256) failed: Connection timed out
[1739916492.425940] [ohm:527722:0]        ib_iface.c:1059 UCX  ERROR ibv_create_cq(cqe=256) failed: Connection timed out
[1739916492.445870] [ohm:527678:0]        ib_iface.c:1059 UCX  ERROR ibv_create_cq(cqe=256) failed: Connection timed out
[1739916492.482169] [ohm:527638:0]        ib_iface.c:1059 UCX  ERROR ibv_create_cq(cqe=256) failed: Connection timed out
[1739916492.483779] [ohm:527639:0]        ib_iface.c:1059 UCX  ERROR ibv_create_cq(cqe=256) failed: Connection timed out
[1739916492.493546] [ohm:527738:0]        ib_iface.c:1059 UCX  ERROR ibv_create_cq(cqe=256) failed: Connection timed out
[1739916492.494241] [ohm:527653:0]        ib_iface.c:1059 UCX  ERROR ibv_create_cq(cqe=256) failed: Connection timed out
[1739916492.495214] [ohm:527650:0]        ib_iface.c:1059 UCX  ERROR ibv_create_cq(cqe=256) failed: Connection timed out
[1739916492.495258] [ohm:527655:0]        ib_iface.c:1059 UCX  ERROR ibv_create_cq(cqe=256) failed: Connection timed out
[1739916492.500485] [ohm:527746:0]        ib_iface.c:1059 UCX  ERROR ibv_create_cq(cqe=256) failed: Connection timed out
[1739916492.501844] [ohm:527741:0]        ib_iface.c:1059 UCX  ERROR ibv_create_cq(cqe=256) failed: Connection timed out
[1739916492.505576] [ohm:527634:0]        ib_iface.c:1059 UCX  ERROR ibv_create_cq(cqe=256) failed: Connection timed out
[1739916492.507160] [ohm:527633:0]        ib_iface.c:1059 UCX  ERROR ibv_create_cq(cqe=256) failed: Connection timed out
[1739916492.508939] [ohm:527682:0]        ib_iface.c:1059 UCX  ERROR ibv_create_cq(cqe=256) failed: Connection timed out
[1739916492.509279] [ohm:527641:0]        ib_iface.c:1059 UCX  ERROR ibv_create_cq(cqe=256) failed: Connection timed out
[1739916492.530055] [ohm:527646:0]        ib_iface.c:1059 UCX  ERROR ibv_create_cq(cqe=256) failed: Connection timed out
[1739916492.533979] [ohm:527732:0]        ib_iface.c:1059 UCX  ERROR ibv_create_cq(cqe=256) failed: Connection timed out
[1739916492.541169] [ohm:527645:0]        ib_iface.c:1059 UCX  ERROR ibv_create_cq(cqe=256) failed: Connection timed out
[1739916492.552176] [ohm:527753:0]        ib_iface.c:1059 UCX  ERROR ibv_create_cq(cqe=256) failed: Connection timed out
[1739916492.561820] [ohm:527771:0]        ib_iface.c:1059 UCX  ERROR ibv_create_cq(cqe=256) failed: Connection timed out
[1739916492.569236] [ohm:527710:0]        ib_iface.c:1059 UCX  ERROR ibv_create_cq(cqe=256) failed: Connection timed out
[1739916492.577219] [ohm:527706:0]        ib_iface.c:1059 UCX  ERROR ibv_create_cq(cqe=256) failed: Connection timed out
[1739916492.577357] [ohm:527651:0]        ib_iface.c:1059 UCX  ERROR ibv_create_cq(cqe=256) failed: Connection timed out
[1739916492.578094] [ohm:527647:0]        ib_iface.c:1059 UCX  ERROR ibv_create_cq(cqe=256) failed: Connection timed out
[1739916492.583011] [ohm:527652:0]        ib_iface.c:1059 UCX  ERROR ibv_create_cq(cqe=256) failed: Connection timed out
[1739916492.587809] [ohm:527751:0]        ib_iface.c:1059 UCX  ERROR ibv_create_cq(cqe=256) failed: Connection timed out
[1739916492.589408] [ohm:527763:0]        ib_iface.c:1059 UCX  ERROR ibv_create_cq(cqe=256) failed: Connection timed out
[1739916492.590025] [ohm:527719:0]        ib_iface.c:1059 UCX  ERROR ibv_create_cq(cqe=256) failed: Connection timed out
[1739916492.590884] [ohm:527629:0]        ib_iface.c:1059 UCX  ERROR ibv_create_cq(cqe=256) failed: Connection timed out
[1739916492.594762] [ohm:527656:0]        ib_iface.c:1059 UCX  ERROR ibv_create_cq(cqe=256) failed: Connection timed out
[1739916492.601551] [ohm:527686:0]        ib_iface.c:1059 UCX  ERROR ibv_create_cq(cqe=256) failed: Connection timed out
[1739916492.602482] [ohm:527668:0]        ib_iface.c:1059 UCX  ERROR ibv_create_cq(cqe=256) failed: Connection timed out
[1739916492.608366] [ohm:527673:0]        ib_iface.c:1059 UCX  ERROR ibv_create_cq(cqe=256) failed: Connection timed out
[1739916492.609813] [ohm:527755:0]        ib_iface.c:1059 UCX  ERROR ibv_create_cq(cqe=256) failed: Connection timed out
[1739916492.613143] [ohm:527643:0]        ib_iface.c:1059 UCX  ERROR ibv_create_cq(cqe=256) failed: Connection timed out
[1739916492.620538] [ohm:527698:0]        ib_iface.c:1059 UCX  ERROR ibv_create_cq(cqe=256) failed: Connection timed out
[1739916492.620700] [ohm:527666:0]        ib_iface.c:1059 UCX  ERROR ibv_create_cq(cqe=256) failed: Connection timed out
[1739916492.621761] [ohm:527649:0]        ib_iface.c:1059 UCX  ERROR ibv_create_cq(cqe=256) failed: Connection timed out
[1739916492.625245] [ohm:527759:0]        ib_iface.c:1059 UCX  ERROR ibv_create_cq(cqe=256) failed: Connection timed out
[1739916492.625289] [ohm:527684:0]        ib_iface.c:1059 UCX  ERROR ibv_create_cq(cqe=256) failed: Connection timed out
[1739916492.625543] [ohm:527680:0]        ib_iface.c:1059 UCX  ERROR ibv_create_cq(cqe=256) failed: Connection timed out
[1739916492.625773] [ohm:527637:0]        ib_iface.c:1059 UCX  ERROR ibv_create_cq(cqe=256) failed: Connection timed out
[1739916492.633479] [ohm:527765:0]        ib_iface.c:1059 UCX  ERROR ibv_create_cq(cqe=256) failed: Connection timed out
[1739916492.633829] [ohm:527747:0]        ib_iface.c:1059 UCX  ERROR ibv_create_cq(cqe=256) failed: Connection timed out
[1739916492.634375] [ohm:527695:0]        ib_iface.c:1059 UCX  ERROR ibv_create_cq(cqe=256) failed: Connection timed out
[1739916492.634429] [ohm:527734:0]        ib_iface.c:1059 UCX  ERROR ibv_create_cq(cqe=256) failed: Connection timed out
[1739916492.637754] [ohm:527632:0]        ib_iface.c:1059 UCX  ERROR ibv_create_cq(cqe=256) failed: Connection timed out
[1739916492.638083] [ohm:527779:0]        ib_iface.c:1059 UCX  ERROR ibv_create_cq(cqe=256) failed: Connection timed out
[1739916492.638364] [ohm:527714:0]        ib_iface.c:1059 UCX  ERROR ibv_create_cq(cqe=256) failed: Connection timed out
[1739916492.643395] [ohm:527659:0]        ib_iface.c:1059 UCX  ERROR ibv_create_cq(cqe=256) failed: Connection timed out


           ************************************************************
           *        Program running with 64 parallel MPI-processes    *
           *              working on a common directory               *
           ************************************************************

-------------------------------------------------------------------------------------------
                                      ORCA LEAN-SCF
                              memory conserving SCF solver
-------------------------------------------------------------------------------------------

----------------------------------------D-I-I-S--------------------------------------------
Iteration    Energy (Eh)           Delta-E    RMSDP     MaxDP     DIISErr   Damp  Time(sec)
-------------------------------------------------------------------------------------------
               ***  Starting incremental Fock matrix formation  ***
    1    -908.0940265263184301     0.00e+00  1.38e-03  2.20e-01  1.51e-01  0.700   7.8
    2    -908.3588956764187969    -2.65e-01  1.14e-03  1.48e-01  7.20e-02  0.700   6.7
                               ***Turning on AO-DIIS***
    3    -908.4776785084459334    -1.19e-01  8.55e-04  1.04e-01  2.73e-02  0.700   5.9
    4    -908.5509978511649933    -7.33e-02  2.06e-03  2.37e-01  1.94e-02  0.000   5.8
    5    -908.7186015909524031    -1.68e-01  2.51e-04  3.03e-02  7.47e-03  0.000   5.9
    6    -908.7223506336181345    -3.75e-03  1.84e-04  2.74e-02  6.93e-03  0.000   5.7
    7    -908.7253558199913641    -3.01e-03  2.98e-04  6.22e-02  6.22e-03  0.000   5.7
    8    -908.7289301495825384    -3.57e-03  2.51e-04  4.56e-02  5.00e-03  0.000   5.7
    9    -908.7311217265523737    -2.19e-03  2.18e-04  3.34e-02  3.39e-03  0.000   5.7
                              *** Initializing SOSCF ***
---------------------------------------S-O-S-C-F--------------------------------------
Iteration    Energy (Eh)           Delta-E    RMSDP     MaxDP     MaxGrad    Time(sec)
--------------------------------------------------------------------------------------
   10    -908.7322859224318563    -1.16e-03  1.49e-04  1.62e-02  2.23e-03     6.5
               *** Restarting incremental Fock matrix formation ***
   11    -908.7327880098578134    -5.02e-04  2.33e-04  3.53e-02  5.08e-03     7.5
   12    -908.7330366201967990    -2.49e-04  3.18e-04  5.37e-02  2.93e-03     6.8
   13    -908.7331645315362039    -1.28e-04  1.74e-04  2.51e-02  7.64e-04     6.9
   14    -908.7332167316208142    -5.22e-05  3.48e-05  4.99e-03  3.99e-04     6.7
   15    -908.7332225592203940    -5.83e-06  1.25e-05  1.92e-03  3.01e-04     6.4
   16    -908.7332254932352953    -2.93e-06  1.18e-05  1.56e-03  1.91e-04     6.3
   17    -908.7332268323611970    -1.34e-06  5.74e-06  8.31e-04  6.09e-05     6.3
   18    -908.7332272679063863    -4.36e-07  2.82e-06  3.98e-04  2.78e-05     6.1
   19    -908.7332273340571192    -6.62e-08  2.54e-06  3.57e-04  1.46e-05     5.9
   20    -908.7332273420479396    -7.99e-09  1.21e-06  2.90e-04  6.38e-06     5.8
                 **** Energy Check signals convergence ****

               *****************************************************
               *                     SUCCESS                       *
               *           SCF CONVERGED AFTER  20 CYCLES          *
               *****************************************************

Recomputing exchange energy using gridx3       ... done (    7.938 sec)
Old exchange energy                            :    -35.033192947 Eh
New exchange energy                            :    -35.033198846 Eh
Exchange energy change after final integration :     -0.000005898 Eh
Total energy after final integration           :   -908.733233240 Eh
             **** ENERGY FILE WAS UPDATED (orca.en.tmp) ****

----------------
TOTAL SCF ENERGY
----------------

Total Energy       :       -908.73323324022579 Eh          -24727.88842 eV

Components:
Nuclear Repulsion  :       1459.19924734211509 Eh           39706.83018 eV
Electronic Energy  :      -2367.93247468416303 Eh          -64434.71843 eV
One Electron Energy:      -4135.60370860508738 Eh         -112535.49811 eV
Two Electron Energy:       1767.67123392092435 Eh           48100.77967 eV

Virial components:
Potential Energy   :      -1814.81658736037116 Eh          -49383.66996 eV
Kinetic Energy     :        906.08335412014537 Eh           24655.78154 eV
Virial Ratio       :          2.00292454232608

DFT components:
N(Alpha)           :       67.000068116923 electrons
N(Beta)            :       65.000067715045 electrons
N(Total)           :      132.000135831968 electrons
E(XC)              :      -86.293843949617 Eh       

---------------
SCF CONVERGENCE
---------------

  Last Energy change         ...    7.9908e-09  Tolerance :   1.0000e-08
  Last MAX-Density change    ...    2.9008e-04  Tolerance :   1.0000e-07
  Last RMS-Density change    ...    1.2071e-06  Tolerance :   5.0000e-09
  Last DIIS Error            ...    2.2340e-03  Tolerance :   5.0000e-07
  Last Orbital Gradient      ...    6.3805e-06  Tolerance :   1.0000e-05
  Last Orbital Rotation      ...    6.8138e-05  Tolerance :   1.0000e-05


----------------------
UHF SPIN CONTAMINATION
----------------------

Warning: in a DFT calculation there is little theoretical justification to 
         calculate <S**2> as in Hartree-Fock theory. We will do it anyways
         but you should keep in mind that the values have only limited relevance

Expectation value of <S**2>     :     2.011049
Ideal value S*(S+1) for S=1.0   :     2.000000
Deviation                       :     0.011049

----------------
ORBITAL ENERGIES
----------------
                 SPIN UP ORBITALS
  NO   OCC          E(Eh)            E(eV) 
   0   1.0000     -19.342446      -526.3347 
   1   1.0000     -19.325303      -525.8682 
   2   1.0000     -19.324560      -525.8480 
   3   1.0000     -19.322816      -525.8006 
   4   1.0000     -14.595295      -397.1582 
   5   1.0000     -14.582316      -396.8050 
   6   1.0000     -14.566696      -396.3799 
   7   1.0000     -14.552507      -395.9939 
   8   1.0000     -10.521379      -286.3013 
   9   1.0000     -10.511463      -286.0315 
  10   1.0000     -10.477297      -285.1018 
  11   1.0000     -10.461763      -284.6790 
  12   1.0000     -10.434295      -283.9316 
  13   1.0000     -10.415204      -283.4121 
  14   1.0000     -10.404032      -283.1081 
  15   1.0000     -10.383517      -282.5499 
  16   1.0000     -10.368801      -282.1494 
  17   1.0000     -10.365311      -282.0545 
  18   1.0000      -1.227319       -33.3970 
  19   1.0000      -1.222741       -33.2725 
  20   1.0000      -1.195857       -32.5409 
  21   1.0000      -1.182787       -32.1853 
  22   1.0000      -1.126312       -30.6485 
  23   1.0000      -1.123490       -30.5717 
  24   1.0000      -1.071960       -29.1695 
  25   1.0000      -1.059607       -28.8334 
  26   1.0000      -0.972944       -26.4751 
  27   1.0000      -0.957974       -26.0678 
  28   1.0000      -0.855162       -23.2701 
  29   1.0000      -0.851233       -23.1632 
  30   1.0000      -0.818595       -22.2751 
  31   1.0000      -0.812420       -22.1071 
  32   1.0000      -0.794869       -21.6295 
  33   1.0000      -0.791316       -21.5328 
  34   1.0000      -0.699532       -19.0352 
  35   1.0000      -0.696455       -18.9515 
  36   1.0000      -0.693071       -18.8594 
  37   1.0000      -0.690820       -18.7982 
  38   1.0000      -0.647705       -17.6250 
  39   1.0000      -0.643906       -17.5216 
  40   1.0000      -0.636094       -17.3090 
  41   1.0000      -0.603831       -16.4311 
  42   1.0000      -0.600538       -16.3415 
  43   1.0000      -0.597278       -16.2528 
  44   1.0000      -0.578554       -15.7433 
  45   1.0000      -0.575583       -15.6624 
  46   1.0000      -0.563690       -15.3388 
  47   1.0000      -0.556236       -15.1359 
  48   1.0000      -0.551982       -15.0202 
  49   1.0000      -0.546245       -14.8641 
  50   1.0000      -0.526792       -14.3347 
  51   1.0000      -0.522947       -14.2301 
  52   1.0000      -0.520330       -14.1589 
  53   1.0000      -0.515528       -14.0282 
  54   1.0000      -0.509524       -13.8649 
  55   1.0000      -0.501112       -13.6359 
  56   1.0000      -0.493479       -13.4283 
  57   1.0000      -0.476451       -12.9649 
  58   1.0000      -0.428534       -11.6610 
  59   1.0000      -0.416318       -11.3286 
  60   1.0000      -0.409600       -11.1458 
  61   1.0000      -0.400550       -10.8995 
  62   1.0000      -0.392665       -10.6850 
  63   1.0000      -0.389133       -10.5889 
  64   1.0000      -0.384276       -10.4567 
  65   1.0000      -0.346118        -9.4183 
  66   1.0000      -0.224297        -6.1034 
  67   0.0000       0.010165         0.2766 
  68   0.0000       0.016513         0.4493 
  69   0.0000       0.031658         0.8615 
  70   0.0000       0.038686         1.0527 
  71   0.0000       0.041521         1.1298 
  72   0.0000       0.055644         1.5142 
  73   0.0000       0.058529         1.5927 
  74   0.0000       0.061780         1.6811 
  75   0.0000       0.064136         1.7452 
  76   0.0000       0.068020         1.8509 
  77   0.0000       0.069650         1.8953 

                 SPIN DOWN ORBITALS
  NO   OCC          E(Eh)            E(eV) 
   0   1.0000     -19.340836      -526.2909 
   1   1.0000     -19.324495      -525.8462 
   2   1.0000     -19.322830      -525.8009 
   3   1.0000     -19.318439      -525.6815 
   4   1.0000     -14.591140      -397.0451 
   5   1.0000     -14.582106      -396.7993 
   6   1.0000     -14.566707      -396.3803 
   7   1.0000     -14.551591      -395.9689 
   8   1.0000     -10.521654      -286.3088 
   9   1.0000     -10.511474      -286.0318 
  10   1.0000     -10.477267      -285.1009 
  11   1.0000     -10.461313      -284.6668 
  12   1.0000     -10.433948      -283.9222 
  13   1.0000     -10.406142      -283.1655 
  14   1.0000     -10.393198      -282.8133 
  15   1.0000     -10.383615      -282.5525 
  16   1.0000     -10.369156      -282.1591 
  17   1.0000     -10.365169      -282.0506 
  18   1.0000      -1.224981       -33.3334 
  19   1.0000      -1.221396       -33.2359 
  20   1.0000      -1.195805       -32.5395 
  21   1.0000      -1.172504       -31.9055 
  22   1.0000      -1.123627       -30.5754 
  23   1.0000      -1.115523       -30.3549 
  24   1.0000      -1.071854       -29.1666 
  25   1.0000      -1.054410       -28.6919 
  26   1.0000      -0.960079       -26.1251 
  27   1.0000      -0.946683       -25.7606 
  28   1.0000      -0.854106       -23.2414 
  29   1.0000      -0.838783       -22.8244 
  30   1.0000      -0.817333       -22.2408 
  31   1.0000      -0.802931       -21.8489 
  32   1.0000      -0.794668       -21.6240 
  33   1.0000      -0.784635       -21.3510 
  34   1.0000      -0.699075       -19.0228 
  35   1.0000      -0.692935       -18.8557 
  36   1.0000      -0.685275       -18.6473 
  37   1.0000      -0.683650       -18.6030 
  38   1.0000      -0.646532       -17.5930 
  39   1.0000      -0.637452       -17.3460 
  40   1.0000      -0.627438       -17.0735 
  41   1.0000      -0.599649       -16.3173 
  42   1.0000      -0.594998       -16.1907 
  43   1.0000      -0.587605       -15.9896 
  44   1.0000      -0.570005       -15.5106 
  45   1.0000      -0.567861       -15.4523 
  46   1.0000      -0.562360       -15.3026 
  47   1.0000      -0.555068       -15.1042 
  48   1.0000      -0.544452       -14.8153 
  49   1.0000      -0.534342       -14.5402 
  50   1.0000      -0.522281       -14.2120 
  51   1.0000      -0.519340       -14.1320 
  52   1.0000      -0.510905       -13.9024 
  53   1.0000      -0.508701       -13.8425 
  54   1.0000      -0.497805       -13.5460 
  55   1.0000      -0.494965       -13.4687 
  56   1.0000      -0.475129       -12.9289 
  57   1.0000      -0.455009       -12.3814 
  58   1.0000      -0.424468       -11.5504 
  59   1.0000      -0.416018       -11.3204 
  60   1.0000      -0.400260       -10.8916 
  61   1.0000      -0.388851       -10.5812 
  62   1.0000      -0.383364       -10.4319 
  63   1.0000      -0.381434       -10.3794 
  64   1.0000      -0.345828        -9.4104 
  65   0.0000      -0.106190        -2.8896 
  66   0.0000       0.010119         0.2754 
  67   0.0000       0.019681         0.5355 
  68   0.0000       0.029756         0.8097 
  69   0.0000       0.037789         1.0283 
  70   0.0000       0.039705         1.0804 
  71   0.0000       0.052510         1.4289 
  72   0.0000       0.056802         1.5457 
  73   0.0000       0.060726         1.6524 
  74   0.0000       0.063766         1.7352 
  75   0.0000       0.064549         1.7565 
*Only the first 10 virtual orbitals were printed.

                    ********************************
                    * MULLIKEN POPULATION ANALYSIS *
                    ********************************

--------------------------------------------
MULLIKEN ATOMIC CHARGES AND SPIN POPULATIONS
--------------------------------------------
   0 O :   -0.687660   -0.002595
   1 O :   -0.669194    0.254838
   2 O :   -0.649821    0.002787
   3 O :   -0.625443    0.059734
   4 N :   -0.037497    0.008845
   5 N :   -0.028752    0.189436
   6 N :    0.071861    0.000710
   7 N :    0.034047    0.041610
   8 C :    1.040172    0.028141
   9 C :    0.567037    0.305136
  10 C :   -0.020643    0.029214
  11 C :   -0.370469    0.865308
  12 C :   -1.373625   -0.026374
  13 C :   -1.135170    0.031058
  14 C :    0.103546    0.001438
  15 C :    0.691496    0.192925
  16 C :    0.375958   -0.004703
  17 C :    0.396874   -0.031942
  18 H :    0.237707    0.006736
  19 H :    0.280955    0.013805
  20 H :    0.195608   -0.004873
  21 H :    0.318595    0.003762
  22 H :    0.362597    0.005526
  23 H :    0.337098    0.017644
  24 H :    0.283015    0.003718
  25 H :    0.197412    0.027067
  26 H :    0.053586   -0.000698
  27 H :    0.055244   -0.015863
  28 H :    0.005814    0.002762
  29 H :   -0.010348   -0.005152
Sum of atomic charges         :   -0.0000000
Sum of atomic spin populations:    2.0000000

-----------------------------------------------------
MULLIKEN REDUCED ORBITAL CHARGES AND SPIN POPULATIONS
-----------------------------------------------------
CHARGE
  0 O s       :     4.089273  s :     4.089273
      pz      :     1.730133  p :     4.570052
      px      :     1.404682
      py      :     1.435237
      dz2     :     0.003350  d :     0.026400
      dxz     :     0.000531
      dyz     :     0.005955
      dx2y2   :     0.011360
      dxy     :     0.005205
      f0      :     0.000191  f :     0.001935
[...]
[1739916785.556613] [ohm:530263:0]        ib_iface.c:1059 UCX  ERROR ibv_create_cq(cqe=256) failed: Connection timed out
[1739916785.558210] [ohm:530234:0]        ib_iface.c:1059 UCX  ERROR ibv_create_cq(cqe=256) failed: Connection timed out
[1739916785.559244] [ohm:530262:0]        ib_iface.c:1059 UCX  ERROR ibv_create_cq(cqe=256) failed: Connection timed out
[1739916785.563642] [ohm:530182:0]        ib_iface.c:1059 UCX  ERROR ibv_create_cq(cqe=256) failed: Connection timed out
[1739916785.563788] [ohm:530197:0]        ib_iface.c:1059 UCX  ERROR ibv_create_cq(cqe=256) failed: Connection timed out
[1739916785.565391] [ohm:530231:0]        ib_iface.c:1059 UCX  ERROR ibv_create_cq(cqe=256) failed: Connection timed out
[1739916785.565397] [ohm:530257:0]        ib_iface.c:1059 UCX  ERROR ibv_create_cq(cqe=256) failed: Connection timed out
[1739916785.565423] [ohm:530217:0]        ib_iface.c:1059 UCX  ERROR ibv_create_cq(cqe=256) failed: Connection timed out
[1739916785.568795] [ohm:530173:0]        ib_iface.c:1059 UCX  ERROR ibv_create_cq(cqe=256) failed: Connection timed out
[1739916785.569081] [ohm:530240:0]        ib_iface.c:1059 UCX  ERROR ibv_create_cq(cqe=256) failed: Connection timed out
[1739916785.570503] [ohm:530136:0]        ib_iface.c:1059 UCX  ERROR ibv_create_cq(cqe=256) failed: Connection timed out


           ************************************************************
           *        Program running with 64 parallel MPI-processes    *
           *              working on a common directory               *
           ************************************************************

------------------------------------------------------------------------------
                              ORCA PROPERTY CALCULATIONS
------------------------------------------------------------------------------

GBWName                                 ... orca.gbw
Number of atoms                         ...     30
Number of basis functions               ...    882
Max core memory                         ...   1024 MB

Electric properties:
Dipole moment                           ... YES
Quadrupole moment                       ...  NO
Static polarizability (Dipole/Dipole)   ...  NO
Static polarizability (Dipole/Quad.)    ...  NO
Static polarizability (Quad./Quad.)     ...  NO
Static polarizability (Velocity)        ...  NO

Atomic electric properties:
Dipole moment                           ...  NO
Quadrupole moment                       ...  NO
Static polarizability                   ...  NO

Choice of electric origin               ... Center of mass
Position of electric origin             ...     0.015482    -0.016520     0.082190

General magnetic properties:
Magnetizability                         ...  NO

EPR properties:
g-Tensor (aka g-matrix)                 ...  NO
Zero-Field splitting spin-orbit         ...  NO
Zero-field splitting spin-spin          ...  NO
Hyperfine couplings                     ...  NO (   0 nuclei)
Quadrupole couplings                    ...  NO (   0 nuclei)
Contact density                         ...  NO (   0 nuclei)

NMR properties:
Chemical shifts                         ...  NO (   0 nuclei)
Spin-rotation constants                 ...  NO (   0 nuclei)
Spin-spin couplings                     ...  NO (   0 nuclei,    0 pairs)

Choice of magnetic origin               ... GIAO
Position of magnetic origin             ...     0.000000     0.000000     0.000000

Properties with geometric perturbations:
SCF Hessian                             ...  NO
IR spectrum                             ...  NO
VCD spectrum                            ...  NO
X-ray spectroscopy properties:
SCF XES/XAS/RIXS spectra                ...  NO


-------------
DIPOLE MOMENT
-------------

Method             : SCF
Type of density    : Electron Density
Multiplicity       :   3
Irrep              :   0
Energy             :  -908.7332332402257862 Eh
Relativity type    : 
Basis              : AO
                                X                 Y                 Z
Electronic contribution:     -3.019312556      -9.879882339      -5.980638790
Nuclear contribution   :      2.838748439      10.758351784       8.589248461
                        -----------------------------------------
Total Dipole Moment    :     -0.180564117       0.878469445       2.608609672
                        -----------------------------------------
Magnitude (a.u.)       :      2.758469936
Magnitude (Debye)      :      7.011473366



--------------------
Rotational spectrum 
--------------------
 
Rotational constants in cm-1:             0.017346             0.016714             0.013528 
Rotational constants in MHz :           520.008294           501.075355           405.562014 

Dipole components along the rotational axes: 
x,y,z [a.u.] :     1.311448     0.151059     2.422074 
x,y,z [Debye]:     3.333435     0.383961     6.156423 

 

-------------
DIPOLE MOMENT
-------------

Method             : TDA/CIS
Type of density    : Electron Density
Level              : Relaxed density
State              :   2
Multiplicity       :   3
Irrep              :   0
Energy             :     0.0000000000000000 Eh
Relativity type    : 
Basis              : AO
                                X                 Y                 Z
Electronic contribution:     -3.040256282      -9.905504626      -5.880283703
Nuclear contribution   :      2.838748439      10.758351784       8.589248461
                        -----------------------------------------
Total Dipole Moment    :     -0.201507843       0.852847158       2.708964758
                        -----------------------------------------
Magnitude (a.u.)       :      2.847181720
Magnitude (Debye)      :      7.236960802



--------------------
Rotational spectrum 
--------------------
 
Rotational constants in cm-1:             0.017346             0.016714             0.013528 
Rotational constants in MHz :           520.008294           501.075355           405.562014 

Dipole components along the rotational axes: 
x,y,z [a.u.] :     1.316525     0.197678     2.516769 
x,y,z [Debye]:     3.346341     0.502456     6.397120 

 

Dipole moment calculation done in   0.2 sec 

Maximum memory used throughout the entire PROP-calculation: 82.1 MB
[1739916787.981710] [ohm:530472:0]        ib_iface.c:1059 UCX  ERROR ibv_create_cq(cqe=256) failed: Connection timed out
[1739916787.985011] [ohm:530471:0]        ib_iface.c:1059 UCX  ERROR ibv_create_cq(cqe=256) failed: Connection timed out
[1739916787.985242] [ohm:530470:0]        ib_iface.c:1059 UCX  ERROR ibv_create_cq(cqe=256) failed: Connection timed out
[1739916787.998120] [ohm:530469:0]        ib_iface.c:1059 UCX  ERROR ibv_create_cq(cqe=256) failed: Connection timed out
[1739916788.020948] [ohm:530488:0]        ib_iface.c:1059 UCX  ERROR ibv_create_cq(cqe=256) failed: Connection timed out
[1739916788.038642] [ohm:530490:0]        ib_iface.c:1059 UCX  ERROR ibv_create_cq(cqe=256) failed: Connection timed out
[1739916788.050031] [ohm:530521:0]        ib_iface.c:1059 UCX  ERROR ibv_create_cq(cqe=256) failed: Connection timed out
[1739916788.054256] [ohm:530473:0]        ib_iface.c:1059 UCX  ERROR ibv_create_cq(cqe=256) failed: Connection timed out
[1739916788.056768] [ohm:530491:0]        ib_iface.c:1059 UCX  ERROR ibv_create_cq(cqe=256) failed: Connection timed out
[1739916788.082640] [ohm:530554:0]        ib_iface.c:1059 UCX  ERROR ibv_create_cq(cqe=256) failed: Connection timed out
[1739916788.097759] [ohm:530493:0]        ib_iface.c:1059 UCX  ERROR ibv_create_cq(cqe=256) failed: Connection timed out
[1739916788.102015] [ohm:530511:0]        ib_iface.c:1059 UCX  ERROR ibv_create_cq(cqe=256) failed: Connection timed out
[1739916788.115184] [ohm:530479:0]        ib_iface.c:1059 UCX  ERROR ibv_create_cq(cqe=256) failed: Connection timed out
[1739916788.127136] [ohm:530477:0]        ib_iface.c:1059 UCX  ERROR ibv_create_cq(cqe=256) failed: Connection timed out
[1739916788.127290] [ohm:530502:0]        ib_iface.c:1059 UCX  ERROR ibv_create_cq(cqe=256) failed: Connection timed out
[1739916788.132598] [ohm:530567:0]        ib_iface.c:1059 UCX  ERROR ibv_create_cq(cqe=256) failed: Connection timed out
[1739916788.135702] [ohm:530501:0]        ib_iface.c:1059 UCX  ERROR ibv_create_cq(cqe=256) failed: Connection timed out
[1739916788.139434] [ohm:530492:0]        ib_iface.c:1059 UCX  ERROR ibv_create_cq(cqe=256) failed: Connection timed out
[1739916788.143602] [ohm:530532:0]        ib_iface.c:1059 UCX  ERROR ibv_create_cq(cqe=256) failed: Connection timed out
[1739916788.147379] [ohm:530495:0]        ib_iface.c:1059 UCX  ERROR ibv_create_cq(cqe=256) failed: Connection timed out
[1739916788.155328] [ohm:530527:0]        ib_iface.c:1059 UCX  ERROR ibv_create_cq(cqe=256) failed: Connection timed out
[1739916788.160424] [ohm:530475:0]        ib_iface.c:1059 UCX  ERROR ibv_create_cq(cqe=256) failed: Connection timed out
[1739916788.163142] [ohm:530526:0]        ib_iface.c:1059 UCX  ERROR ibv_create_cq(cqe=256) failed: Connection timed out
[1739916788.163847] [ohm:530613:0]        ib_iface.c:1059 UCX  ERROR ibv_create_cq(cqe=256) failed: Connection timed out
[1739916788.168680] [ohm:530506:0]        ib_iface.c:1059 UCX  ERROR ibv_create_cq(cqe=256) failed: Connection timed out
[1739916788.168792] [ohm:530522:0]        ib_iface.c:1059 UCX  ERROR ibv_create_cq(cqe=256) failed: Connection timed out
[1739916788.170940] [ohm:530476:0]        ib_iface.c:1059 UCX  ERROR ibv_create_cq(cqe=256) failed: Connection timed out
[1739916788.172676] [ohm:530480:0]        ib_iface.c:1059 UCX  ERROR ibv_create_cq(cqe=256) failed: Connection timed out
[1739916788.199559] [ohm:530524:0]        ib_iface.c:1059 UCX  ERROR ibv_create_cq(cqe=256) failed: Connection timed out
[1739916788.206947] [ohm:530546:0]        ib_iface.c:1059 UCX  ERROR ibv_create_cq(cqe=256) failed: Connection timed out
[1739916788.209237] [ohm:530547:0]        ib_iface.c:1059 UCX  ERROR ibv_create_cq(cqe=256) failed: Connection timed out
[1739916788.211673] [ohm:530616:0]        ib_iface.c:1059 UCX  ERROR ibv_create_cq(cqe=256) failed: Connection timed out
[1739916788.218861] [ohm:530602:0]        ib_iface.c:1059 UCX  ERROR ibv_create_cq(cqe=256) failed: Connection timed out
[1739916788.219374] [ohm:530517:0]        ib_iface.c:1059 UCX  ERROR ibv_create_cq(cqe=256) failed: Connection timed out
[1739916788.221854] [ohm:530609:0]        ib_iface.c:1059 UCX  ERROR ibv_create_cq(cqe=256) failed: Connection timed out
[1739916788.221930] [ohm:530583:0]        ib_iface.c:1059 UCX  ERROR ibv_create_cq(cqe=256) failed: Connection timed out
[1739916788.233423] [ohm:530541:0]        ib_iface.c:1059 UCX  ERROR ibv_create_cq(cqe=256) failed: Connection timed out
[1739916788.236491] [ohm:530573:0]        ib_iface.c:1059 UCX  ERROR ibv_create_cq(cqe=256) failed: Connection timed out
[1739916788.243663] [ohm:530576:0]        ib_iface.c:1059 UCX  ERROR ibv_create_cq(cqe=256) failed: Connection timed out
[1739916788.244773] [ohm:530529:0]        ib_iface.c:1059 UCX  ERROR ibv_create_cq(cqe=256) failed: Connection timed out
[1739916788.248315] [ohm:530539:0]        ib_iface.c:1059 UCX  ERROR ibv_create_cq(cqe=256) failed: Connection timed out
[1739916788.248868] [ohm:530496:0]        ib_iface.c:1059 UCX  ERROR ibv_create_cq(cqe=256) failed: Connection timed out
[1739916788.252875] [ohm:530552:0]        ib_iface.c:1059 UCX  ERROR ibv_create_cq(cqe=256) failed: Connection timed out
[1739916788.253875] [ohm:530518:0]        ib_iface.c:1059 UCX  ERROR ibv_create_cq(cqe=256) failed: Connection timed out
[1739916788.258720] [ohm:530530:0]        ib_iface.c:1059 UCX  ERROR ibv_create_cq(cqe=256) failed: Connection timed out
[1739916788.273317] [ohm:530560:0]        ib_iface.c:1059 UCX  ERROR ibv_create_cq(cqe=256) failed: Connection timed out
[1739916788.277115] [ohm:530604:0]        ib_iface.c:1059 UCX  ERROR ibv_create_cq(cqe=256) failed: Connection timed out
[1739916788.280700] [ohm:530570:0]        ib_iface.c:1059 UCX  ERROR ibv_create_cq(cqe=256) failed: Connection timed out
[1739916788.288152] [ohm:530514:0]        ib_iface.c:1059 UCX  ERROR ibv_create_cq(cqe=256) failed: Connection timed out
[1739916788.289075] [ohm:530591:0]        ib_iface.c:1059 UCX  ERROR ibv_create_cq(cqe=256) failed: Connection timed out
[1739916788.291403] [ohm:530525:0]        ib_iface.c:1059 UCX  ERROR ibv_create_cq(cqe=256) failed: Connection timed out
[1739916788.291976] [ohm:530562:0]        ib_iface.c:1059 UCX  ERROR ibv_create_cq(cqe=256) failed: Connection timed out
[1739916788.293602] [ohm:530586:0]        ib_iface.c:1059 UCX  ERROR ibv_create_cq(cqe=256) failed: Connection timed out
[1739916788.294242] [ohm:530618:0]        ib_iface.c:1059 UCX  ERROR ibv_create_cq(cqe=256) failed: Connection timed out
[1739916788.294625] [ohm:530534:0]        ib_iface.c:1059 UCX  ERROR ibv_create_cq(cqe=256) failed: Connection timed out
[1739916788.301487] [ohm:530594:0]        ib_iface.c:1059 UCX  ERROR ibv_create_cq(cqe=256) failed: Connection timed out
[1739916788.301487] [ohm:530596:0]        ib_iface.c:1059 UCX  ERROR ibv_create_cq(cqe=256) failed: Connection timed out
[1739916788.301588] [ohm:530579:0]        ib_iface.c:1059 UCX  ERROR ibv_create_cq(cqe=256) failed: Connection timed out
[1739916788.302222] [ohm:530589:0]        ib_iface.c:1059 UCX  ERROR ibv_create_cq(cqe=256) failed: Connection timed out
[1739916788.303165] [ohm:530497:0]        ib_iface.c:1059 UCX  ERROR ibv_create_cq(cqe=256) failed: Connection timed out
[1739916788.303588] [ohm:530509:0]        ib_iface.c:1059 UCX  ERROR ibv_create_cq(cqe=256) failed: Connection timed out
[1739916788.304158] [ohm:530474:0]        ib_iface.c:1059 UCX  ERROR ibv_create_cq(cqe=256) failed: Connection timed out
[1739916788.305283] [ohm:530523:0]        ib_iface.c:1059 UCX  ERROR ibv_create_cq(cqe=256) failed: Connection timed out
[1739916788.312109] [ohm:530478:0]        ib_iface.c:1059 UCX  ERROR ibv_create_cq(cqe=256) failed: Connection timed out

--------------------------------
SUGGESTED CITATIONS FOR THIS RUN
--------------------------------

Below you find a list of papers that are relevant to this ORCA run
We neither can nor want to force you to cite these papers, but we appreciate if you do
You receive ORCA, which is the product of decades of hard work by many enthusiastic individuals, for free
The only thing we kindly ask in return is that you cite our papers,
We deeply appreciate it, if you show your appreciation for ORCA by not just citing the generic ORCA reference.

Please note that relegating all ORCA citations to the supporting information does *not* help us.
SI sections are not indexed - citations you put there will not count into any citation statistics
But we need these citations in order to attract the funding resources that allow us to do what we are doing

Therefore, if you are a happy ORCA user, please consider citing a few of the papers listed below in the main body of your paper

In addition to the list printed below, the program has created the file orca.bibtex that contains the list in bibtex format
You can import this file easily into all common literature databanks and citation aid programs


List of essential papers. We consider these as the minimum necessary citations

  1. Neese,F.
     Software update: the ORCA program system, version 5.0
     WIRES Comput. Molec. Sci., 2022 12(1)e1606
     doi.org/10.1002/wcms.1606

List of papers to cite with high priority. The work reported in these papers was absolutely
necessary for this run to complete.
Our perspective: the developers of density functionals and basis sets usually get cited in chemistry papers
Good! But without the algorithms to do something with them, the functionals or basis sets would not do anything.
Hence, in our opinion, the algorithm design and method developments papers are equally worthy of getting cited

  1. Neese,F.; Olbrich,G.
     Efficient use of the resolution of the identity approximation in time-dependent density functional calculations with hybrid density functionals
     Chem. Phys. Lett., 2002 362 170-178
     doi.org/10.1016/s0009-2614(02)01053-9
  2. Neese,F.
     An improvement of the resolution of the identity approximation for the formation of the Coulomb matrix
     J. Comp. Chem., 2003 24(14)1740-1747
     doi.org/10.1002/jcc.10318
  3. Neese,F.; Wennmohs,F.; Hansen,A.; Becker,U.
     Efficient, approximate and parallel Hartree-Fock and hybrid DFT calculations. A 'chain-of-spheres' algorithm for the Hartree-Fock exchange
     Chem. Phys., 2009 356(1-3)98-109
     doi.org/10.1016/j.chemphys.2008.10.036
  4. Petrenko,T.; Kossmann,S.; Neese,F.
     Efficient time-dependent density functional theory approximations for hybrid density functionals: Analytical gradients and parallelization
     J. Chem. Phys., 2011 134 054116
     doi.org/10.1063/1.3533441
  5. Helmich-Paris,B.; de Souza,B.; Neese,F.; Izsák,R.
     An improved chain of spheres for exchange algorithm
     J. Chem. Phys., 2021 155 104109
     doi.org/doi: 10.1063/5.0058766.
  6. Neese,F.
     The SHARK Integral Generation and Digestion System
     J. Comp. Chem., 2022  1-16
     doi.org/10.1002/jcc.26942
  7. Lehtola,S.; Steigemann,C.; Oliveira,M.; Marques,M.
     Recent developments in Libxc - A comprehensive library of functionals for density functional theory
     Software X, 2018 7 
     doi.org/10.1016/j.softx.2017.11.002
  8. Grimme,S.; Antony,J.; Ehrlich,S.; Krieg,H.
     A consistent and accurate ab initio parametrization of density functional dispersion correction (DFT-D) for the 94 elements H-Pu
     J. Chem. Phys., 2010 132 154104-XXXX
     doi.org/10.1063/1.3382344
  9. Grimme,S.; Ehrlich,S.; Goerigk,L.
     Effect of the damping function in dispersion corrected density functional theory
     J. Comput. Chem., 2011 32(7)1456-1465
     doi.org/10.1002/jcc.21759

List of suggested additional citations. These are papers that are important in the 'surrounding' of 
of this run, or papers that preceded the highly important papers. If you like your results we are grateful for a citation.

  1. Izsak,R.; Neese,F.
     An overlap fitted chain of spheres exchange method
     J. Chem. Phys., 2011 135 144105
     doi.org/10.1063/1.3646921
  2. Izsak,R.; Hansen,A.; Neese,F.
     The resolution of identity and chain of spheres approximations for the LPNO-CCSD singles Fock term
     Molec. Phys., 2012 110 2413-2417
     doi.org/10.1080/00268976.2012.687466
  3. Neese,F.
     The ORCA program system
     WIRES Comput. Molec. Sci., 2012 2(1)73-78
     doi.org/10.1002/wcms.81
  4. Izsak,R.; Neese,F.; Klopper,W.
     Robust fitting techniques in the chain of spheres approximation to the Fock exchange: The role of the complementary space
     J. Chem. Phys., 2013 139 
     doi.org/10.1063/1.4819264
  5. Neese,F.
     Software update: the ORCA program system, version 4.0
     WIRES Comput. Molec. Sci., 2018 8(1)1-6
     doi.org/10.1002/wcms.1327
  6. Neese,F.; Wennmohs,F.; Becker,U.; Riplinger,C.
     The ORCA quantum chemistry program package
     J. Chem. Phys., 2020 152 Art. No. L224108
     doi.org/10.1063/5.0004608

List of optional additional citations

  1. Neese,F.
     Approximate second-order SCF convergence for spin unrestricted wavefunctions
     Chem. Phys. Lett., 2000 325(1-3)93-98
     doi.org/10.1016/s0009-2614(00)00662-x

Timings for individual modules:

Sum of individual times          ...      306.286 sec (=   5.105 min)
Startup calculation              ...        6.380 sec (=   0.106 min)   2.1 %
SCF iterations                   ...      143.950 sec (=   2.399 min)  47.0 %
Property integrals               ...        4.352 sec (=   0.073 min)   1.4 %
Property calculations            ...        2.844 sec (=   0.047 min)   0.9 %
CIS module                       ...      148.760 sec (=   2.479 min)  48.6 %
                             ****ORCA TERMINATED NORMALLY****
TOTAL RUN TIME: 0 days 0 hours 5 minutes 8 seconds 290 msec
