30
Properties=species:S:1:pos:R:3:momenta:R:3:forces:R:3 Coordinates=T from=T ORCA-job=T orca=T E=T -908.782985587958=T energy=-24728.729586377598 free_energy=-24728.729586377598 stress="-4.9479228356298465e-06 4.104049814893177e-08 -1.190037946875802e-06 4.104049814893177e-08 1.9806390352818443e-07 -6.254336749183418e-07 -1.190037946875802e-06 -6.254336749183418e-07 6.80212590392134e-07" pbc="F F F"
O        3.32614588       0.75521619      -0.26285517       0.35414225      -0.01552817       0.14938835       0.26934973       0.17621000      -0.22646764
O       -0.67607535       0.82878436      -2.51192629      -0.00083929      -0.10938889       0.20297279      -0.01920573       0.05491184       0.08400408
O        0.67445862      -2.82708529      -1.14422365      -0.25015342       0.01664101       0.32279418      -0.04027249      -0.15654191      -0.14511813
O       -3.55145275      -1.08340475       0.39401999      -0.17005716       0.07274151       0.27651774      -0.16619038      -0.12224773       0.18542485
N        0.21781421      -1.59654340       0.70092620      -0.05506719       0.47796481      -0.19135098       0.12693869      -0.16748049      -0.25245688
N       -2.00382671       0.35268280       1.25358875       0.25406378      -0.18780488      -0.23072181      -0.32921652      -0.15433190      -0.35000680
N        2.01238230      -1.05574661      -0.67547095      -0.13631905      -0.07899344      -0.13926083       0.23173189       0.22629689      -0.45654266
N       -1.91965176      -0.31301471      -0.97378339      -0.03584300      -0.06539440       0.53760366       0.16762816       0.01619794      -0.07598106
C        1.51010905       0.40854811       1.16508043       1.74726985      -0.64098012      -0.04679631       2.38811970      -1.29077965       0.47620640
C       -0.49626443       1.41810059      -0.21702384      -0.47062958      -0.28180492       0.19156542      -0.31667509      -0.02576178       0.49421046
C        0.33799409      -0.41748130       1.48048160       0.29782295      -0.07538200      -0.28629368       0.99154192       0.94648097      -0.59365631
C       -0.59776271       0.75393899       1.14558967      -1.63888318       0.56536379      -0.30286319      -2.83594491       0.55893827      -0.13398547
C        1.96738738       1.47218903       2.08446130       0.19959637       0.08852450      -0.10963826       0.08235332      -0.20714379       0.07946790
C       -0.37515237       2.89385557      -0.32847683       0.18845500      -0.14301053      -0.12272901       0.46749470      -0.54458496       0.03013588
C        2.35150342       0.09402601       0.03234377      -0.10905917       0.24752476      -0.18295576      -0.23452991      -0.10025200       0.30976760
C       -0.98106656       0.65085816      -1.34586121      -0.08019801       0.50426012       0.39023220      -0.30734022       0.04288859       0.11876301
C        0.94036513      -1.88931497      -0.43636261      -0.11072066       0.23902834      -0.50872427      -0.14506210       0.02177421       0.29893393
C       -2.56452953      -0.40061512       0.25651525      -0.00298184      -0.29244340      -0.09889752      -0.02598514       0.02005232      -0.39576463
H        0.26477354      -0.65227964       2.53631983      -0.02230791       0.03821961      -0.03624363      -0.13467149       0.11616883       0.15962155
H       -0.42520692       1.49640513       1.91326684      -0.05365179       0.00382495       0.00461233      -0.05243686       0.12328973      -0.01832160
H        1.82225963       2.46735214       1.68192665       0.01557438      -0.00383614       0.04914416      -0.07891853       0.19258042      -0.05410126
H        1.49282206       1.40015350       3.06131381      -0.01998221      -0.07183383       0.00621600      -0.03239918       0.04449715      -0.02220887
H        3.03742403       1.36711227       2.19716137       0.00498260       0.02110884       0.03789372       0.25574356       0.06464405       0.10392298
H       -1.28303051       3.35250777       0.09112830      -0.06938715      -0.08760778       0.06663690       0.04598964      -0.00300679      -0.11610717
H        0.46197980       3.25755930       0.26741467      -0.01439822      -0.05913413      -0.02992904      -0.03389447       0.12248956      -0.10800424
H       -0.25114871       3.18071439      -1.37179196       0.05700955      -0.03430779      -0.01320396      -0.07118433       0.05527439       0.13850093
H       -0.58543561      -2.18348115       0.81980948       0.01266863      -0.00397671       0.01739485      -0.09177739      -0.05826370       0.02357971
H       -2.44933614       0.18965104       2.14193018       0.04436734      -0.05217846       0.04856297       0.21824165       0.06699899       0.10865332
H        2.55134338      -1.24639302      -1.52184819      -0.00921466      -0.01117998      -0.02610687      -0.26112043       0.05652003       0.37055947
H       -2.30459415      -0.87121904      -1.71538619       0.07374076      -0.06041666       0.02417985      -0.06830776      -0.07581950      -0.03302938
