7
Properties=species:S:1:pos:R:3:momenta:R:3:forces:R:3 Coordinates=T from=T ORCA-job=T orca=T E=T -153.922068275156=T energy=-4184.099868141503 free_energy=-4184.099868141503 stress="9.567819758321934e-07 4.2471898820620605e-06 -3.0263647905043115e-06 4.2471898820620605e-06 1.4487570659792622e-05 -1.5328849740655863e-06 -3.0263647905043115e-06 -1.5328849740655863e-06 1.0067758486248557e-06" pbc="F F F"
O        0.75880175       1.37081039      -0.48598050      -0.10685696      -0.30445216       0.18603553      -0.50811742      -1.40556384       0.28619233
C        0.35993002       0.40803100       0.38720787       0.42449930      -0.12564766      -1.30654114       0.04674996       0.08258477      -0.70113055
C       -0.22908760      -0.97765957       0.11430266       0.06953745       0.29540424       1.07541625       0.30120437      -1.18995464      -0.10797284
H        0.39956950       0.77418280       1.38899362      -0.14031941      -0.01662744       0.10781928       0.01963485      -0.03384931       0.57539081
H        0.39028460      -1.71500331      -0.48710488      -0.17375744       0.12490290       0.12067302      -0.00859722       1.21979994       0.63043500
H       -1.15660584      -0.96519621      -0.44378087      -0.02831201       0.17956281      -0.08239410      -0.30213656       0.57860908      -0.22801222
H       -0.47731722      -1.50187671       1.06665944      -0.04479092      -0.15314268      -0.10100885       0.45126201       0.74837400      -0.45490253
