
                                 *****************
                                 * O   R   C   A *
                                 *****************

                                            #,                                       
                                            ###                                      
                                            ####                                     
                                            #####                                    
                                            ######                                   
                                           ########,                                 
                                     ,,################,,,,,                         
                               ,,#################################,,                 
                          ,,##########################################,,             
                       ,#########################################, ''#####,          
                    ,#############################################,,   '####,        
                  ,##################################################,,,,####,       
                ,###########''''           ''''###############################       
              ,#####''   ,,,,##########,,,,          '''####'''          '####       
            ,##' ,,,,###########################,,,                        '##       
           ' ,,###''''                  '''############,,,                           
         ,,##''                                '''############,,,,        ,,,,,,###''
      ,#''                                            '''#######################'''  
     '                                                          ''''####''''         
             ,#######,   #######,   ,#######,      ##                                
            ,#'     '#,  ##    ##  ,#'     '#,    #''#        ,####,   ,####,        
            ##       ##  ##   ,#'  ##            #'  '#       #'       #'  '#        
            ##       ##  #######   ##           ,######,      #####,   #    #        
            '#,     ,#'  ##    ##  '#,     ,#' ,#      #,     #,   #   #,  ,#        
             '#######'   ##     ##  '#######'  #'      '#     '####' # '####'        



                #########################################################
                #                        -***-                          #
                #          Department of theory and spectroscopy        #
                #                                                       #
                #                      Frank Neese                      #
                #                                                       #
                #     Directorship, Architecture, Infrastructure        #
                #                    SHARK, DRIVERS                     #
                #        Core code/Algorithms in most modules           #
                #                                                       #
                #        Max Planck Institute fuer Kohlenforschung      #
                #                Kaiser Wilhelm Platz 1                 #
                #                 D-45470 Muelheim/Ruhr                 #
                #                      Germany                          #
                #                                                       #
                #                  All rights reserved                  #
                #                        -***-                          #
                #########################################################


                         Program Version 6.0.0  -   RELEASE  -


 With contributions from (in alphabetic order):
   Daniel Aravena         : Magnetic Suceptibility
   Michael Atanasov       : Ab Initio Ligand Field Theory (pilot matlab implementation)
   Alexander A. Auer      : GIAO ZORA, VPT2 properties, NMR spectrum
   Ute Becker             : All parallelization in ORCA, NUMFREQ, NUMCALC
   Giovanni Bistoni       : ED, misc. LED, open-shell LED, HFLD
   Martin Brehm           : Molecular dynamics
   Dmytro Bykov           : pre 5.0 version of the SCF Hessian
   Marcos Casanova-Páez   : Triplet and SCS-CIS(D). UHF-(DLPNO)-IP/EA/STEOM-CCSD. UHF-CVS-IP/STEOM-CCSD
   Vijay G. Chilkuri      : MRCI spin determinant printing, contributions to CSF-ICE
   Pauline Colinet        : FMM embedding
   Dipayan Datta          : RHF DLPNO-CCSD density
   Achintya Kumar Dutta   : EOM-CC, STEOM-CC
   Nicolas Foglia         : Exact transition moments, OPA infrastructure, MCD improvements
   Dmitry Ganyushin       : Spin-Orbit,Spin-Spin,Magnetic field MRCI
   Miquel Garcia          : C-PCM and meta-GGA Hessian, CCSD/C-PCM, Gaussian charge scheme
   Tiago L. C. Gouveia    : GS-ROHF, GS-ROCIS
   Yang Guo               : DLPNO-NEVPT2, F12-NEVPT2, CIM, IAO-localization
   Andreas Hansen         : Spin unrestricted coupled pair/coupled cluster methods
   Ingolf Harden          : AUTO-CI MPn and infrastructure 
   Benjamin Helmich-Paris : MC-RPA, TRAH-(SCF,CASSCF), AVAS, COSX integrals, SCF dyn. polar.
   Lee Huntington         : MR-EOM, pCC
   Robert Izsak           : Overlap fitted RIJCOSX, COSX-SCS-MP3, EOM
   Riya Kayal             : Wick's Theorem for AUTO-CI, AUTO-CI UHF-CCSDT
   Emily Kempfer          : AUTO-CI, RHF CISDT and CCSDT
   Christian Kollmar      : KDIIS, OOCD, Brueckner-CCSD(T), CCSD density, CASPT2, CASPT2-K, improved NEVPT2
   Axel Koslowski         : Symmetry handling
   Simone Kossmann        : Meta GGA functionals, TD-DFT gradient, OOMP2, (MP2 Hessian; deprecated post 5.0)
   Lucas Lang             : DCDCAS
   Marvin Lechner         : AUTO-CI (C++ implementation), FIC-MRCC
   Spencer Leger          : CASSCF response
   Dagmar Lenk            : GEPOL surface, SMD, ORCA-2-JSON
   Dimitrios Liakos       : Extrapolation schemes; Compound Job, initial MDCI parallelization
   Dimitrios Manganas     : Further ROCIS development; embedding schemes. LFT, Crystal Embedding
   Dimitrios Pantazis     : SARC Basis sets
   Anastasios Papadopoulos: AUTO-CI, single reference methods and gradients
   Taras Petrenko         : pre 6.0 DFT Hessian and TD-DFT gradient, (ASA, deprecated), ECA, 1-Electron XAS/XES, NRVS
   Peter Pinski           : DLPNO-MP2, DLPNO-MP2 Gradient
   Christoph Reimann      : Effective Core Potentials
   Marius Retegan         : Local ZFS, SOC
   Christoph Riplinger    : Optimizer, TS searches, QM/MM, DLPNO-CCSD(T), (RO)-DLPNO pert. Triples
   Michael Roemelt        : Original ROCIS implementation
   Masaaki Saitow         : Open-shell DLPNO-CCSD energy and density
   Barbara Sandhoefer     : DKH picture change effects
   Kantharuban Sivalingam : CASSCF convergence/infrastructure, NEVPT2 and variants, FIC-MRCI
   Bernardo de Souza      : ESD, SOC TD-DFT
   Georgi Stoychev        : AutoAux, RI-MP2 NMR, DLPNO-MP2 response, X2C
   Van Anh Tran           : RI-MP2 g-tensors
   Willem Van den Heuvel  : Paramagnetic NMR
   Zikuan Wang            : NOTCH, Electric field optimization 
   Frank Wennmohs         : Technical directorship and infrastructure
   Hang Xu                : AUTO-CI-Response properties 


 We gratefully acknowledge several colleagues who have allowed us to
 interface, adapt or use parts of their codes:
   Stefan Grimme, W. Hujo, H. Kruse, P. Pracht,  : VdW corrections, initial TS optimization,
                  C. Bannwarth, S. Ehlert,         DFT functionals, gCP, sTDA/sTD-DF
                  L. Wittmann, M. Mueller
   Ed Valeev, F. Pavosevic, A. Kumar             : LibInt (2-el integral package), F12 methods
   Garnet Chan, S. Sharma, J. Yang, R. Olivares  : DMRG
   Ulf Ekstrom                                   : XCFun DFT Library
   Mihaly Kallay                                 : mrcc  (arbitrary order and MRCC methods)
   Frank Weinhold                                : gennbo (NPA and NBO analysis)
   Simon Mueller                                 : openCOSMO-RS
   Christopher J. Cramer and Donald G. Truhlar   : smd solvation model
   Lars Goerigk                                  : TD-DFT with DH, B97 family of functionals
   V. Asgeirsson, H. Jonsson                     : NEB implementation
   FAccTs GmbH                                   : IRC, NEB, NEB-TS, DLPNO-Multilevel, CI-OPT
                                                   MM, QMMM, 2- and 3-layer-ONIOM, Crystal-QMMM,
                                                   LR-CPCM, SF, NACMEs, symmetry and pop. for TD-DFT,
                                                   nearIR, NL-DFT gradient (VV10), updates on ESD,
                                                   ML-optimized integration grids, MBIS, APM,
                                                   GOAT, DOCKER, SOLVATOR, interface openCOSMO-RS
   S Lehtola, MJT Oliveira, MAL Marques          : LibXC Library
   Liviu Ungur et al                             : ANISO software


 Your calculation uses the libint2 library for the computation of 2-el integrals
 For citations please refer to: http://libint.valeyev.net

 Your ORCA version has been built with support for libXC version: 6.2.2
 For citations please refer to: https://libxc.gitlab.io

 This ORCA versions uses:
   CBLAS   interface :  Fast vector & matrix operations
   LAPACKE interface :  Fast linear algebra routines
   SCALAPACK package :  Parallel linear algebra routines
   Shared memory     :  Shared parallel matrices
   BLAS/LAPACK       :  OpenBLAS 0.3.27  USE64BITINT DYNAMIC_ARCH NO_AFFINITY Zen SINGLE_THREADED
        Core in use  :  Zen
   Copyright (c) 2011-2014, The OpenBLAS Project


Your calculation utilizes the atom-pairwise dispersion correction
with the Becke-Johnson damping scheme (D3BJ)


Warning: RI is on but no J-basis has been assigned. Assigning Def2/J (nothing to worry about!)
================================================================================

----- Orbital basis set information -----
Your calculation utilizes the basis: def2-TZVPPD
   F. Weigend and R. Ahlrichs, Phys. Chem. Chem. Phys. 7, 3297 (2005).
   D. Rappoport and F. Furche, J. Chem. Phys. 133, 134105 (2010)
   D. Rappoport, J. Chem. Phys. 155, 124102 (2021).

----- AuxJ basis set information -----
Your calculation utilizes the auxiliary basis: def2/J
   F. Weigend, Phys. Chem. Chem. Phys. 8, 1057 (2006).

================================================================================
                                        WARNINGS
                       Please study these warnings very carefully!
================================================================================

Using LibXC functional ID 531 : wB97M-V exchange-correlation functional
[ 1]  N. Mardirossian and M. Head-Gordon.,  J. Chem. Phys. 144, 214110 (2016)
Using LibXC functional ID 531 : wB97M-V exchange-correlation functional
[ 1]  N. Mardirossian and M. Head-Gordon.,  J. Chem. Phys. 144, 214110 (2016)

WARNING: B97M-V or wB97M-V functional requested.
  ===> : libXC variant has now been activated.
         Any manually given DFX/HFX/RangeSep scaling parameters are IGNORED!

Your calculation utilizes LibXC
 by S Lehtola, C Steigemann, MJT Oliveira & MAL Marques
Please cite in your paper:
 S Lehtola, C Steigemann, MJT Oliveira & MAL Marques, SoftwareX, 7, (2018), 1.
   


WARNING: Geometry Optimization
  ===> : Switching off AutoStart
         For restart on a previous wavefunction, please use MOREAD

================================================================================
                                       INPUT FILE
================================================================================
NAME = orca.inp
|  1> ! opt def2-TZVPPD wB97M-D3BJ 
|  2> %pal nprocs 8 end%pal nprocs 32 end 
|  3> %geom Constraints 
|  4> {B 9 8 2.7 C} 
|  5> {A 8 9 11 34.0 C} 
|  6> end 
|  7> MaxIter 300 
|  8> end 
|  9> *xyz 0 1 
| 10> O   2.98579685529314 0.88758230159078 -0.86184571092411
| 11> O   -0.03983205397054 0.68929041702508 -2.10362336723772
| 12> O   0.93431434349854 -3.13274393337945 -0.68767288184107
| 13> O   -3.75829998830163 -0.84727300865116 -0.0472717177755
| 14> N   0.21184538946282 -1.54604804365365 0.7617588924445
| 15> N   -2.13631993928911 0.03188773433438 1.27350571071531
| 16> N   2.02598672506387 -1.14318467211666 -0.64531219127023
| 17> N   -1.91814233924584 0.03137116037665 -1.04498946748291
| 18> C   1.18097737274226 0.71693507080484 0.70173889017321
| 19> C   -0.20686880480777 1.27024627933494 0.21345042231937
| 20> C   0.41441080275909 -0.34173258966541 1.52336266615173
| 21> C   -0.82922175114212 0.58960593673968 1.44434972027296
| 22> C   1.92822011286806 1.69488653817281 1.5963734975385
| 23> C   -0.37809776891576 2.77134929626422 0.04819649358288
| 24> C   2.1403947470937 0.1972384729179 -0.35038567829864
| 25> C   -0.67361678962426 0.6214190571346 -1.0793014500539
| 26> C   1.04142578622994 -2.02697492875068 -0.21027082435993
| 27> C   -2.68467002550422 -0.30396816036989 0.07167054343891
| 28> H   0.80817443950001 -0.54572267081061 2.51895215321335
| 29> H   -0.83785272399001 1.27240685039143 2.28901317073582
| 30> H   2.31167340578204 2.52284411740894 1.00913016264629
| 31> H   1.28982602448342 2.08257620823614 2.38710022492991
| 32> H   2.77390820759972 1.19140411795486 2.06045858523949
| 33> H   -1.41857211141493 3.00964947214868 -0.16882755561625
| 34> H   -0.09065531563179 3.29799318042223 0.95389844358819
| 35> H   0.23426221611057 3.12492645074476 -0.77764887675592
| 36> H   -0.46772570547622 -2.21560145172536 1.0787081584806
| 37> H   -2.71769301149571 -0.17090724573546 2.06627440900372
| 38> H   2.60065167263658 -1.49057255715425 -1.3966820077142
| 39> H   -2.27169977231386 -0.32388339999036 -1.91951041514436
| 40> *
| 41> 
| 42>                          ****END OF INPUT****
================================================================================

                       *****************************
                       * Geometry Optimization Run *
                       *****************************

Geometry optimization settings:
Update method            Update   .... BFGS
Choice of coordinates    CoordSys .... (2022) Redundant Internals
Initial Hessian          InHess   .... Almloef's Model
Max. no of cycles        MaxIter  .... 300

Convergence Tolerances:
Energy Change            TolE     ....  5.0000e-06 Eh
Max. Gradient            TolMAXG  ....  3.0000e-04 Eh/bohr
RMS Gradient             TolRMSG  ....  1.0000e-04 Eh/bohr
Max. Displacement        TolMAXD  ....  4.0000e-03 bohr
RMS Displacement         TolRMSD  ....  2.0000e-03 bohr
Strict Convergence                .... False

------------------------------------------------------------------------------
                        ORCA OPTIMIZATION COORDINATE SETUP
------------------------------------------------------------------------------

The optimization will be done in redundant internal coordinates (2022)
Making redundant internal coordinates   ...  (2022 redundants) done
Evaluating the initial hessian          ...  (Almloef) done
Evaluating the coordinates              ...  done
Calculating the B-matrix                .... done
Calculating the G-matrix                .... done
Diagonalizing the G-matrix              .... done
Decreasing the constraint accuracy, check your results carefully!
Decreasing the constraint accuracy, check your results carefully!
The first mode is                       ....   88
The number of degrees of freedom        ....   84
Storing new coordinates                 .... done

    -----------------------------------------------------------------
                    Redundant Internal Coordinates


    -----------------------------------------------------------------
         Definition                    Initial Value    Approx d2E/dq
    -----------------------------------------------------------------
      1. B(C   9,C   8)                  2.7001         0.320344 C 
      2. B(C  10,N   4)                  1.4430         0.466977   
      3. B(C  10,C   8)                  1.1623         0.355045   
      4. B(C  11,C   9)                  2.0184         0.362641   
      5. B(C  11,C  10)                  1.3556         0.339897   
      6. B(C  11,N   5)                  1.4936         0.480746   
      7. B(C  12,C   8)                  1.5314         0.385345   
      8. B(C  13,C   9)                  1.5358         0.387770   
      9. B(C  14,O   0)                  1.2111         1.102736   
     10. B(C  14,N   6)                  1.3800         0.586441   
     11. B(C  14,C   8)                  1.5409         0.393636   
     12. B(C  15,O   1)                  1.2316         1.098286   
     13. B(C  15,N   7)                  1.3526         0.585369   
     14. B(C  15,C   9)                  1.5192         0.387723   
     15. B(C  16,O   2)                  1.2095         1.087341   
     16. B(C  16,N   4)                  1.3468         0.612509   
     17. B(C  16,N   6)                  1.3755         0.554006   
     18. B(C  17,O   3)                  1.2288         1.087510   
     19. B(C  17,N   5)                  1.4392         0.617844   
     20. B(C  17,N   7)                  1.4562         0.548746   
     21. B(H  18,C  10)                  1.0914         0.360246   
     22. B(H  19,C  11)                  1.0930         0.365213   
     23. B(H  20,C  12)                  1.0937         0.366664   
     24. B(H  21,C  12)                  1.0915         0.363151   
     25. B(H  22,C  12)                  1.0945         0.362563   
     26. B(H  23,C  13)                  1.1024         0.361089   
     27. B(H  24,C  13)                  1.0959         0.364889   
     28. B(H  25,C  13)                  1.0991         0.363812   
     29. B(H  26,N   4)                  1.0091         0.440286   
     30. B(H  27,N   5)                  1.0196         0.442686   
     31. B(H  28,N   6)                  1.0096         0.436367   
     32. B(H  29,N   7)                  1.0269         0.435953   
     33. A(C  16,N   4,H  26)          114.9995         0.358987   
     34. A(C  10,N   4,H  26)          120.9698         0.342908   
     35. A(C  10,N   4,C  16)          122.8101         0.406446   
     36. A(C  11,N   5,H  27)          113.7485         0.344898   
     37. A(C  11,N   5,C  17)          137.0873         0.409168   
     38. A(C  17,N   5,H  27)          109.1600         0.359850   
     39. A(C  14,N   6,H  28)          117.3156         0.355801   
     40. A(C  16,N   6,H  28)          115.7702         0.352388   
     41. A(C  14,N   6,C  16)          126.1201         0.415733   
     42. A(C  15,N   7,C  17)          123.8670         0.414893   
     43. A(C  17,N   7,H  29)          117.3281         0.351763   
     44. A(C  15,N   7,H  29)          118.0437         0.355634   
     45. A(C   9,C   8,C  14)          112.7266         0.357126   
     46. A(C  10,C   8,C  12)          108.8559         0.362122   
     47. A(C  10,C   8,C  14)          110.2206         0.363441   
     48. A(C   9,C   8,C  12)          111.3711         0.355837   
     49. A(C  12,C   8,C  14)          112.3849         0.368575   
     50. A(C   9,C   8,C  10)          100.6102         0.350937   
     51. A(C   8,C   9,C  15)          123.1362         0.356209   
     52. A(C  11,C   9,C  15)          122.4343         0.363816   
     53. A(C   8,C   9,C  13)          142.4322         0.356216   
     54. A(C  13,C   9,C  15)           89.3678         0.368015   
     55. A(C   8,C   9,C  11)           34.0786         0.352195 C 
     56. A(C  11,C   9,C  13)          142.6704         0.363823   
     57. A(N   4,C  10,C   8)          125.6674         0.371914   
     58. A(N   4,C  10,H  18)          112.2148         0.334496   
     59. A(C   8,C  10,H  18)          108.1845         0.321646   
     60. A(C  11,C  10,H  18)          116.1338         0.319361   
     61. A(N   4,C  10,C  11)          115.6242         0.369136   
     62. A(C   8,C  10,C  11)           74.3128         0.354473   
     63. A(N   5,C  11,C  10)          107.8454         0.370984   
     64. A(C   9,C  11,C  10)          135.2466         0.355748   
     65. A(N   5,C  11,C   9)           87.5501         0.375149   
     66. A(N   5,C  11,H  19)          106.8679         0.336883   
     67. A(C   9,C  11,H  19)          112.5672         0.323489   
     68. A(C  10,C  11,H  19)          102.8729         0.320077   
     69. A(C   8,C  12,H  20)          110.1184         0.326948   
     70. A(C   8,C  12,H  21)          111.3428         0.326430   
     71. A(H  20,C  12,H  21)          109.5985         0.292054   
     72. A(C   8,C  12,H  22)          110.0134         0.326343   
     73. A(H  20,C  12,H  22)          107.8836         0.291979   
     74. A(H  21,C  12,H  22)          107.7925         0.291537   
     75. A(H  23,C  13,H  25)          108.0377         0.291434   
     76. A(C   9,C  13,H  23)          109.8472         0.326461   
     77. A(C   9,C  13,H  24)          110.5165         0.327024   
     78. A(H  23,C  13,H  24)          109.0603         0.291570   
     79. A(C   9,C  13,H  25)          110.7348         0.326865   
     80. A(H  24,C  13,H  25)          108.5849         0.291914   
     81. A(O   0,C  14,C   8)          121.9567         0.440771   
     82. A(N   6,C  14,C   8)          117.5482         0.393922   
     83. A(O   0,C  14,N   6)          120.2880         0.470819   
     84. A(O   1,C  15,N   7)          124.8995         0.470312   
     85. A(O   1,C  15,C   9)          124.3754         0.439248   
     86. A(N   7,C  15,C   9)          110.7247         0.392753   
     87. A(O   2,C  16,N   4)          126.1828         0.473371   
     88. A(O   2,C  16,N   6)          124.1535         0.464736   
     89. A(N   4,C  16,N   6)          109.6636         0.418965   
     90. A(O   3,C  17,N   7)          118.2580         0.463939   
     91. A(N   5,C  17,N   7)          121.6284         0.418900   
     92. A(O   3,C  17,N   5)          120.0573         0.474140   
     93. D(C  11,C   9,C   8,C  10)     27.5949         0.008410   
     94. D(C  11,C   9,C   8,C  12)    -87.6440         0.008410   
     95. D(C  11,C   9,C   8,C  14)    144.9634         0.008410   
     96. D(C  13,C   9,C   8,C  10)    141.5384         0.008410   
     97. D(C  13,C   9,C   8,C  12)     26.2994         0.008410   
     98. D(C  13,C   9,C   8,C  14)   -101.0932         0.008410   
     99. D(N   4,C  10,C   8,C  12)   -155.9835         0.010134   
    100. D(C   8,C  10,N   4,H  26)   -159.7994         0.018626   
    101. D(C  11,C  10,N   4,C  16)    122.0341         0.018626   
    102. D(C  11,C  10,C   8,C  14)   -142.8671         0.010134   
    103. D(N   4,C  10,C   8,C  14)    -32.2971         0.010134   
    104. D(C   8,C  10,N   4,C  16)     33.4596         0.018626   
    105. D(C  11,C  10,N   4,H  26)    -71.2250         0.018626   
    106. D(C  11,C  10,C   8,C  12)     93.4465         0.010134   
    107. D(H  18,C  10,N   4,C  16)   -101.6163         0.018626   
    108. D(N   4,C  10,C   8,C   9)     86.9035         0.010134   
    109. D(C  11,C  10,C   8,C   9)    -23.6665         0.010134   
    110. D(C   9,C  11,N   5,H  27)   -153.1642         0.019770   
    111. D(N   5,C  11,C  10,N   4)     31.2090         0.009355   
    112. D(C   9,C  11,N   5,C  17)     25.9881         0.019770   
    113. D(C  10,C  11,C   9,C   8)    -33.6761         0.010540   
    114. D(C  10,C  11,N   5,C  17)   -111.1458         0.019770   
    115. D(H  19,C  11,N   5,C  17)    138.8440         0.019770   
    116. D(C  10,C  11,C   9,C  13)   -146.9074         0.010540   
    117. D(C  10,C  11,N   5,H  27)     69.7018         0.019770   
    118. D(N   5,C  11,C   9,C  15)    -44.2811         0.010540   
    119. D(N   5,C  11,C  10,H  18)   -103.4103         0.009355   
    120. D(N   5,C  11,C   9,C   8)   -146.7866         0.010540   
    121. D(N   5,C  11,C   9,C  13)     99.9821         0.010540   
    122. D(C  10,C  11,C   9,C  15)     68.8294         0.010540   
    123. D(N   5,C  11,C  10,C   8)    153.6883         0.009355   
    124. D(C   9,C  11,C  10,N   4)    -73.9168         0.009355   
    125. D(C   9,C  11,C  10,C   8)     48.5624         0.009355   
    126. D(C   9,C  11,C  10,H  18)    151.4638         0.009355   
    127. D(H  20,C  12,C   8,C   9)    -67.8478         0.011818   
    128. D(H  20,C  12,C   8,C  10)   -177.8816         0.011818   
    129. D(H  20,C  12,C   8,C  14)     59.7298         0.011818   
    130. D(H  21,C  12,C   8,C   9)     53.9323         0.011818   
    131. D(H  21,C  12,C   8,C  10)    -56.1014         0.011818   
    132. D(H  21,C  12,C   8,C  14)   -178.4901         0.011818   
    133. D(H  23,C  13,C   9,C   8)   -149.4732         0.011960   
    134. D(H  23,C  13,C   9,C  11)    -91.8536         0.011960   
    135. D(H  23,C  13,C   9,C  15)     58.6095         0.011960   
    136. D(H  24,C  13,C   9,C   8)    -29.0906         0.011960   
    137. D(H  24,C  13,C   9,C  11)     28.5290         0.011960   
    138. D(H  24,C  13,C   9,C  15)    178.9922         0.011960   
    139. D(N   6,C  14,C   8,C  10)     13.8619         0.011517   
    140. D(O   0,C  14,N   6,H  28)     -9.3106         0.027624   
    141. D(C   8,C  14,N   6,C  16)      6.4999         0.027624   
    142. D(C   8,C  14,N   6,H  28)    175.8164         0.027624   
    143. D(O   0,C  14,C   8,C   9)     87.5485         0.011517   
    144. D(O   0,C  14,C   8,C  10)   -160.9199         0.011517   
    145. D(O   0,C  14,C   8,C  12)    -39.3063         0.011517   
    146. D(O   0,C  14,N   6,C  16)   -178.6270         0.027624   
    147. D(N   6,C  14,C   8,C   9)    -97.6697         0.011517   
    148. D(N   7,C  15,C   9,C   8)     85.9481         0.011191   
    149. D(O   1,C  15,N   7,H  29)     -9.0168         0.027516   
    150. D(C   9,C  15,N   7,C  17)    -19.0686         0.027516   
    151. D(C   9,C  15,N   7,H  29)    171.2104         0.027516   
    152. D(O   1,C  15,C   9,C   8)    -93.8261         0.011191   
    153. D(O   1,C  15,C   9,C  11)   -134.6152         0.011191   
    154. D(O   1,C  15,N   7,C  17)    160.7042         0.027516   
    155. D(O   1,C  15,C   9,C  13)     66.1290         0.011191   
    156. D(N   7,C  15,C   9,C  11)     45.1590         0.011191   
    157. D(O   2,C  16,N   4,C  10)    171.5158         0.030322   
    158. D(O   2,C  16,N   4,H  26)      4.0479         0.030322   
    159. D(N   6,C  16,N   4,C  10)     -8.3681         0.030322   
    160. D(N   6,C  16,N   4,H  26)   -175.8360         0.030322   
    161. D(O   2,C  16,N   6,C  14)    172.1107         0.024482   
    162. D(O   2,C  16,N   6,H  28)      2.6496         0.024482   
    163. D(N   4,C  16,N   6,C  14)     -8.0025         0.024482   
    164. D(N   4,C  16,N   6,H  28)   -177.4635         0.024482   
    165. D(O   3,C  17,N   5,C  11)    173.4435         0.030894   
    166. D(O   3,C  17,N   5,H  27)     -7.3779         0.030894   
    167. D(N   7,C  17,N   5,C  11)     -9.3347         0.030894   
    168. D(N   7,C  17,N   5,H  27)    169.8439         0.030894   
    169. D(O   3,C  17,N   7,C  15)    176.3551         0.023995   
    170. D(O   3,C  17,N   7,H  29)    -13.8560         0.023995   
    171. D(N   5,C  17,N   7,C  15)     -0.9150         0.023995   
    172. D(N   5,C  17,N   7,H  29)    168.8739         0.023995   
    -----------------------------------------------------------------

Number of atoms                         .... 30
Number of degrees of freedom            .... 172


         *************************************************************
         *                GEOMETRY OPTIMIZATION CYCLE   1            *
         *************************************************************
---------------------------------
CARTESIAN COORDINATES (ANGSTROEM)
---------------------------------
  O      3.361010    0.489710   -0.340179
  O     -0.957359    1.584059   -2.667256
  O      1.057620   -3.408988   -0.503361
  O     -3.491344   -0.847020    0.287950
  N      0.397264   -1.686705    0.837510
  N     -1.504276   -0.017421    1.134186
  N      2.261759   -1.472000   -0.358317
  N     -2.328831    0.474648   -1.204200
  C      1.351945    0.423674    0.992327
  C     -0.605538    1.793837   -0.265243
  C      0.735892   -0.436532    1.473542
  C     -0.141901    0.577662    1.277405
  C      1.990346    1.258400    2.106264
  C     -1.072872    3.218043   -0.599790
  C      2.397373   -0.150965    0.017087
  C     -1.297147    1.290093   -1.520574
  C      1.209167   -2.300043   -0.044807
  C     -2.478208   -0.181309    0.087300
  H      1.088009   -0.576364    2.497054
  H     -0.124580    1.103419    2.235503
  H      2.545207    2.097393    1.676762
  H      1.237868    1.634735    2.801629
  H      2.695674    0.645562    2.676222
  H     -2.173053    3.245703   -0.663313
  H     -0.741115    3.922275    0.171557
  H     -0.667773    3.543052   -1.568429
  H     -0.369494   -2.249749    1.174325
  H     -1.872642   -0.412752    1.998821
  H      2.909448   -1.826850   -1.046663
  H     -2.959847    0.179430   -1.958714

----------------------------
CARTESIAN COORDINATES (A.U.)
----------------------------
  NO LB      ZA    FRAG     MASS         X           Y           Z
   0 O     8.0000    0    15.999    6.351388    0.925418   -0.642845
   1 O     8.0000    0    15.999   -1.809146    2.993438   -5.040383
   2 O     8.0000    0    15.999    1.998613   -6.442053   -0.951214
   3 O     8.0000    0    15.999   -6.597683   -1.600636    0.544147
   4 N     7.0000    0    14.007    0.750720   -3.187411    1.582664
   5 N     7.0000    0    14.007   -2.842670   -0.032922    2.143301
   6 N     7.0000    0    14.007    4.274105   -2.781676   -0.677120
   7 N     7.0000    0    14.007   -4.400853    0.896955   -2.275609
   8 C     6.0000    0    12.011    2.554807    0.800627    1.875225
   9 C     6.0000    0    12.011   -1.144301    3.389862   -0.501237
  10 C     6.0000    0    12.011    1.390634   -0.824925    2.784591
  11 C     6.0000    0    12.011   -0.268155    1.091622    2.413947
  12 C     6.0000    0    12.011    3.761209    2.378031    3.980262
  13 C     6.0000    0    12.011   -2.027434    6.081220   -1.133438
  14 C     6.0000    0    12.011    4.530379   -0.285282    0.032290
  15 C     6.0000    0    12.011   -2.451253    2.437923   -2.873468
  16 C     6.0000    0    12.011    2.284994   -4.346450   -0.084673
  17 C     6.0000    0    12.011   -4.683134   -0.342624    0.164974
  18 H     1.0000    0     1.008    2.056040   -1.089170    4.718748
  19 H     1.0000    0     1.008   -0.235422    2.085159    4.224489
  20 H     1.0000    0     1.008    4.809743    3.963498    3.168622
  21 H     1.0000    0     1.008    2.339231    3.089201    5.294311
  22 H     1.0000    0     1.008    5.094086    1.219936    5.057326
  23 H     1.0000    0     1.008   -4.106475    6.133490   -1.253480
  24 H     1.0000    0     1.008   -1.400505    7.412026    0.324196
  25 H     1.0000    0     1.008   -1.261908    6.695399   -2.963900
  26 H     1.0000    0     1.008   -0.698243   -4.251409    2.219153
  27 H     1.0000    0     1.008   -3.538781   -0.779988    3.777223
  28 H     1.0000    0     1.008    5.498059   -3.452246   -1.977907
  29 H     1.0000    0     1.008   -5.593300    0.339073   -3.701433

--------------------------------
INTERNAL COORDINATES (ANGSTROEM)
--------------------------------
 O      0   0   0     0.000000000000     0.00000000     0.00000000
 O      1   0   0     3.276547224713     0.00000000     0.00000000
 O      2   1   0     4.190682946307    73.29092113     0.00000000
 O      2   1   3     4.518474637089   127.44709352    53.95475711
 N      3   2   1     2.267248928620    60.24193841    80.78937904
 N      4   2   1     2.268963619588    62.92622666    27.43118870
 N      1   2   3     2.256576334345    65.74096506   357.61235796
 N      2   1   3     2.254243334192   127.52491870    57.66431925
 C      1   2   3     2.394011413247    63.06732880   286.37055960
 C      9   1   2     1.571844755014   115.95449945   332.88544696
 C      5   3   2     1.439252850441   151.52652991   286.18182125
 C      6   4   2     1.431343055439   150.83977748   355.05159247
 C      9   1   2     1.521555738675    88.16429934   218.15250995
 C     10   9   1     1.519848178782   118.74569578   289.79399729
 C      1   2   3     1.205350858177    58.56645480   322.99572470
 C      2   1   3     1.206451409160    99.59764305    73.76644980
 C      3   2   1     1.209177686384    47.15301651    46.62139346
 C      4   2   1     1.209135524532    32.99112947    29.98848261
 H     11   5   3     1.089889985995   112.18610762   269.23059945
 H     12   6   4     1.086162016425   109.29975388   150.93446994
 H     13   9   1     1.085082907080   110.22864580    44.99621095
 H     13   9   1     1.087703567048   111.61009477   166.52742608
 H     13   9   1     1.088144232014   109.57581940   286.25790409
 H     14  10   9     1.089253537592   110.20351681   187.26232421
 H     14  10   9     1.086403685061   110.99745457   307.14572518
 H     14  10   9     1.087208412008   109.89763282    67.87223600
 H      5   3   2     1.005273831639    87.18304645   127.88417897
 H      6   4   2     1.003794133283    88.13320973   180.35863417
 H      7   1   2     1.007707668772    89.77821731   104.06503618
 H      8   2   1     1.007966045578    89.29448577   210.74819076

---------------------------
INTERNAL COORDINATES (A.U.)
---------------------------
 O      0   0   0     0.000000000000     0.00000000     0.00000000
 O      1   0   0     6.191776919568     0.00000000     0.00000000
 O      2   1   0     7.919243082615    73.29092113     0.00000000
 O      2   1   3     8.538679607168   127.44709352    53.95475711
 N      3   2   1     4.284479552517    60.24193841    80.78937904
 N      4   2   1     4.287719848851    62.92622666    27.43118870
 N      1   2   3     4.264311272200    65.74096506   357.61235796
 N      2   1   3     4.259902540841   127.52491870    57.66431925
 C      1   2   3     4.524025932519    63.06732880   286.37055960
 C      9   1   2     2.970356112017   115.95449945   332.88544696
 C      5   3   2     2.719793724800   151.52652991   286.18182125
 C      6   4   2     2.704846378470   150.83977748   355.05159247
 C      9   1   2     2.875323643591    88.16429934   218.15250995
 C     10   9   1     2.872096823037   118.74569578   289.79399729
 C      1   2   3     2.277783017241    58.56645480   322.99572470
 C      2   1   3     2.279862757196    99.59764305    73.76644980
 C      3   2   1     2.285014674514    47.15301651    46.62139346
 C      4   2   1     2.284935000161    32.99112947    29.98848261
 H     11   5   3     2.059593589634   112.18610762   269.23059945
 H     12   6   4     2.052548748110   109.29975388   150.93446994
 H     13   9   1     2.050509526980   110.22864580    44.99621095
 H     13   9   1     2.055461856610   111.61009477   166.52742608
 H     13   9   1     2.056294592713   109.57581940   286.25790409
 H     14  10   9     2.058390876454   110.20351681   187.26232421
 H     14  10   9     2.053005435648   110.99745457   307.14572518
 H     14  10   9     2.054526149191   109.89763282    67.87223600
 H      5   3   2     1.899692231395    87.18304645   127.88417897
 H      6   4   2     1.896896006743    88.13320973   180.35863417
 H      7   1   2     1.904291517032    89.77821731   104.06503618
 H      8   2   1     1.904779778434    89.29448577   210.74819076

---------------------
BASIS SET INFORMATION
---------------------
There are 4 groups of distinct atoms

 Group   1 Type O   : 12s7p3d1f contracted to 6s4p3d1f pattern {621111/4111/111/1}
 Group   2 Type N   : 12s6p3d1f contracted to 6s3p3d1f pattern {621111/411/111/1}
 Group   3 Type C   : 12s6p3d1f contracted to 6s3p3d1f pattern {621111/411/111/1}
 Group   4 Type H   : 5s3p1d contracted to 3s3p1d pattern {311/111/1}

Atom   0O    basis set group =>   1
Atom   1O    basis set group =>   1
Atom   2O    basis set group =>   1
Atom   3O    basis set group =>   1
Atom   4N    basis set group =>   2
Atom   5N    basis set group =>   2
Atom   6N    basis set group =>   2
Atom   7N    basis set group =>   2
Atom   8C    basis set group =>   3
Atom   9C    basis set group =>   3
Atom  10C    basis set group =>   3
Atom  11C    basis set group =>   3
Atom  12C    basis set group =>   3
Atom  13C    basis set group =>   3
Atom  14C    basis set group =>   3
Atom  15C    basis set group =>   3
Atom  16C    basis set group =>   3
Atom  17C    basis set group =>   3
Atom  18H    basis set group =>   4
Atom  19H    basis set group =>   4
Atom  20H    basis set group =>   4
Atom  21H    basis set group =>   4
Atom  22H    basis set group =>   4
Atom  23H    basis set group =>   4
Atom  24H    basis set group =>   4
Atom  25H    basis set group =>   4
Atom  26H    basis set group =>   4
Atom  27H    basis set group =>   4
Atom  28H    basis set group =>   4
Atom  29H    basis set group =>   4
---------------------------------
AUXILIARY/J BASIS SET INFORMATION
---------------------------------
There are 4 groups of distinct atoms

 Group   1 Type O   : 12s5p4d2f1g contracted to 6s4p3d1f1g pattern {711111/2111/211/2/1}
 Group   2 Type N   : 12s5p4d2f1g contracted to 6s4p3d1f1g pattern {711111/2111/211/2/1}
 Group   3 Type C   : 12s5p4d2f1g contracted to 6s4p3d1f1g pattern {711111/2111/211/2/1}
 Group   4 Type H   : 5s2p1d contracted to 3s1p1d pattern {311/2/1}

Atom   0O    basis set group =>   1
Atom   1O    basis set group =>   1
Atom   2O    basis set group =>   1
Atom   3O    basis set group =>   1
Atom   4N    basis set group =>   2
Atom   5N    basis set group =>   2
Atom   6N    basis set group =>   2
Atom   7N    basis set group =>   2
Atom   8C    basis set group =>   3
Atom   9C    basis set group =>   3
Atom  10C    basis set group =>   3
Atom  11C    basis set group =>   3
Atom  12C    basis set group =>   3
Atom  13C    basis set group =>   3
Atom  14C    basis set group =>   3
Atom  15C    basis set group =>   3
Atom  16C    basis set group =>   3
Atom  17C    basis set group =>   3
Atom  18H    basis set group =>   4
Atom  19H    basis set group =>   4
Atom  20H    basis set group =>   4
Atom  21H    basis set group =>   4
Atom  22H    basis set group =>   4
Atom  23H    basis set group =>   4
Atom  24H    basis set group =>   4
Atom  25H    basis set group =>   4
Atom  26H    basis set group =>   4
Atom  27H    basis set group =>   4
Atom  28H    basis set group =>   4
Atom  29H    basis set group =>   4
[1738298974.689410] [ohm:502371:0]        ib_iface.c:1059 UCX  ERROR ibv_create_cq(cqe=256) failed: Connection timed out
[1738298974.689888] [ohm:502346:0]        ib_iface.c:1059 UCX  ERROR ibv_create_cq(cqe=256) failed: Connection timed out
[1738298974.690229] [ohm:502352:0]        ib_iface.c:1059 UCX  ERROR ibv_create_cq(cqe=256) failed: Connection timed out
[1738298974.690778] [ohm:502363:0]        ib_iface.c:1059 UCX  ERROR ibv_create_cq(cqe=256) failed: Connection timed out
[1738298974.691243] [ohm:502349:0]        ib_iface.c:1059 UCX  ERROR ibv_create_cq(cqe=256) failed: Connection timed out
[1738298974.730975] [ohm:502351:0]        ib_iface.c:1059 UCX  ERROR ibv_create_cq(cqe=256) failed: Connection timed out
[1738298974.731156] [ohm:502388:0]        ib_iface.c:1059 UCX  ERROR ibv_create_cq(cqe=256) failed: Connection timed out
[1738298974.731311] [ohm:502378:0]        ib_iface.c:1059 UCX  ERROR ibv_create_cq(cqe=256) failed: Connection timed out
[1738298974.731305] [ohm:502347:0]        ib_iface.c:1059 UCX  ERROR ibv_create_cq(cqe=256) failed: Connection timed out
[1738298974.732716] [ohm:502364:0]        ib_iface.c:1059 UCX  ERROR ibv_create_cq(cqe=256) failed: Connection timed out
[1738298974.733550] [ohm:502359:0]        ib_iface.c:1059 UCX  ERROR ibv_create_cq(cqe=256) failed: Connection timed out
[1738298974.733548] [ohm:502380:0]        ib_iface.c:1059 UCX  ERROR ibv_create_cq(cqe=256) failed: Connection timed out
[1738298974.733852] [ohm:502361:0]        ib_iface.c:1059 UCX  ERROR ibv_create_cq(cqe=256) failed: Connection timed out
[1738298974.734536] [ohm:502370:0]        ib_iface.c:1059 UCX  ERROR ibv_create_cq(cqe=256) failed: Connection timed out
[1738298974.737532] [ohm:502368:0]        ib_iface.c:1059 UCX  ERROR ibv_create_cq(cqe=256) failed: Connection timed out
[1738298974.737624] [ohm:502367:0]        ib_iface.c:1059 UCX  ERROR ibv_create_cq(cqe=256) failed: Connection timed out
[1738298974.739081] [ohm:502355:0]        ib_iface.c:1059 UCX  ERROR ibv_create_cq(cqe=256) failed: Connection timed out
[1738298974.741600] [ohm:502360:0]        ib_iface.c:1059 UCX  ERROR ibv_create_cq(cqe=256) failed: Connection timed out
[1738298974.741619] [ohm:502376:0]        ib_iface.c:1059 UCX  ERROR ibv_create_cq(cqe=256) failed: Connection timed out
[1738298974.744054] [ohm:502348:0]        ib_iface.c:1059 UCX  ERROR ibv_create_cq(cqe=256) failed: Connection timed out
[1738298974.744801] [ohm:502350:0]        ib_iface.c:1059 UCX  ERROR ibv_create_cq(cqe=256) failed: Connection timed out
[1738298974.744824] [ohm:502356:0]        ib_iface.c:1059 UCX  ERROR ibv_create_cq(cqe=256) failed: Connection timed out
[1738298974.744989] [ohm:502390:0]        ib_iface.c:1059 UCX  ERROR ibv_create_cq(cqe=256) failed: Connection timed out
[1738298974.745090] [ohm:502369:0]        ib_iface.c:1059 UCX  ERROR ibv_create_cq(cqe=256) failed: Connection timed out
[1738298974.745088] [ohm:502362:0]        ib_iface.c:1059 UCX  ERROR ibv_create_cq(cqe=256) failed: Connection timed out
[1738298974.745672] [ohm:502353:0]        ib_iface.c:1059 UCX  ERROR ibv_create_cq(cqe=256) failed: Connection timed out
[1738298974.746758] [ohm:502372:0]        ib_iface.c:1059 UCX  ERROR ibv_create_cq(cqe=256) failed: Connection timed out
[1738298974.746936] [ohm:502366:0]        ib_iface.c:1059 UCX  ERROR ibv_create_cq(cqe=256) failed: Connection timed out
[1738298974.747054] [ohm:502358:0]        ib_iface.c:1059 UCX  ERROR ibv_create_cq(cqe=256) failed: Connection timed out
[1738298974.748025] [ohm:502354:0]        ib_iface.c:1059 UCX  ERROR ibv_create_cq(cqe=256) failed: Connection timed out
[1738298974.749004] [ohm:502357:0]        ib_iface.c:1059 UCX  ERROR ibv_create_cq(cqe=256) failed: Connection timed out
[1738298974.749762] [ohm:502365:0]        ib_iface.c:1059 UCX  ERROR ibv_create_cq(cqe=256) failed: Connection timed out


           ************************************************************
           *        Program running with 32 parallel MPI-processes    *
           *              working on a common directory               *
           ************************************************************
------------------------------------------------------------------------------
                             ORCA STARTUP CALCULATIONS
                           -- RI-GTO INTEGRALS CHOSEN --
------------------------------------------------------------------------------
------------------------------------------------------------------------------
                   ___                                                        
                  /   \      - P O W E R E D   B Y -                         
                 /     \                                                     
                 |  |  |   _    _      __       _____    __    __             
                 |  |  |  | |  | |    /  \     |  _  \  |  |  /  |          
                  \  \/   | |  | |   /    \    | | | |  |  | /  /          
                 / \  \   | |__| |  /  /\  \   | |_| |  |  |/  /          
                |  |  |   |  __  | /  /__\  \  |    /   |      \           
                |  |  |   | |  | | |   __   |  |    \   |  |\   \          
                \     /   | |  | | |  |  |  |  | |\  \  |  | \   \       
                 \___/    |_|  |_| |__|  |__|  |_| \__\ |__|  \__/        
                                                                              
                      - O R C A' S   B I G   F R I E N D -                    
                                      &                                       
                       - I N T E G R A L  F E E D E R -                       
                                                                              
 v1 FN, 2020, v2 2021, v3 2022-2024                                           
------------------------------------------------------------------------------


----------------------
SHARK INTEGRAL PACKAGE
----------------------

Number of atoms                             ...     30
Number of basis functions                   ...    882
Number of shells                            ...    322
Maximum angular momentum                    ...      3
Integral batch strategy                     ... SHARK/LIBINT Hybrid
RI-J (if used) integral strategy            ... SPLIT-RIJ (Revised 2003 algorithm where possible)
Printlevel                                  ...      1
Contraction scheme used                     ... SEGMENTED contraction
Prescreening option                         ... SCHWARTZ
   Thresh                                   ... 2.500e-11
   Tcut                                     ... 2.500e-12
   Tpresel                                  ... 2.500e-12 
Coulomb Range Separation                    ... NOT USED
Exchange Range Separation                   ... Long Range
   Mu parameter                             ... 3.000e-01
   Scaling (regular/separated)              ... 1.500e-01 8.500e-01
Multipole approximations                    ... NOT USED
Finite Nucleus Model                        ... NOT USED
CABS basis                                  ... NOT available
Auxiliary Coulomb fitting basis             ... AVAILABLE
   # of basis functions in Aux-J            ...   1014
   # of shells in Aux-J                     ...    330
   Maximum angular momentum in Aux-J        ...      4
Auxiliary J/K fitting basis                 ... NOT available
Auxiliary Correlation fitting basis         ... NOT available
Auxiliary 'external' fitting basis          ... NOT available

Checking pre-screening integrals            ... done (  0.0 sec) Dimension = 322
Check shell pair data                       ... done (  0.0 sec)
Shell pair information
Shell pair cut-off parameter TPreSel        ...   2.5e-12
Total number of shell pairs                 ...     52003
Shell pairs after pre-screening             ...     44134
Total number of primitive shell pairs       ...    129718
Primitive shell pairs kept                  ...     82379
          la=0 lb=0:   8565 shell pairs
          la=1 lb=0:  11718 shell pairs
          la=1 lb=1:   4034 shell pairs
          la=2 lb=0:   7947 shell pairs
          la=2 lb=1:   5471 shell pairs
          la=2 lb=2:   1882 shell pairs
          la=3 lb=0:   2004 shell pairs
          la=3 lb=1:   1422 shell pairs
          la=3 lb=2:    961 shell pairs
          la=3 lb=3:    130 shell pairs

Calculating one electron integrals          ... done (  0.1 sec)
Calculating RI/J V-Matrix + Cholesky decomp.... done (  0.0 sec)
Calculating Nuclear repulsion               ... done (  0.0 sec) ENN=   1416.380698121797 Eh

Diagonalization of the overlap matrix:
Smallest eigenvalue                        ... 1.308e-07
Time for diagonalization                   ...    0.124 sec
Threshold for overlap eigenvalues          ... 1.000e-07
Number of eigenvalues below threshold      ... 0

IMPORTANT:
Smallest eigenvalue of S below the DiffSThresh (1.000e-06) while
Thresh>1e-12 and/or TCut>1e-13! In order to avoid SCF convergence issues,
Thresh will be set to at least 1e-12 and TCut to at least 1e-13.
This can be turned off by adding %SCF DiffSThresh -1 END to the input.

Time for construction of square roots      ...    0.108 sec
Total time needed                          ...    0.243 sec

-------------------
DFT GRID GENERATION
-------------------

General Integration Accuracy     IntAcc      ... 4.388
Radial Grid Type                 RadialGrid  ... OptM3 with GC (2021)
Angular Grid (max. ang.)         AngularGrid ... 4 (Lebedev-302)
Angular grid pruning method      GridPruning ... 4 (adaptive)
Weight generation scheme         WeightScheme... mBecke (2022)
Basis function cutoff            BFCut       ... 1.0000e-11
Integration weight cutoff        WCut        ... 1.0000e-14
Partially contracted basis set               ... off
Rotationally invariant grid construction     ... off
Angular grids for H and He will be reduced by one unit
Diffuse basis detected: some atoms will have their outermost
                        angular grid increased by 1.

Total number of grid points                  ...   152195
Total number of batches                      ...     2391
Average number of points per batch           ...       63
Average number of grid points per atom       ...     5073

--------------------
COSX GRID GENERATION
--------------------

GRIDX 1
-------
General Integration Accuracy     IntAcc      ... 3.816
Radial Grid Type                 RadialGrid  ... OptM3 with GC (2021)
Angular Grid (max. ang.)         AngularGrid ... 1 (Lebedev-50)
Angular grid pruning method      GridPruning ... 4 (adaptive)
Weight generation scheme         WeightScheme... mBecke (2022)
Basis function cutoff            BFCut       ... 1.0000e-11
Integration weight cutoff        WCut        ... 1.0000e-14
Partially contracted basis set               ... on
Rotationally invariant grid construction     ... off
Angular grids for H and He will be reduced by one unit
Diffuse basis detected: some atoms will have their outermost
                        angular grid increased by 1.

Total number of grid points                  ...    19083
Total number of batches                      ...      167
Average number of points per batch           ...      114
Average number of grid points per atom       ...      636
UseSFitting                                  ... on

GRIDX 2
-------
General Integration Accuracy     IntAcc      ... 4.020
Radial Grid Type                 RadialGrid  ... OptM3 with GC (2021)
Angular Grid (max. ang.)         AngularGrid ... 2 (Lebedev-110)
Angular grid pruning method      GridPruning ... 4 (adaptive)
Weight generation scheme         WeightScheme... mBecke (2022)
Basis function cutoff            BFCut       ... 1.0000e-11
Integration weight cutoff        WCut        ... 1.0000e-14
Partially contracted basis set               ... on
Rotationally invariant grid construction     ... off
Angular grids for H and He will be reduced by one unit
Diffuse basis detected: some atoms will have their outermost
                        angular grid increased by 1.

Total number of grid points                  ...    46076
Total number of batches                      ...      375
Average number of points per batch           ...      122
Average number of grid points per atom       ...     1536
UseSFitting                                  ... on

GRIDX 3
-------
General Integration Accuracy     IntAcc      ... 4.338
Radial Grid Type                 RadialGrid  ... OptM3 with GC (2021)
Angular Grid (max. ang.)         AngularGrid ... 3 (Lebedev-194)
Angular grid pruning method      GridPruning ... 4 (adaptive)
Weight generation scheme         WeightScheme... mBecke (2022)
Basis function cutoff            BFCut       ... 1.0000e-11
Integration weight cutoff        WCut        ... 1.0000e-14
Partially contracted basis set               ... on
Rotationally invariant grid construction     ... off
Angular grids for H and He will be reduced by one unit
Diffuse basis detected: some atoms will have their outermost
                        angular grid increased by 1.

Total number of grid points                  ...   101355
Total number of batches                      ...      806
Average number of points per batch           ...      125
Average number of grid points per atom       ...     3378
UseSFitting                                  ... on
Initializing property integral containers    ... done (  0.0 sec)

SHARK setup successfully completed in   3.3 seconds

Maximum memory used throughout the entire STARTUP-calculation: 80.1 MB
[1738298978.894535] [ohm:502521:0]        ib_iface.c:1059 UCX  ERROR ibv_create_cq(cqe=256) failed: Connection timed out
[1738298978.894549] [ohm:502529:0]        ib_iface.c:1059 UCX  ERROR ibv_create_cq(cqe=256) failed: Connection timed out
[1738298978.894501] [ohm:502530:0]        ib_iface.c:1059 UCX  ERROR ibv_create_cq(cqe=256) failed: Connection timed out
[1738298978.894600] [ohm:502523:0]        ib_iface.c:1059 UCX  ERROR ibv_create_cq(cqe=256) failed: Connection timed out
[1738298978.894726] [ohm:502525:0]        ib_iface.c:1059 UCX  ERROR ibv_create_cq(cqe=256) failed: Connection timed out
[1738298978.894788] [ohm:502526:0]        ib_iface.c:1059 UCX  ERROR ibv_create_cq(cqe=256) failed: Connection timed out
[1738298978.894820] [ohm:502514:0]        ib_iface.c:1059 UCX  ERROR ibv_create_cq(cqe=256) failed: Connection timed out
[1738298978.895436] [ohm:502517:0]        ib_iface.c:1059 UCX  ERROR ibv_create_cq(cqe=256) failed: Connection timed out
[1738298978.895437] [ohm:502519:0]        ib_iface.c:1059 UCX  ERROR ibv_create_cq(cqe=256) failed: Connection timed out
[1738298978.914813] [ohm:502540:0]        ib_iface.c:1059 UCX  ERROR ibv_create_cq(cqe=256) failed: Connection timed out
[1738298978.914845] [ohm:502538:0]        ib_iface.c:1059 UCX  ERROR ibv_create_cq(cqe=256) failed: Connection timed out
[1738298978.914867] [ohm:502546:0]        ib_iface.c:1059 UCX  ERROR ibv_create_cq(cqe=256) failed: Connection timed out
[1738298978.942351] [ohm:502516:0]        ib_iface.c:1059 UCX  ERROR ibv_create_cq(cqe=256) failed: Connection timed out
[1738298978.959657] [ohm:502533:0]        ib_iface.c:1059 UCX  ERROR ibv_create_cq(cqe=256) failed: Connection timed out
[1738298978.959673] [ohm:502537:0]        ib_iface.c:1059 UCX  ERROR ibv_create_cq(cqe=256) failed: Connection timed out
[1738298978.959656] [ohm:502539:0]        ib_iface.c:1059 UCX  ERROR ibv_create_cq(cqe=256) failed: Connection timed out
[1738298978.959656] [ohm:502563:0]        ib_iface.c:1059 UCX  ERROR ibv_create_cq(cqe=256) failed: Connection timed out
[1738298978.964293] [ohm:502545:0]        ib_iface.c:1059 UCX  ERROR ibv_create_cq(cqe=256) failed: Connection timed out
[1738298978.964369] [ohm:502557:0]        ib_iface.c:1059 UCX  ERROR ibv_create_cq(cqe=256) failed: Connection timed out
[1738298978.965806] [ohm:502534:0]        ib_iface.c:1059 UCX  ERROR ibv_create_cq(cqe=256) failed: Connection timed out
[1738298978.966910] [ohm:502536:0]        ib_iface.c:1059 UCX  ERROR ibv_create_cq(cqe=256) failed: Connection timed out
[1738298978.967784] [ohm:502515:0]        ib_iface.c:1059 UCX  ERROR ibv_create_cq(cqe=256) failed: Connection timed out
[1738298978.968562] [ohm:502535:0]        ib_iface.c:1059 UCX  ERROR ibv_create_cq(cqe=256) failed: Connection timed out
[1738298978.968604] [ohm:502528:0]        ib_iface.c:1059 UCX  ERROR ibv_create_cq(cqe=256) failed: Connection timed out
[1738298978.969624] [ohm:502524:0]        ib_iface.c:1059 UCX  ERROR ibv_create_cq(cqe=256) failed: Connection timed out
[1738298978.969970] [ohm:502527:0]        ib_iface.c:1059 UCX  ERROR ibv_create_cq(cqe=256) failed: Connection timed out
[1738298978.970071] [ohm:502555:0]        ib_iface.c:1059 UCX  ERROR ibv_create_cq(cqe=256) failed: Connection timed out
[1738298978.970480] [ohm:502518:0]        ib_iface.c:1059 UCX  ERROR ibv_create_cq(cqe=256) failed: Connection timed out
[1738298978.970776] [ohm:502520:0]        ib_iface.c:1059 UCX  ERROR ibv_create_cq(cqe=256) failed: Connection timed out
[1738298978.970731] [ohm:502532:0]        ib_iface.c:1059 UCX  ERROR ibv_create_cq(cqe=256) failed: Connection timed out
[1738298978.970933] [ohm:502522:0]        ib_iface.c:1059 UCX  ERROR ibv_create_cq(cqe=256) failed: Connection timed out
[1738298978.970996] [ohm:502531:0]        ib_iface.c:1059 UCX  ERROR ibv_create_cq(cqe=256) failed: Connection timed out


           ************************************************************
           *        Program running with 32 parallel MPI-processes    *
           *              working on a common directory               *
           ************************************************************
-------------------------------------------------------------------------------
                                 ORCA GUESS
                   Start orbitals & Density for SCF / CASSCF
-------------------------------------------------------------------------------

------------
SCF SETTINGS
------------
Hamiltonian:
 Density Functional     Method          .... DFT(GTOs)
  Functional kind                       .... Exchange-Correlation
  Functional name                       .... wB97M-V exchange-correlation functional
  Functional family                     .... Hybrid MGGA
  Functional refs                              
    [ 0] N. Mardirossian and M. Head-Gordon.,  J. Chem. Phys. 144, 214110 (2016), doi: 10.1063/1.4952647
  Fraction of HF Exchange (short range) .... 0.1500
  Fraction of HF Exchange (long range)  .... 1.0000
  Range separation parameter mu         .... 0.3000
  Functional external parameters        .... 17
    Parameter  0 _cx00      =  8.500000e-01 : u^00 coefficient for exchange
    Parameter  1 _cx01      =  1.007000e+00 : u^01 coefficient for exchange
    Parameter  2 _cx10      =  2.590000e-01 : u^10 coefficient for exchange
    Parameter  3 _css00     =  4.430000e-01 : u^00 coefficient for same-spin correlation
    Parameter  4 _css04     = -1.437000e+00 : u^04 coefficient for same-spin correlation
    Parameter  5 _css10     = -4.535000e+00 : u^10 coefficient for same-spin correlation
    Parameter  6 _css20     = -3.390000e+00 : u^20 coefficient for same-spin correlation
    Parameter  7 _css43     =  4.278000e+00 : u^43 coefficient for same-spin correlation
    Parameter  8 _cos00     =  1.000000e+00 : u^00 coefficient for opposite-spin correlation
    Parameter  9 _cos10     =  1.358000e+00 : u^10 coefficient for opposite-spin correlation
    Parameter 10 _cos20     =  2.924000e+00 : u^20 coefficient for opposite-spin correlation
    Parameter 11 _cos21     = -8.812000e+00 : u^21 coefficient for opposite-spin correlation
    Parameter 12 _cos60     = -1.390000e+00 : u^60 coefficient for opposite-spin correlation
    Parameter 13 _cos61     =  9.142000e+00 : u^61 coefficient for opposite-spin correlation
    Parameter 14 _alpha     =  1.000000e+00 : fraction of HF exchange
    Parameter 15 _beta      = -8.500000e-01 : fraction of short-range exchange
    Parameter 16 _omega     =  3.000000e-01 : range-separation constant
 Long-range corrected/Screened/Range-Separated Hybrid DFT is turned on
   Amount of maximum screened exact exchange              ....  0.850000
   Range separation parameter mu (erf(mu*r12)/r12)        ....  0.300000
 RI-approximation to the Coulomb term is turned on
   Number of AuxJ basis functions       .... 1014
   RIJ-COSX (HFX calculated with COS-X)).... on


General Settings:
 Integral files         IntName         .... orca
 Hartree-Fock type      HFTyp           .... RHF
 Total Charge           Charge          ....    0
 Multiplicity           Mult            ....    1
 Number of Electrons    NEL             ....  132
 Basis Dimension        Dim             ....  882
 Nuclear Repulsion      ENuc            ....   1416.3806981218 Eh

Convergence Acceleration:
 AO-DIIS                CNVDIIS         .... on
   Start iteration      DIISMaxIt       ....    12
   Startup error        DIISStart       ....  0.200000
   # of expansion vecs  DIISMaxEq       ....     5
   Bias factor          DIISBfac        ....   1.050
   Max. coefficient     DIISMaxC        ....  10.000
 MO-DIIS                CNVKDIIS        .... off
 Trust-Rad. Augm. Hess. CNVTRAH         .... auto
   Auto Start mean grad. ratio tolernc. ....  1.125000
   Auto Start start iteration           ....    50
   Auto Start num. interpolation iter.  ....    10
   Max. Number of Micro iterations      ....    24
   Max. Number of Macro iterations      .... Maxiter - #DIIS iter
   Number of Davidson start vectors     ....     2
   Converg. threshold    (grad. norm)   ....   1.000e-05
   Grad. Scal. Fac. for Micro threshold ....   0.100
   Minimum threshold for Micro iter.    ....   1.000e-02
   NR start threshold (gradient norm)   ....   1.000e-04
   Initial trust radius                 ....   0.400
   Minimum AH scaling param. (alpha)    ....   1.000
   Maximum AH scaling param. (alpha)    .... 1000.000
   Quad. conv. algorithm                .... NR
   White noise on init. David. guess    .... on
   Maximum white noise                  ....   0.010
   Pseudo random numbers                .... off
   Inactive MOs                         .... canonical
   Orbital update algorithm             .... Taylor
   Preconditioner                       .... Diag
   Full preconditioner red. dimension   ....   250
 SOSCF                  CNVSOSCF        .... on
   Start iteration      SOSCFMaxIt      ....   150
   Startup grad/error   SOSCFStart      ....  0.003300
   Hessian update       SOSCFHessUp     .... L-BFGS
 Level Shifting         CNVShift        .... on
   Level shift para.    LevelShift      ....    0.2500
   Turn off err/grad.   ShiftErr        ....    0.0010
 Zerner damping         CNVZerner       .... off
 Static damping         CNVDamp         .... on
   Fraction old density DampFac         ....    0.7000
   Max. Damping (<1)    DampMax         ....    0.9800
   Min. Damping (>=0)   DampMin         ....    0.0000
   Turn off err/grad.   DampErr         ....    0.1000

SCF Procedure:
 Maximum # iterations   MaxIter         ....   125
 SCF integral mode      SCFMode         .... Direct
   Integral package                     .... SHARK and LIBINT hybrid scheme
 Reset frequency        DirectResetFreq ....    20
 Integral Threshold     Thresh          ....  1.000e-12 Eh
 Primitive CutOff       TCut            ....  1.000e-13 Eh

Convergence Tolerance:
 Convergence Check Mode ConvCheckMode   .... Total+1el-Energy
 Convergence forced     ConvForced      .... 0
 Energy Change          TolE            ....  1.000e-08 Eh
 1-El. energy change                    ....  1.000e-05 Eh
 Orbital Gradient       TolG            ....  1.000e-05
 Orbital Rotation angle TolX            ....  1.000e-05
 DIIS Error             TolErr          ....  5.000e-07

------------------------------
INITIAL GUESS: MODEL POTENTIAL
------------------------------
Loading Hartree-Fock densities                     ... done
Calculating cut-offs                               ... done
Initializing the effective Hamiltonian             ... done
Setting up the integral package (SHARK)            ... done
Starting the Coulomb interaction                   ... done (   0.1 sec)
Making the grid                                    ... done (   0.3 sec)
Mapping shells                                     ... done
Starting the XC term evaluation                    ... done (   0.2 sec)
  promolecular density results
     # of electrons  =    131.989790337
     EX              =   -113.667440710
     EC              =     -4.509965181
     EX+EC           =   -118.177405891
Transforming the Hamiltonian                       ... done (   0.1 sec)
Diagonalizing the Hamiltonian                      ... done (   0.1 sec)
Back transforming the eigenvectors                 ... done (   0.1 sec)
Now organizing SCF variables                       ... done
                      ------------------
                      INITIAL GUESS DONE (   0.9 sec)
                      ------------------
             **** ENERGY FILE WAS UPDATED (orca.en.tmp) ****
Finished Guess after   1.9 sec
Maximum memory used throughout the entire GUESS-calculation: 72.6 MB
[1738298981.242169] [ohm:502690:0]        ib_iface.c:1059 UCX  ERROR ibv_create_cq(cqe=256) failed: Connection timed out
[1738298981.242231] [ohm:502692:0]        ib_iface.c:1059 UCX  ERROR ibv_create_cq(cqe=256) failed: Connection timed out
[1738298981.242226] [ohm:502681:0]        ib_iface.c:1059 UCX  ERROR ibv_create_cq(cqe=256) failed: Connection timed out
[1738298981.242225] [ohm:502685:0]        ib_iface.c:1059 UCX  ERROR ibv_create_cq(cqe=256) failed: Connection timed out
[1738298981.242222] [ohm:502686:0]        ib_iface.c:1059 UCX  ERROR ibv_create_cq(cqe=256) failed: Connection timed out
[1738298981.242918] [ohm:502688:0]        ib_iface.c:1059 UCX  ERROR ibv_create_cq(cqe=256) failed: Connection timed out
[1738298981.242939] [ohm:502683:0]        ib_iface.c:1059 UCX  ERROR ibv_create_cq(cqe=256) failed: Connection timed out
[1738298981.264663] [ohm:502696:0]        ib_iface.c:1059 UCX  ERROR ibv_create_cq(cqe=256) failed: Connection timed out
[1738298981.264655] [ohm:502730:0]        ib_iface.c:1059 UCX  ERROR ibv_create_cq(cqe=256) failed: Connection timed out
[1738298981.264715] [ohm:502714:0]        ib_iface.c:1059 UCX  ERROR ibv_create_cq(cqe=256) failed: Connection timed out
[1738298981.265125] [ohm:502738:0]        ib_iface.c:1059 UCX  ERROR ibv_create_cq(cqe=256) failed: Connection timed out
[1738298981.266195] [ohm:502694:0]        ib_iface.c:1059 UCX  ERROR ibv_create_cq(cqe=256) failed: Connection timed out
[1738298981.272483] [ohm:502704:0]        ib_iface.c:1059 UCX  ERROR ibv_create_cq(cqe=256) failed: Connection timed out
[1738298981.272513] [ohm:502725:0]        ib_iface.c:1059 UCX  ERROR ibv_create_cq(cqe=256) failed: Connection timed out
[1738298981.301748] [ohm:502698:0]        ib_iface.c:1059 UCX  ERROR ibv_create_cq(cqe=256) failed: Connection timed out
[1738298981.303112] [ohm:502700:0]        ib_iface.c:1059 UCX  ERROR ibv_create_cq(cqe=256) failed: Connection timed out
[1738298981.303166] [ohm:502719:0]        ib_iface.c:1059 UCX  ERROR ibv_create_cq(cqe=256) failed: Connection timed out
[1738298981.303290] [ohm:502701:0]        ib_iface.c:1059 UCX  ERROR ibv_create_cq(cqe=256) failed: Connection timed out
[1738298981.303998] [ohm:502695:0]        ib_iface.c:1059 UCX  ERROR ibv_create_cq(cqe=256) failed: Connection timed out
[1738298981.304003] [ohm:502687:0]        ib_iface.c:1059 UCX  ERROR ibv_create_cq(cqe=256) failed: Connection timed out
[1738298981.305311] [ohm:502699:0]        ib_iface.c:1059 UCX  ERROR ibv_create_cq(cqe=256) failed: Connection timed out
[1738298981.306433] [ohm:502691:0]        ib_iface.c:1059 UCX  ERROR ibv_create_cq(cqe=256) failed: Connection timed out
[1738298981.306447] [ohm:502684:0]        ib_iface.c:1059 UCX  ERROR ibv_create_cq(cqe=256) failed: Connection timed out
[1738298981.306478] [ohm:502693:0]        ib_iface.c:1059 UCX  ERROR ibv_create_cq(cqe=256) failed: Connection timed out
[1738298981.306688] [ohm:502697:0]        ib_iface.c:1059 UCX  ERROR ibv_create_cq(cqe=256) failed: Connection timed out
[1738298981.307179] [ohm:502710:0]        ib_iface.c:1059 UCX  ERROR ibv_create_cq(cqe=256) failed: Connection timed out
[1738298981.307190] [ohm:502705:0]        ib_iface.c:1059 UCX  ERROR ibv_create_cq(cqe=256) failed: Connection timed out
[1738298981.307225] [ohm:502724:0]        ib_iface.c:1059 UCX  ERROR ibv_create_cq(cqe=256) failed: Connection timed out
[1738298981.307139] [ohm:502682:0]        ib_iface.c:1059 UCX  ERROR ibv_create_cq(cqe=256) failed: Connection timed out
[1738298981.307318] [ohm:502733:0]        ib_iface.c:1059 UCX  ERROR ibv_create_cq(cqe=256) failed: Connection timed out
[1738298981.307436] [ohm:502689:0]        ib_iface.c:1059 UCX  ERROR ibv_create_cq(cqe=256) failed: Connection timed out
[1738298981.307661] [ohm:502727:0]        ib_iface.c:1059 UCX  ERROR ibv_create_cq(cqe=256) failed: Connection timed out


           ************************************************************
           *        Program running with 32 parallel MPI-processes    *
           *              working on a common directory               *
           ************************************************************

-------------------------------------------------------------------------------------------
                                      ORCA LEAN-SCF
                              memory conserving SCF solver
-------------------------------------------------------------------------------------------

----------------------------------------D-I-I-S--------------------------------------------
Iteration    Energy (Eh)           Delta-E    RMSDP     MaxDP     DIISErr   Damp  Time(sec)
-------------------------------------------------------------------------------------------
               ***  Starting incremental Fock matrix formation  ***
    1    -907.6582139546098915     0.00e+00  8.46e-03  2.62e+00  2.90e-01  0.700   8.8
    2    -907.9647326681242703    -3.07e-01  6.01e-03  1.67e+00  1.41e-01  0.700   5.6
                               ***Turning on AO-DIIS***
    3    -908.0982184583676826    -1.33e-01  4.16e-03  1.20e+00  5.76e-02  0.700   5.3
    4    -908.1793526516194106    -8.11e-02  9.64e-03  2.74e+00  3.38e-02  0.000   5.2
    5    -908.3595720569969671    -1.80e-01  6.60e-04  1.10e-01  6.30e-03  0.000   5.3
                              *** Initializing SOSCF ***
---------------------------------------S-O-S-C-F--------------------------------------
Iteration    Energy (Eh)           Delta-E    RMSDP     MaxDP     MaxGrad    Time(sec)
--------------------------------------------------------------------------------------
    6    -908.3604566610192705    -8.85e-04  2.84e-04  6.16e-02  3.11e-03     5.4
               *** Restarting incremental Fock matrix formation ***
    7    -908.3608213011229964    -3.65e-04  1.49e-03  2.42e-01  2.27e-03     8.6
    8    -908.3610994971918444    -2.78e-04  1.15e-03  1.54e-01  1.86e-03     7.6
    9    -908.3612757648570550    -1.76e-04  6.42e-04  1.07e-01  9.77e-04     7.7
   10    -908.3613319107439565    -5.61e-05  2.20e-04  2.88e-02  7.49e-04     7.4
   11    -908.3613713671361438    -3.95e-05  1.90e-04  3.34e-02  6.23e-04     7.2
   12    -908.3614029722475607    -3.16e-05  1.26e-04  1.80e-02  2.37e-04     7.3
   13    -908.3614089623288237    -5.99e-06  4.48e-05  6.42e-03  7.95e-05     7.1
   14    -908.3614099733999865    -1.01e-06  1.94e-05  2.86e-03  3.65e-05     6.7
   15    -908.3614101595258035    -1.86e-07  5.44e-06  7.03e-04  1.96e-05     6.6
   16    -908.3614102378860480    -7.84e-08  4.07e-06  7.91e-04  7.62e-06     6.1
   17    -908.3614101979660518     3.99e-08  3.58e-06  8.78e-04  3.27e-06     6.0
   18    -908.3614102153724161    -1.74e-08  5.51e-06  9.77e-04  1.16e-06     5.7
                  *** Gradient check signals convergence ***

               *****************************************************
               *                     SUCCESS                       *
               *           SCF CONVERGED AFTER  18 CYCLES          *
               *****************************************************

Recomputing exchange energy using gridx3       ... done (   13.400 sec)
Old exchange energy                            :    -35.034304414 Eh
New exchange energy                            :    -35.034318403 Eh
Exchange energy change after final integration :     -0.000013989 Eh
Total energy after final integration           :   -908.361424204 Eh
             **** ENERGY FILE WAS UPDATED (orca.en.tmp) ****

----------------
TOTAL SCF ENERGY
----------------

Total Energy       :       -908.36142420434226 Eh          -24717.77098 eV

Components:
Nuclear Repulsion  :       1416.38069812179674 Eh           38541.67822 eV
Electronic Energy  :      -2324.74210833716916 Eh          -63259.44882 eV
One Electron Energy:      -4048.94796415936207 Eh         -110177.47542 eV
Two Electron Energy:       1724.20585582219292 Eh           46918.02660 eV

Virial components:
Potential Energy   :      -1815.20356447236190 Eh          -49394.20014 eV
Kinetic Energy     :        906.84214026801976 Eh           24676.42916 eV
Virial Ratio       :          2.00167535656854

DFT components:
N(Alpha)           :       65.999899353477 electrons
N(Beta)            :       65.999899353477 electrons
N(Total)           :      131.999798706953 electrons
E(XC)              :      -86.376047517123 Eh       

---------------
SCF CONVERGENCE
---------------

  Last Energy change         ...    1.7406e-08  Tolerance :   1.0000e-08
  Last MAX-Density change    ...    9.7660e-04  Tolerance :   1.0000e-07
  Last RMS-Density change    ...    5.5058e-06  Tolerance :   5.0000e-09
  Last DIIS Error            ...    3.1127e-03  Tolerance :   5.0000e-07
  Last Orbital Gradient      ...    1.1631e-06  Tolerance :   1.0000e-05
  Last Orbital Rotation      ...    1.3903e-05  Tolerance :   1.0000e-05


----------------
ORBITAL ENERGIES
----------------

  NO   OCC          E(Eh)            E(eV) 
   0   2.0000     -19.337198      -526.1919 
   1   2.0000     -19.336603      -526.1757 
   2   2.0000     -19.334292      -526.1128 
   3   2.0000     -19.314155      -525.5649 
   4   2.0000     -14.584159      -396.8551 
   5   2.0000     -14.575169      -396.6105 
   6   2.0000     -14.564503      -396.3203 
   7   2.0000     -14.547766      -395.8648 
   8   2.0000     -10.532687      -286.6090 
   9   2.0000     -10.495497      -285.5970 
  10   2.0000     -10.493982      -285.5558 
  11   2.0000     -10.489326      -285.4291 
  12   2.0000     -10.447110      -284.2803 
  13   2.0000     -10.444184      -284.2007 
  14   2.0000     -10.387278      -282.6522 
  15   2.0000     -10.381269      -282.4887 
  16   2.0000     -10.377944      -282.3982 
  17   2.0000     -10.371615      -282.2260 
  18   2.0000      -1.224769       -33.3277 
  19   2.0000      -1.215808       -33.0838 
  20   2.0000      -1.195850       -32.5407 
  21   2.0000      -1.195142       -32.5215 
  22   2.0000      -1.166643       -31.7460 
  23   2.0000      -1.093091       -29.7445 
  24   2.0000      -1.086851       -29.5747 
  25   2.0000      -1.052697       -28.6453 
  26   2.0000      -1.041971       -28.3535 
  27   2.0000      -0.946827       -25.7645 
  28   2.0000      -0.879064       -23.9206 
  29   2.0000      -0.847191       -23.0532 
  30   2.0000      -0.806956       -21.9584 
  31   2.0000      -0.797817       -21.7097 
  32   2.0000      -0.779882       -21.2217 
  33   2.0000      -0.772654       -21.0250 
  34   2.0000      -0.734342       -19.9825 
  35   2.0000      -0.706046       -19.2125 
  36   2.0000      -0.691707       -18.8223 
  37   2.0000      -0.670224       -18.2377 
  38   2.0000      -0.644779       -17.5453 
  39   2.0000      -0.634158       -17.2563 
  40   2.0000      -0.612910       -16.6781 
  41   2.0000      -0.605302       -16.4711 
  42   2.0000      -0.598051       -16.2738 
  43   2.0000      -0.590214       -16.0605 
  44   2.0000      -0.582115       -15.8402 
  45   2.0000      -0.575698       -15.6655 
  46   2.0000      -0.562468       -15.3055 
  47   2.0000      -0.556955       -15.1555 
  48   2.0000      -0.553209       -15.0536 
  49   2.0000      -0.544878       -14.8269 
  50   2.0000      -0.538330       -14.6487 
  51   2.0000      -0.530460       -14.4346 
  52   2.0000      -0.517895       -14.0926 
  53   2.0000      -0.504904       -13.7391 
  54   2.0000      -0.492907       -13.4127 
  55   2.0000      -0.478546       -13.0219 
  56   2.0000      -0.467668       -12.7259 
  57   2.0000      -0.421953       -11.4819 
  58   2.0000      -0.408832       -11.1249 
  59   2.0000      -0.405662       -11.0386 
  60   2.0000      -0.402391       -10.9496 
  61   2.0000      -0.397321       -10.8117 
  62   2.0000      -0.391682       -10.6582 
  63   2.0000      -0.388281       -10.5657 
  64   2.0000      -0.375803       -10.2261 
  65   2.0000      -0.291198        -7.9239 
  66   0.0000      -0.065681        -1.7873 
  67   0.0000       0.009800         0.2667 
  68   0.0000       0.027376         0.7449 
  69   0.0000       0.031504         0.8573 
  70   0.0000       0.033733         0.9179 
  71   0.0000       0.036924         1.0047 
  72   0.0000       0.049071         1.3353 
  73   0.0000       0.053546         1.4571 
  74   0.0000       0.059434         1.6173 
  75   0.0000       0.060741         1.6528 
  76   0.0000       0.063862         1.7378 
*Only the first 10 virtual orbitals were printed.

                    ********************************
                    * MULLIKEN POPULATION ANALYSIS *
                    ********************************

-----------------------
MULLIKEN ATOMIC CHARGES
-----------------------
   0 O :   -0.631261
   1 O :   -0.668480
   2 O :   -0.667797
   3 O :   -0.638951
   4 N :   -0.203606
   5 N :   -0.450815
   6 N :   -0.020021
   7 N :   -0.020197
   8 C :    0.584945
   9 C :    0.410315
  10 C :    0.086400
  11 C :    0.197752
  12 C :   -1.630744
  13 C :   -1.622311
  14 C :    0.160638
  15 C :    0.685952
  16 C :    0.457917
  17 C :    0.365178
  18 H :    0.345278
  19 H :    0.809615
  20 H :    0.363630
  21 H :    0.274207
  22 H :    0.485174
  23 H :    0.371412
  24 H :    0.305156
  25 H :    0.363016
  26 H :    0.052878
  27 H :    0.082491
  28 H :    0.064767
  29 H :    0.087464
Sum of atomic charges:    0.0000000

--------------------------------
MULLIKEN REDUCED ORBITAL CHARGES
--------------------------------
  0 O s       :     4.068810  s :     4.068810
      pz      :     1.485207  p :     4.529020
      px      :     1.399041
      py      :     1.644773
      dz2     :     0.005175  d :     0.031483
      dxz     :     0.006177
      dyz     :     0.005490
      dx2y2   :     0.008565
      dxy     :     0.006076
      f0      :     0.000147  f :     0.001947
      f+1     :     0.000249
      f-1     :     0.000149
      f+2     :     0.000137
      f-2     :     0.000371
      f+3     :     0.000474
      f-3     :     0.000420

  1 O s       :     4.079047  s :     4.079047
      pz      :     1.327421  p :     4.554954
      px      :     1.625338
      py      :     1.602195
      dz2     :     0.011226  d :     0.032624
      dxz     :     0.011048
      dyz     :     0.009462
      dx2y2   :     0.000363
      dxy     :     0.000525
      f0      :     0.000543  f :     0.001855
      f+1     :     0.000479
      f-1     :     0.000465
      f+2     :     0.000198
      f-2     :     0.000159
      f+3     :     0.000006
      f-3     :     0.000006

  2 O s       :     4.079324  s :     4.079324
      pz      :     1.550599  p :     4.555352
      px      :     1.699382
      py      :     1.305372
      dz2     :     0.004429  d :     0.031204
      dxz     :     0.001942
      dyz     :     0.009748
      dx2y2   :     0.008415
      dxy     :     0.006669
      f0      :     0.000146  f :     0.001917
      f+1     :     0.000019
      f-1     :     0.000436
      f+2     :     0.000357
      f-2     :     0.000200
      f+3     :     0.000380
      f-3     :     0.000380

  3 O s       :     4.074867  s :     4.074867
      pz      :     1.745167  p :     4.532135
      px      :     1.359553
      py      :     1.427415
      dz2     :     0.002560  d :     0.030032
      dxz     :     0.003893
      dyz     :     0.000625
      dx2y2   :     0.012957
      dxy     :     0.009997
      f0      :     0.000212  f :     0.001916
      f+1     :     0.000243
      f-1     :     0.000133
      f+2     :     0.000106
      f-2     :     0.000284
      f+3     :     0.000542
      f-3     :     0.000398

  4 N s       :     3.628382  s :     3.628382
      pz      :     1.290433  p :     3.527195
      px      :     1.170404
      py      :     1.066358
      dz2     :     0.014923  d :     0.044428
      dxz     :     0.020709
      dyz     :    -0.002232
[...]
B( 12-C , 14-C ) :   0.1026 B( 12-C , 20-H ) :   1.0280 B( 12-C , 21-H ) :   1.0405 
B( 12-C , 22-H ) :   0.7068 B( 13-C , 23-H ) :   0.9393 B( 13-C , 24-H ) :   1.0688 
B( 13-C , 25-H ) :   0.8571 B( 15-C , 17-C ) :  -0.1233 

-------
TIMINGS
-------

Total SCF time: 0 days 0 hours 1 min 0 sec 

Total time                  ....      60.956 sec
Sum of individual times     ....      60.679 sec  ( 99.5%)

SCF preparation             ....       1.000 sec  (  1.6%)
Fock matrix formation       ....      56.507 sec  ( 92.7%)
  Startup                   ....       0.156 sec  (  0.3% of F)
  Split-RI-J                ....       2.474 sec  (  4.4% of F)
  Chain of spheres X        ....      46.806 sec  ( 82.8% of F)
  XC integration            ....       6.740 sec  ( 11.9% of F)
    XC Preparation          ....       0.000 sec  (  0.0% of XC)
    Basis function eval.    ....       0.437 sec  (  6.5% of XC)
    Density eval.           ....       2.434 sec  ( 36.1% of XC)
    XC-Functional eval.     ....       0.038 sec  (  0.6% of XC)
    XC-Potential eval.      ....       2.811 sec  ( 41.7% of XC)
Diagonalization             ....       0.000 sec  (  0.0%)
Density matrix formation    ....       0.350 sec  (  0.6%)
Total Energy calculation    ....       0.133 sec  (  0.2%)
Population analysis         ....       0.369 sec  (  0.6%)
Orbital Transformation      ....       0.390 sec  (  0.6%)
Orbital Orthonormalization  ....       0.000 sec  (  0.0%)
DIIS solution               ....       0.421 sec  (  0.7%)
SOSCF solution              ....       1.510 sec  (  2.5%)
Finished LeanSCF after  61.1 sec

Maximum memory used throughout the entire LEANSCF-calculation: 143.1 MB


-------------------------------------------------------------------------------
                          DFT DISPERSION CORRECTION                            
                                                                               
                              DFTD3 V3.1  Rev 1                                
                          USING Becke-Johnson damping                          
-------------------------------------------------------------------------------
The WB97M functional is recognized
Active option DFTDOPT                   ...         4   

molecular C6(AA) [au] = 9548.644306 


            DFT-D V3
 parameters
 s6 scaling factor         :     1.0000 
 a1 scaling factor         :     0.5660 
 s8 scaling factor         :     0.3908 
 a2 scaling factor         :     3.1280 
 ad hoc parameters k1-k3   :    16.0000     1.3333    -4.0000 

 Edisp/kcal,au: -37.315772195234  -0.059466461874 
 E6   /kcal   : -29.905845183 
 E8   /kcal   :  -7.409927012 
 % E8         :  19.857359440 

-------------------------   ----------------
Dispersion correction           -0.059466462
-------------------------   ----------------


-------------------------   --------------------
FINAL SINGLE POINT ENERGY      -908.749779753376
-------------------------   --------------------

                                *** OPTIMIZATION RUN DONE ***

[1738303941.452166] [ohm:531916:0]        ib_iface.c:1059 UCX  ERROR ibv_create_cq(cqe=256) failed: Connection timed out
[1738303941.452166] [ohm:531915:0]        ib_iface.c:1059 UCX  ERROR ibv_create_cq(cqe=256) failed: Connection timed out
[1738303941.452173] [ohm:531904:0]        ib_iface.c:1059 UCX  ERROR ibv_create_cq(cqe=256) failed: Connection timed out
[1738303941.456838] [ohm:531907:0]        ib_iface.c:1059 UCX  ERROR ibv_create_cq(cqe=256) failed: Connection timed out
[1738303941.457016] [ohm:531908:0]        ib_iface.c:1059 UCX  ERROR ibv_create_cq(cqe=256) failed: Connection timed out
[1738303941.457022] [ohm:531911:0]        ib_iface.c:1059 UCX  ERROR ibv_create_cq(cqe=256) failed: Connection timed out
[1738303941.457226] [ohm:531912:0]        ib_iface.c:1059 UCX  ERROR ibv_create_cq(cqe=256) failed: Connection timed out
[1738303941.485595] [ohm:531940:0]        ib_iface.c:1059 UCX  ERROR ibv_create_cq(cqe=256) failed: Connection timed out
[1738303941.485739] [ohm:531947:0]        ib_iface.c:1059 UCX  ERROR ibv_create_cq(cqe=256) failed: Connection timed out
[1738303941.509306] [ohm:531937:0]        ib_iface.c:1059 UCX  ERROR ibv_create_cq(cqe=256) failed: Connection timed out
[1738303941.509516] [ohm:531954:0]        ib_iface.c:1059 UCX  ERROR ibv_create_cq(cqe=256) failed: Connection timed out
[1738303941.509561] [ohm:531919:0]        ib_iface.c:1059 UCX  ERROR ibv_create_cq(cqe=256) failed: Connection timed out
[1738303941.510446] [ohm:531920:0]        ib_iface.c:1059 UCX  ERROR ibv_create_cq(cqe=256) failed: Connection timed out
[1738303941.517184] [ohm:531930:0]        ib_iface.c:1059 UCX  ERROR ibv_create_cq(cqe=256) failed: Connection timed out
[1738303941.517707] [ohm:531923:0]        ib_iface.c:1059 UCX  ERROR ibv_create_cq(cqe=256) failed: Connection timed out
[1738303941.519087] [ohm:531918:0]        ib_iface.c:1059 UCX  ERROR ibv_create_cq(cqe=256) failed: Connection timed out
[1738303941.519087] [ohm:531906:0]        ib_iface.c:1059 UCX  ERROR ibv_create_cq(cqe=256) failed: Connection timed out
[1738303941.520914] [ohm:531941:0]        ib_iface.c:1059 UCX  ERROR ibv_create_cq(cqe=256) failed: Connection timed out
[1738303941.527538] [ohm:531942:0]        ib_iface.c:1059 UCX  ERROR ibv_create_cq(cqe=256) failed: Connection timed out
[1738303941.528994] [ohm:531929:0]        ib_iface.c:1059 UCX  ERROR ibv_create_cq(cqe=256) failed: Connection timed out
[1738303941.528998] [ohm:531922:0]        ib_iface.c:1059 UCX  ERROR ibv_create_cq(cqe=256) failed: Connection timed out
[1738303941.529738] [ohm:531909:0]        ib_iface.c:1059 UCX  ERROR ibv_create_cq(cqe=256) failed: Connection timed out
[1738303941.529812] [ohm:531921:0]        ib_iface.c:1059 UCX  ERROR ibv_create_cq(cqe=256) failed: Connection timed out
[1738303941.529919] [ohm:531938:0]        ib_iface.c:1059 UCX  ERROR ibv_create_cq(cqe=256) failed: Connection timed out
[1738303941.530719] [ohm:531959:0]        ib_iface.c:1059 UCX  ERROR ibv_create_cq(cqe=256) failed: Connection timed out
[1738303941.530811] [ohm:531905:0]        ib_iface.c:1059 UCX  ERROR ibv_create_cq(cqe=256) failed: Connection timed out
[1738303941.530824] [ohm:531913:0]        ib_iface.c:1059 UCX  ERROR ibv_create_cq(cqe=256) failed: Connection timed out
[1738303941.530864] [ohm:531948:0]        ib_iface.c:1059 UCX  ERROR ibv_create_cq(cqe=256) failed: Connection timed out
[1738303941.530905] [ohm:531944:0]        ib_iface.c:1059 UCX  ERROR ibv_create_cq(cqe=256) failed: Connection timed out
[1738303941.531116] [ohm:531910:0]        ib_iface.c:1059 UCX  ERROR ibv_create_cq(cqe=256) failed: Connection timed out
[1738303941.531360] [ohm:531917:0]        ib_iface.c:1059 UCX  ERROR ibv_create_cq(cqe=256) failed: Connection timed out
[1738303941.533936] [ohm:531914:0]        ib_iface.c:1059 UCX  ERROR ibv_create_cq(cqe=256) failed: Connection timed out


           ************************************************************
           *        Program running with 32 parallel MPI-processes    *
           *              working on a common directory               *
           ************************************************************

------------------------------------------------------------------------------
                              ORCA PROPERTY CALCULATIONS
------------------------------------------------------------------------------

GBWName                                 ... orca.gbw
Number of atoms                         ...     30
Number of basis functions               ...    882
Max core memory                         ...   1024 MB

Electric properties:
Dipole moment                           ... YES
Quadrupole moment                       ...  NO
Static polarizability (Dipole/Dipole)   ...  NO
Static polarizability (Dipole/Quad.)    ...  NO
Static polarizability (Quad./Quad.)     ...  NO
Static polarizability (Velocity)        ...  NO

Atomic electric properties:
Dipole moment                           ...  NO
Quadrupole moment                       ...  NO
Static polarizability                   ...  NO

Choice of electric origin               ... Center of mass
Position of electric origin             ...     0.087900    -0.002623    -0.022018

General magnetic properties:
Magnetizability                         ...  NO

EPR properties:
g-Tensor (aka g-matrix)                 ...  NO
Zero-Field splitting spin-orbit         ...  NO
Zero-field splitting spin-spin          ...  NO
Hyperfine couplings                     ...  NO (   0 nuclei)
Quadrupole couplings                    ...  NO (   0 nuclei)
Contact density                         ...  NO (   0 nuclei)

NMR properties:
Chemical shifts                         ...  NO (   0 nuclei)
Spin-rotation constants                 ...  NO (   0 nuclei)
Spin-spin couplings                     ...  NO (   0 nuclei,    0 pairs)

Choice of magnetic origin               ... GIAO
Position of magnetic origin             ...     0.000000     0.000000     0.000000

Properties with geometric perturbations:
SCF Hessian                             ...  NO
IR spectrum                             ...  NO
VCD spectrum                            ...  NO
X-ray spectroscopy properties:
SCF XES/XAS/RIXS spectra                ...  NO


-------------
DIPOLE MOMENT
-------------

Method             : SCF
Type of density    : Electron Density
Multiplicity       :   1
Irrep              :   0
Energy             :  -908.6903132915023207 Eh
Relativity type    : 
Basis              : AO
                                X                 Y                 Z
Electronic contribution:     -1.020426986      -9.900356362      -7.235066741
Nuclear contribution   :      0.766571739      10.847916514       9.927575835
                        -----------------------------------------
Total Dipole Moment    :     -0.253855247       0.947560152       2.692509095
                        -----------------------------------------
Magnitude (a.u.)       :      2.865644422
Magnitude (Debye)      :      7.283889261



--------------------
Rotational spectrum 
--------------------
 
Rotational constants in cm-1:             0.022525             0.013611             0.011993 
Rotational constants in MHz :           675.268967           408.040923           359.552178 

Dipole components along the rotational axes: 
x,y,z [a.u.] :    -0.013724     1.621702     2.362586 
x,y,z [Debye]:    -0.034884     4.122039     6.005216 

 

Dipole moment calculation done in   0.1 sec 

Maximum memory used throughout the entire PROP-calculation: 76.6 MB
[1738303942.793387] [ohm:532081:0]        ib_iface.c:1059 UCX  ERROR ibv_create_cq(cqe=256) failed: Connection timed out
[1738303942.793373] [ohm:532084:0]        ib_iface.c:1059 UCX  ERROR ibv_create_cq(cqe=256) failed: Connection timed out
[1738303942.793378] [ohm:532088:0]        ib_iface.c:1059 UCX  ERROR ibv_create_cq(cqe=256) failed: Connection timed out
[1738303942.794351] [ohm:532077:0]        ib_iface.c:1059 UCX  ERROR ibv_create_cq(cqe=256) failed: Connection timed out
[1738303942.794375] [ohm:532080:0]        ib_iface.c:1059 UCX  ERROR ibv_create_cq(cqe=256) failed: Connection timed out
[1738303942.797588] [ohm:532073:0]        ib_iface.c:1059 UCX  ERROR ibv_create_cq(cqe=256) failed: Connection timed out
[1738303942.797666] [ohm:532075:0]        ib_iface.c:1059 UCX  ERROR ibv_create_cq(cqe=256) failed: Connection timed out
[1738303942.802534] [ohm:532085:0]        ib_iface.c:1059 UCX  ERROR ibv_create_cq(cqe=256) failed: Connection timed out
[1738303942.833025] [ohm:532074:0]        ib_iface.c:1059 UCX  ERROR ibv_create_cq(cqe=256) failed: Connection timed out
[1738303942.838163] [ohm:532091:0]        ib_iface.c:1059 UCX  ERROR ibv_create_cq(cqe=256) failed: Connection timed out
[1738303942.841531] [ohm:532086:0]        ib_iface.c:1059 UCX  ERROR ibv_create_cq(cqe=256) failed: Connection timed out
[1738303942.852784] [ohm:532092:0]        ib_iface.c:1059 UCX  ERROR ibv_create_cq(cqe=256) failed: Connection timed out
[1738303942.858525] [ohm:532116:0]        ib_iface.c:1059 UCX  ERROR ibv_create_cq(cqe=256) failed: Connection timed out
[1738303942.858525] [ohm:532099:0]        ib_iface.c:1059 UCX  ERROR ibv_create_cq(cqe=256) failed: Connection timed out
[1738303942.858526] [ohm:532110:0]        ib_iface.c:1059 UCX  ERROR ibv_create_cq(cqe=256) failed: Connection timed out
[1738303942.858761] [ohm:532093:0]        ib_iface.c:1059 UCX  ERROR ibv_create_cq(cqe=256) failed: Connection timed out
[1738303942.859890] [ohm:532094:0]        ib_iface.c:1059 UCX  ERROR ibv_create_cq(cqe=256) failed: Connection timed out
[1738303942.862297] [ohm:532123:0]        ib_iface.c:1059 UCX  ERROR ibv_create_cq(cqe=256) failed: Connection timed out
[1738303942.865078] [ohm:532072:0]        ib_iface.c:1059 UCX  ERROR ibv_create_cq(cqe=256) failed: Connection timed out
[1738303942.865994] [ohm:532078:0]        ib_iface.c:1059 UCX  ERROR ibv_create_cq(cqe=256) failed: Connection timed out
[1738303942.866800] [ohm:532100:0]        ib_iface.c:1059 UCX  ERROR ibv_create_cq(cqe=256) failed: Connection timed out
[1738303942.867583] [ohm:532089:0]        ib_iface.c:1059 UCX  ERROR ibv_create_cq(cqe=256) failed: Connection timed out
[1738303942.869536] [ohm:532083:0]        ib_iface.c:1059 UCX  ERROR ibv_create_cq(cqe=256) failed: Connection timed out
[1738303942.871678] [ohm:532087:0]        ib_iface.c:1059 UCX  ERROR ibv_create_cq(cqe=256) failed: Connection timed out
[1738303942.872157] [ohm:532090:0]        ib_iface.c:1059 UCX  ERROR ibv_create_cq(cqe=256) failed: Connection timed out
[1738303942.872706] [ohm:532079:0]        ib_iface.c:1059 UCX  ERROR ibv_create_cq(cqe=256) failed: Connection timed out
[1738303942.873152] [ohm:532076:0]        ib_iface.c:1059 UCX  ERROR ibv_create_cq(cqe=256) failed: Connection timed out
[1738303942.873921] [ohm:532119:0]        ib_iface.c:1059 UCX  ERROR ibv_create_cq(cqe=256) failed: Connection timed out
[1738303942.874194] [ohm:532107:0]        ib_iface.c:1059 UCX  ERROR ibv_create_cq(cqe=256) failed: Connection timed out
[1738303942.874380] [ohm:532104:0]        ib_iface.c:1059 UCX  ERROR ibv_create_cq(cqe=256) failed: Connection timed out
[1738303942.874382] [ohm:532082:0]        ib_iface.c:1059 UCX  ERROR ibv_create_cq(cqe=256) failed: Connection timed out
[1738303942.875282] [ohm:532095:0]        ib_iface.c:1059 UCX  ERROR ibv_create_cq(cqe=256) failed: Connection timed out

--------------------------------
SUGGESTED CITATIONS FOR THIS RUN
--------------------------------

Below you find a list of papers that are relevant to this ORCA run
We neither can nor want to force you to cite these papers, but we appreciate if you do
You receive ORCA, which is the product of decades of hard work by many enthusiastic individuals, for free
The only thing we kindly ask in return is that you cite our papers,
We deeply appreciate it, if you show your appreciation for ORCA by not just citing the generic ORCA reference.

Please note that relegating all ORCA citations to the supporting information does *not* help us.
SI sections are not indexed - citations you put there will not count into any citation statistics
But we need these citations in order to attract the funding resources that allow us to do what we are doing

Therefore, if you are a happy ORCA user, please consider citing a few of the papers listed below in the main body of your paper

In addition to the list printed below, the program has created the file orca.bibtex that contains the list in bibtex format
You can import this file easily into all common literature databanks and citation aid programs


List of essential papers. We consider these as the minimum necessary citations

  1. Neese,F.
     Software update: the ORCA program system, version 5.0
     WIRES Comput. Molec. Sci., 2022 12(1)e1606
     doi.org/10.1002/wcms.1606

List of papers to cite with high priority. The work reported in these papers was absolutely
necessary for this run to complete.
Our perspective: the developers of density functionals and basis sets usually get cited in chemistry papers
Good! But without the algorithms to do something with them, the functionals or basis sets would not do anything.
Hence, in our opinion, the algorithm design and method developments papers are equally worthy of getting cited

  1. Neese,F.
     An improvement of the resolution of the identity approximation for the formation of the Coulomb matrix
     J. Comp. Chem., 2003 24(14)1740-1747
     doi.org/10.1002/jcc.10318
  2. Neese,F.; Wennmohs,F.; Hansen,A.; Becker,U.
     Efficient, approximate and parallel Hartree-Fock and hybrid DFT calculations. A 'chain-of-spheres' algorithm for the Hartree-Fock exchange
     Chem. Phys., 2009 356(1-3)98-109
     doi.org/10.1016/j.chemphys.2008.10.036
  3. Helmich-Paris,B.; de Souza,B.; Neese,F.; Izsák,R.
     An improved chain of spheres for exchange algorithm
     J. Chem. Phys., 2021 155 104109
     doi.org/doi: 10.1063/5.0058766.
  4. Neese,F.
     The SHARK Integral Generation and Digestion System
     J. Comp. Chem., 2022  1-16
     doi.org/10.1002/jcc.26942
  5. Lehtola,S.; Steigemann,C.; Oliveira,M.; Marques,M.
     Recent developments in Libxc - A comprehensive library of functionals for density functional theory
     Software X, 2018 7 
     doi.org/10.1016/j.softx.2017.11.002
  6. Grimme,S.; Antony,J.; Ehrlich,S.; Krieg,H.
     A consistent and accurate ab initio parametrization of density functional dispersion correction (DFT-D) for the 94 elements H-Pu
     J. Chem. Phys., 2010 132 154104-XXXX
     doi.org/10.1063/1.3382344
  7. Grimme,S.; Ehrlich,S.; Goerigk,L.
     Effect of the damping function in dispersion corrected density functional theory
     J. Comput. Chem., 2011 32(7)1456-1465
     doi.org/10.1002/jcc.21759

List of suggested additional citations. These are papers that are important in the 'surrounding' of 
of this run, or papers that preceded the highly important papers. If you like your results we are grateful for a citation.

  1. Izsak,R.; Neese,F.
     An overlap fitted chain of spheres exchange method
     J. Chem. Phys., 2011 135 144105
     doi.org/10.1063/1.3646921
  2. Izsak,R.; Hansen,A.; Neese,F.
     The resolution of identity and chain of spheres approximations for the LPNO-CCSD singles Fock term
     Molec. Phys., 2012 110 2413-2417
     doi.org/10.1080/00268976.2012.687466
  3. Neese,F.
     The ORCA program system
     WIRES Comput. Molec. Sci., 2012 2(1)73-78
     doi.org/10.1002/wcms.81
  4. Izsak,R.; Neese,F.; Klopper,W.
     Robust fitting techniques in the chain of spheres approximation to the Fock exchange: The role of the complementary space
     J. Chem. Phys., 2013 139 
     doi.org/10.1063/1.4819264
  5. Neese,F.
     Software update: the ORCA program system, version 4.0
     WIRES Comput. Molec. Sci., 2018 8(1)1-6
     doi.org/10.1002/wcms.1327
  6. Neese,F.; Wennmohs,F.; Becker,U.; Riplinger,C.
     The ORCA quantum chemistry program package
     J. Chem. Phys., 2020 152 Art. No. L224108
     doi.org/10.1063/5.0004608

List of optional additional citations

  1. Neese,F.
     Approximate second-order SCF convergence for spin unrestricted wavefunctions
     Chem. Phys. Lett., 2000 325(1-3)93-98
     doi.org/10.1016/s0009-2614(00)00662-x

Timings for individual modules:

Sum of individual times          ...     4938.945 sec (=  82.316 min)
Startup calculation              ...      143.067 sec (=   2.384 min)   2.9 %
SCF iterations                   ...     3437.284 sec (=  57.288 min)  69.6 %
Property calculations            ...        1.359 sec (=   0.023 min)   0.0 %
SCF Gradient evaluation          ...     1356.556 sec (=  22.609 min)  27.5 %
Geometry relaxation              ...        0.679 sec (=   0.011 min)   0.0 %
                             ****ORCA TERMINATED NORMALLY****
TOTAL RUN TIME: 0 days 1 hours 22 minutes 49 seconds 43 msec
