
                                 *****************
                                 * O   R   C   A *
                                 *****************

                                            #,                                       
                                            ###                                      
                                            ####                                     
                                            #####                                    
                                            ######                                   
                                           ########,                                 
                                     ,,################,,,,,                         
                               ,,#################################,,                 
                          ,,##########################################,,             
                       ,#########################################, ''#####,          
                    ,#############################################,,   '####,        
                  ,##################################################,,,,####,       
                ,###########''''           ''''###############################       
              ,#####''   ,,,,##########,,,,          '''####'''          '####       
            ,##' ,,,,###########################,,,                        '##       
           ' ,,###''''                  '''############,,,                           
         ,,##''                                '''############,,,,        ,,,,,,###''
      ,#''                                            '''#######################'''  
     '                                                          ''''####''''         
             ,#######,   #######,   ,#######,      ##                                
            ,#'     '#,  ##    ##  ,#'     '#,    #''#        ,####,   ,####,        
            ##       ##  ##   ,#'  ##            #'  '#       #'       #'  '#        
            ##       ##  #######   ##           ,######,      #####,   #    #        
            '#,     ,#'  ##    ##  '#,     ,#' ,#      #,     #,   #   #,  ,#        
             '#######'   ##     ##  '#######'  #'      '#     '####' # '####'        



                #########################################################
                #                        -***-                          #
                #          Department of theory and spectroscopy        #
                #                                                       #
                #                      Frank Neese                      #
                #                                                       #
                #     Directorship, Architecture, Infrastructure        #
                #                    SHARK, DRIVERS                     #
                #        Core code/Algorithms in most modules           #
                #                                                       #
                #        Max Planck Institute fuer Kohlenforschung      #
                #                Kaiser Wilhelm Platz 1                 #
                #                 D-45470 Muelheim/Ruhr                 #
                #                      Germany                          #
                #                                                       #
                #                  All rights reserved                  #
                #                        -***-                          #
                #########################################################


                         Program Version 6.0.0  -   RELEASE  -


 With contributions from (in alphabetic order):
   Daniel Aravena         : Magnetic Suceptibility
   Michael Atanasov       : Ab Initio Ligand Field Theory (pilot matlab implementation)
   Alexander A. Auer      : GIAO ZORA, VPT2 properties, NMR spectrum
   Ute Becker             : All parallelization in ORCA, NUMFREQ, NUMCALC
   Giovanni Bistoni       : ED, misc. LED, open-shell LED, HFLD
   Martin Brehm           : Molecular dynamics
   Dmytro Bykov           : pre 5.0 version of the SCF Hessian
   Marcos Casanova-Páez   : Triplet and SCS-CIS(D). UHF-(DLPNO)-IP/EA/STEOM-CCSD. UHF-CVS-IP/STEOM-CCSD
   Vijay G. Chilkuri      : MRCI spin determinant printing, contributions to CSF-ICE
   Pauline Colinet        : FMM embedding
   Dipayan Datta          : RHF DLPNO-CCSD density
   Achintya Kumar Dutta   : EOM-CC, STEOM-CC
   Nicolas Foglia         : Exact transition moments, OPA infrastructure, MCD improvements
   Dmitry Ganyushin       : Spin-Orbit,Spin-Spin,Magnetic field MRCI
   Miquel Garcia          : C-PCM and meta-GGA Hessian, CCSD/C-PCM, Gaussian charge scheme
   Tiago L. C. Gouveia    : GS-ROHF, GS-ROCIS
   Yang Guo               : DLPNO-NEVPT2, F12-NEVPT2, CIM, IAO-localization
   Andreas Hansen         : Spin unrestricted coupled pair/coupled cluster methods
   Ingolf Harden          : AUTO-CI MPn and infrastructure 
   Benjamin Helmich-Paris : MC-RPA, TRAH-(SCF,CASSCF), AVAS, COSX integrals, SCF dyn. polar.
   Lee Huntington         : MR-EOM, pCC
   Robert Izsak           : Overlap fitted RIJCOSX, COSX-SCS-MP3, EOM
   Riya Kayal             : Wick's Theorem for AUTO-CI, AUTO-CI UHF-CCSDT
   Emily Kempfer          : AUTO-CI, RHF CISDT and CCSDT
   Christian Kollmar      : KDIIS, OOCD, Brueckner-CCSD(T), CCSD density, CASPT2, CASPT2-K, improved NEVPT2
   Axel Koslowski         : Symmetry handling
   Simone Kossmann        : Meta GGA functionals, TD-DFT gradient, OOMP2, (MP2 Hessian; deprecated post 5.0)
   Lucas Lang             : DCDCAS
   Marvin Lechner         : AUTO-CI (C++ implementation), FIC-MRCC
   Spencer Leger          : CASSCF response
   Dagmar Lenk            : GEPOL surface, SMD, ORCA-2-JSON
   Dimitrios Liakos       : Extrapolation schemes; Compound Job, initial MDCI parallelization
   Dimitrios Manganas     : Further ROCIS development; embedding schemes. LFT, Crystal Embedding
   Dimitrios Pantazis     : SARC Basis sets
   Anastasios Papadopoulos: AUTO-CI, single reference methods and gradients
   Taras Petrenko         : pre 6.0 DFT Hessian and TD-DFT gradient, (ASA, deprecated), ECA, 1-Electron XAS/XES, NRVS
   Peter Pinski           : DLPNO-MP2, DLPNO-MP2 Gradient
   Christoph Reimann      : Effective Core Potentials
   Marius Retegan         : Local ZFS, SOC
   Christoph Riplinger    : Optimizer, TS searches, QM/MM, DLPNO-CCSD(T), (RO)-DLPNO pert. Triples
   Michael Roemelt        : Original ROCIS implementation
   Masaaki Saitow         : Open-shell DLPNO-CCSD energy and density
   Barbara Sandhoefer     : DKH picture change effects
   Kantharuban Sivalingam : CASSCF convergence/infrastructure, NEVPT2 and variants, FIC-MRCI
   Bernardo de Souza      : ESD, SOC TD-DFT
   Georgi Stoychev        : AutoAux, RI-MP2 NMR, DLPNO-MP2 response, X2C
   Van Anh Tran           : RI-MP2 g-tensors
   Willem Van den Heuvel  : Paramagnetic NMR
   Zikuan Wang            : NOTCH, Electric field optimization 
   Frank Wennmohs         : Technical directorship and infrastructure
   Hang Xu                : AUTO-CI-Response properties 


 We gratefully acknowledge several colleagues who have allowed us to
 interface, adapt or use parts of their codes:
   Stefan Grimme, W. Hujo, H. Kruse, P. Pracht,  : VdW corrections, initial TS optimization,
                  C. Bannwarth, S. Ehlert,         DFT functionals, gCP, sTDA/sTD-DF
                  L. Wittmann, M. Mueller
   Ed Valeev, F. Pavosevic, A. Kumar             : LibInt (2-el integral package), F12 methods
   Garnet Chan, S. Sharma, J. Yang, R. Olivares  : DMRG
   Ulf Ekstrom                                   : XCFun DFT Library
   Mihaly Kallay                                 : mrcc  (arbitrary order and MRCC methods)
   Frank Weinhold                                : gennbo (NPA and NBO analysis)
   Simon Mueller                                 : openCOSMO-RS
   Christopher J. Cramer and Donald G. Truhlar   : smd solvation model
   Lars Goerigk                                  : TD-DFT with DH, B97 family of functionals
   V. Asgeirsson, H. Jonsson                     : NEB implementation
   FAccTs GmbH                                   : IRC, NEB, NEB-TS, DLPNO-Multilevel, CI-OPT
                                                   MM, QMMM, 2- and 3-layer-ONIOM, Crystal-QMMM,
                                                   LR-CPCM, SF, NACMEs, symmetry and pop. for TD-DFT,
                                                   nearIR, NL-DFT gradient (VV10), updates on ESD,
                                                   ML-optimized integration grids, MBIS, APM,
                                                   GOAT, DOCKER, SOLVATOR, interface openCOSMO-RS
   S Lehtola, MJT Oliveira, MAL Marques          : LibXC Library
   Liviu Ungur et al                             : ANISO software


 Your calculation uses the libint2 library for the computation of 2-el integrals
 For citations please refer to: http://libint.valeyev.net

 Your ORCA version has been built with support for libXC version: 6.2.2
 For citations please refer to: https://libxc.gitlab.io

 This ORCA versions uses:
   CBLAS   interface :  Fast vector & matrix operations
   LAPACKE interface :  Fast linear algebra routines
   SCALAPACK package :  Parallel linear algebra routines
   Shared memory     :  Shared parallel matrices
   BLAS/LAPACK       :  OpenBLAS 0.3.27  USE64BITINT DYNAMIC_ARCH NO_AFFINITY Zen SINGLE_THREADED
        Core in use  :  Zen
   Copyright (c) 2011-2014, The OpenBLAS Project


Your calculation utilizes the atom-pairwise dispersion correction
with the Becke-Johnson damping scheme (D3BJ)


Warning: RI is on but no J-basis has been assigned. Assigning Def2/J (nothing to worry about!)
================================================================================

----- Orbital basis set information -----
Your calculation utilizes the basis: def2-TZVPPD
   F. Weigend and R. Ahlrichs, Phys. Chem. Chem. Phys. 7, 3297 (2005).
   D. Rappoport and F. Furche, J. Chem. Phys. 133, 134105 (2010)
   D. Rappoport, J. Chem. Phys. 155, 124102 (2021).

----- AuxJ basis set information -----
Your calculation utilizes the auxiliary basis: def2/J
   F. Weigend, Phys. Chem. Chem. Phys. 8, 1057 (2006).

================================================================================
                                        WARNINGS
                       Please study these warnings very carefully!
================================================================================

Using LibXC functional ID 531 : wB97M-V exchange-correlation functional
[ 1]  N. Mardirossian and M. Head-Gordon.,  J. Chem. Phys. 144, 214110 (2016)
Using LibXC functional ID 531 : wB97M-V exchange-correlation functional
[ 1]  N. Mardirossian and M. Head-Gordon.,  J. Chem. Phys. 144, 214110 (2016)

WARNING: B97M-V or wB97M-V functional requested.
  ===> : libXC variant has now been activated.
         Any manually given DFX/HFX/RangeSep scaling parameters are IGNORED!

Your calculation utilizes LibXC
 by S Lehtola, C Steigemann, MJT Oliveira & MAL Marques
Please cite in your paper:
 S Lehtola, C Steigemann, MJT Oliveira & MAL Marques, SoftwareX, 7, (2018), 1.
   


WARNING: your system is open-shell and RHF/RKS was chosen
  ===> : WILL SWITCH to UHF/UKS

INFO   : Checking CIS options ...

WARNING: CIS/ROCIS methods need fully converged wavefunctions
  ===> : Setting SCFConvForced true
         You can overwrite this default with %scf ConvForced false 


================================================================================
                                       INPUT FILE
================================================================================
NAME = orca.inp
|  1> ! Engrad def2-TZVPPD wB97M-D3BJ 
|  2> %pal nprocs 8 end%pal nprocs 64 end 
|  3> %tddft 
|  4>  Iroot 1 Nroots 3 
|  5> sf true 
|  6> end 
|  7> *xyz 0 3 
|  8> O   0.65459883 0.95522349 -0.62493581
|  9> C   0.87976728 -0.11552208 0.22028219
| 10> C   -0.36878182 -0.71923497 0.68276207
| 11> H   1.47820356 0.35664373 1.00300088
| 12> H   1.3063948 -0.94093595 -0.29394713
| 13> H   -0.61736171 -0.34686537 1.61028689
| 14> H   -1.07146365 -1.32470898 -0.02507111
| 15> *
| 16> 
| 17>                          ****END OF INPUT****
================================================================================

                     *******************************
                     * Energy+Gradient Calculation *
                     *******************************

---------------------------------
CARTESIAN COORDINATES (ANGSTROEM)
---------------------------------
  O      0.654599    0.955223   -0.624936
  C      0.879767   -0.115522    0.220282
  C     -0.368782   -0.719235    0.682762
  H      1.478204    0.356644    1.003001
  H      1.306395   -0.940936   -0.293947
  H     -0.617362   -0.346865    1.610287
  H     -1.071464   -1.324709   -0.025071

----------------------------
CARTESIAN COORDINATES (A.U.)
----------------------------
  NO LB      ZA    FRAG     MASS         X           Y           Z
   0 O     8.0000    0    15.999    1.237013    1.805111   -1.180958
   1 C     6.0000    0    12.011    1.662519   -0.218305    0.416273
   2 C     6.0000    0    12.011   -0.696897   -1.359157    1.290233
   3 H     1.0000    0     1.008    2.793400    0.673959    1.895397
   4 H     1.0000    0     1.008    2.468728   -1.778111   -0.555480
   5 H     1.0000    0     1.008   -1.166645   -0.655481    3.043001
   6 H     1.0000    0     1.008   -2.024773   -2.503337   -0.047378

--------------------------------
INTERNAL COORDINATES (ANGSTROEM)
--------------------------------
 O      0   0   0     0.000000000000     0.00000000     0.00000000
 C      1   0   0     1.382602753532     0.00000000     0.00000000
 C      2   1   0     1.461927408618   111.96962050     0.00000000
 H      2   1   3     1.092572689128   101.09709787   237.30135303
 H      2   1   3     1.061956162540   111.79872156   111.40392208
 H      3   2   1     1.029928819110   109.98170324   263.18694111
 H      3   2   1     1.166785473730   122.46037205    69.98214102

---------------------------
INTERNAL COORDINATES (A.U.)
---------------------------
 O      0   0   0     0.000000000000     0.00000000     0.00000000
 C      1   0   0     2.612740556181     0.00000000     0.00000000
 C      2   1   0     2.762642429961   111.96962050     0.00000000
 H      2   1   3     2.064663163854   101.09709787   237.30135303
 H      2   1   3     2.006806313431   111.79872156   111.40392208
 H      3   2   1     1.946283405550   109.98170324   263.18694111
 H      3   2   1     2.204905002387   122.46037205    69.98214102

---------------------
BASIS SET INFORMATION
---------------------
There are 3 groups of distinct atoms

 Group   1 Type O   : 12s7p3d1f contracted to 6s4p3d1f pattern {621111/4111/111/1}
 Group   2 Type C   : 12s6p3d1f contracted to 6s3p3d1f pattern {621111/411/111/1}
 Group   3 Type H   : 5s3p1d contracted to 3s3p1d pattern {311/111/1}

Atom   0O    basis set group =>   1
Atom   1C    basis set group =>   2
Atom   2C    basis set group =>   2
Atom   3H    basis set group =>   3
Atom   4H    basis set group =>   3
Atom   5H    basis set group =>   3
Atom   6H    basis set group =>   3
---------------------------------
AUXILIARY/J BASIS SET INFORMATION
---------------------------------
There are 3 groups of distinct atoms

 Group   1 Type O   : 12s5p4d2f1g contracted to 6s4p3d1f1g pattern {711111/2111/211/2/1}
 Group   2 Type C   : 12s5p4d2f1g contracted to 6s4p3d1f1g pattern {711111/2111/211/2/1}
 Group   3 Type H   : 5s2p1d contracted to 3s1p1d pattern {311/2/1}

Atom   0O    basis set group =>   1
Atom   1C    basis set group =>   2
Atom   2C    basis set group =>   2
Atom   3H    basis set group =>   3
Atom   4H    basis set group =>   3
Atom   5H    basis set group =>   3
Atom   6H    basis set group =>   3
[1741606774.478771] [ohm:3075458:0]        ib_iface.c:1059 UCX  ERROR ibv_create_cq(cqe=256) failed: Connection timed out
[1741606774.489795] [ohm:3075459:0]        ib_iface.c:1059 UCX  ERROR ibv_create_cq(cqe=256) failed: Connection timed out
[1741606774.503563] [ohm:3075460:0]        ib_iface.c:1059 UCX  ERROR ibv_create_cq(cqe=256) failed: Connection timed out
[1741606774.504357] [ohm:3075486:0]        ib_iface.c:1059 UCX  ERROR ibv_create_cq(cqe=256) failed: Connection timed out
[1741606774.511723] [ohm:3075461:0]        ib_iface.c:1059 UCX  ERROR ibv_create_cq(cqe=256) failed: Connection timed out
[1741606774.511884] [ohm:3075457:0]        ib_iface.c:1059 UCX  ERROR ibv_create_cq(cqe=256) failed: Connection timed out
[1741606774.511901] [ohm:3075463:0]        ib_iface.c:1059 UCX  ERROR ibv_create_cq(cqe=256) failed: Connection timed out
[1741606774.513484] [ohm:3075462:0]        ib_iface.c:1059 UCX  ERROR ibv_create_cq(cqe=256) failed: Connection timed out
[1741606774.514410] [ohm:3075464:0]        ib_iface.c:1059 UCX  ERROR ibv_create_cq(cqe=256) failed: Connection timed out
[1741606774.514987] [ohm:3075456:0]        ib_iface.c:1059 UCX  ERROR ibv_create_cq(cqe=256) failed: Connection timed out
[1741606774.516636] [ohm:3075492:0]        ib_iface.c:1059 UCX  ERROR ibv_create_cq(cqe=256) failed: Connection timed out
[1741606774.547343] [ohm:3075487:0]        ib_iface.c:1059 UCX  ERROR ibv_create_cq(cqe=256) failed: Connection timed out
[1741606774.553607] [ohm:3075465:0]        ib_iface.c:1059 UCX  ERROR ibv_create_cq(cqe=256) failed: Connection timed out
[1741606774.569402] [ohm:3075466:0]        ib_iface.c:1059 UCX  ERROR ibv_create_cq(cqe=256) failed: Connection timed out
[1741606774.573702] [ohm:3075468:0]        ib_iface.c:1059 UCX  ERROR ibv_create_cq(cqe=256) failed: Connection timed out
[1741606774.573684] [ohm:3075491:0]        ib_iface.c:1059 UCX  ERROR ibv_create_cq(cqe=256) failed: Connection timed out
[1741606774.588385] [ohm:3075467:0]        ib_iface.c:1059 UCX  ERROR ibv_create_cq(cqe=256) failed: Connection timed out
[1741606774.588816] [ohm:3075537:0]        ib_iface.c:1059 UCX  ERROR ibv_create_cq(cqe=256) failed: Connection timed out
[1741606774.589316] [ohm:3075499:0]        ib_iface.c:1059 UCX  ERROR ibv_create_cq(cqe=256) failed: Connection timed out
[1741606774.590945] [ohm:3075503:0]        ib_iface.c:1059 UCX  ERROR ibv_create_cq(cqe=256) failed: Connection timed out
[1741606774.615776] [ohm:3075454:0]        ib_iface.c:1059 UCX  ERROR ibv_create_cq(cqe=256) failed: Connection timed out
[1741606774.640109] [ohm:3075519:0]        ib_iface.c:1059 UCX  ERROR ibv_create_cq(cqe=256) failed: Connection timed out
[1741606774.645415] [ohm:3075570:0]        ib_iface.c:1059 UCX  ERROR ibv_create_cq(cqe=256) failed: Connection timed out
[1741606774.645554] [ohm:3075515:0]        ib_iface.c:1059 UCX  ERROR ibv_create_cq(cqe=256) failed: Connection timed out
[1741606774.653367] [ohm:3075522:0]        ib_iface.c:1059 UCX  ERROR ibv_create_cq(cqe=256) failed: Connection timed out
[1741606774.655887] [ohm:3075547:0]        ib_iface.c:1059 UCX  ERROR ibv_create_cq(cqe=256) failed: Connection timed out
[1741606774.660467] [ohm:3075469:0]        ib_iface.c:1059 UCX  ERROR ibv_create_cq(cqe=256) failed: Connection timed out
[1741606774.660881] [ohm:3075578:0]        ib_iface.c:1059 UCX  ERROR ibv_create_cq(cqe=256) failed: Connection timed out
[1741606774.666182] [ohm:3075532:0]        ib_iface.c:1059 UCX  ERROR ibv_create_cq(cqe=256) failed: Connection timed out
[1741606774.666510] [ohm:3075521:0]        ib_iface.c:1059 UCX  ERROR ibv_create_cq(cqe=256) failed: Connection timed out
[1741606774.675132] [ohm:3075516:0]        ib_iface.c:1059 UCX  ERROR ibv_create_cq(cqe=256) failed: Connection timed out
[1741606774.676298] [ohm:3075513:0]        ib_iface.c:1059 UCX  ERROR ibv_create_cq(cqe=256) failed: Connection timed out
[1741606774.683763] [ohm:3075514:0]        ib_iface.c:1059 UCX  ERROR ibv_create_cq(cqe=256) failed: Connection timed out
[1741606774.683776] [ohm:3075520:0]        ib_iface.c:1059 UCX  ERROR ibv_create_cq(cqe=256) failed: Connection timed out
[1741606774.702491] [ohm:3075571:0]        ib_iface.c:1059 UCX  ERROR ibv_create_cq(cqe=256) failed: Connection timed out
[1741606774.704148] [ohm:3075523:0]        ib_iface.c:1059 UCX  ERROR ibv_create_cq(cqe=256) failed: Connection timed out
[1741606774.704263] [ohm:3075517:0]        ib_iface.c:1059 UCX  ERROR ibv_create_cq(cqe=256) failed: Connection timed out
[1741606774.705334] [ohm:3075589:0]        ib_iface.c:1059 UCX  ERROR ibv_create_cq(cqe=256) failed: Connection timed out
[1741606774.706391] [ohm:3075508:0]        ib_iface.c:1059 UCX  ERROR ibv_create_cq(cqe=256) failed: Connection timed out
[1741606774.709731] [ohm:3075575:0]        ib_iface.c:1059 UCX  ERROR ibv_create_cq(cqe=256) failed: Connection timed out
[1741606774.715819] [ohm:3075518:0]        ib_iface.c:1059 UCX  ERROR ibv_create_cq(cqe=256) failed: Connection timed out
[1741606774.717738] [ohm:3075489:0]        ib_iface.c:1059 UCX  ERROR ibv_create_cq(cqe=256) failed: Connection timed out
[1741606774.717922] [ohm:3075510:0]        ib_iface.c:1059 UCX  ERROR ibv_create_cq(cqe=256) failed: Connection timed out
[1741606774.720623] [ohm:3075584:0]        ib_iface.c:1059 UCX  ERROR ibv_create_cq(cqe=256) failed: Connection timed out
[1741606774.722453] [ohm:3075524:0]        ib_iface.c:1059 UCX  ERROR ibv_create_cq(cqe=256) failed: Connection timed out
[1741606774.725088] [ohm:3075601:0]        ib_iface.c:1059 UCX  ERROR ibv_create_cq(cqe=256) failed: Connection timed out
[1741606774.734603] [ohm:3075596:0]        ib_iface.c:1059 UCX  ERROR ibv_create_cq(cqe=256) failed: Connection timed out
[1741606774.744659] [ohm:3075557:0]        ib_iface.c:1059 UCX  ERROR ibv_create_cq(cqe=256) failed: Connection timed out
[1741606774.753954] [ohm:3075488:0]        ib_iface.c:1059 UCX  ERROR ibv_create_cq(cqe=256) failed: Connection timed out
[1741606774.759614] [ohm:3075591:0]        ib_iface.c:1059 UCX  ERROR ibv_create_cq(cqe=256) failed: Connection timed out
[1741606774.760915] [ohm:3075541:0]        ib_iface.c:1059 UCX  ERROR ibv_create_cq(cqe=256) failed: Connection timed out
[1741606774.767142] [ohm:3075580:0]        ib_iface.c:1059 UCX  ERROR ibv_create_cq(cqe=256) failed: Connection timed out
[1741606774.767540] [ohm:3075602:0]        ib_iface.c:1059 UCX  ERROR ibv_create_cq(cqe=256) failed: Connection timed out
[1741606774.768739] [ohm:3075545:0]        ib_iface.c:1059 UCX  ERROR ibv_create_cq(cqe=256) failed: Connection timed out
[1741606774.769726] [ohm:3075567:0]        ib_iface.c:1059 UCX  ERROR ibv_create_cq(cqe=256) failed: Connection timed out
[1741606774.772744] [ohm:3075565:0]        ib_iface.c:1059 UCX  ERROR ibv_create_cq(cqe=256) failed: Connection timed out
[1741606774.772772] [ohm:3075597:0]        ib_iface.c:1059 UCX  ERROR ibv_create_cq(cqe=256) failed: Connection timed out
[1741606774.773172] [ohm:3075562:0]        ib_iface.c:1059 UCX  ERROR ibv_create_cq(cqe=256) failed: Connection timed out
[1741606774.775574] [ohm:3075495:0]        ib_iface.c:1059 UCX  ERROR ibv_create_cq(cqe=256) failed: Connection timed out
[1741606774.776710] [ohm:3075527:0]        ib_iface.c:1059 UCX  ERROR ibv_create_cq(cqe=256) failed: Connection timed out
[1741606774.777121] [ohm:3075553:0]        ib_iface.c:1059 UCX  ERROR ibv_create_cq(cqe=256) failed: Connection timed out
[1741606774.777514] [ohm:3075550:0]        ib_iface.c:1059 UCX  ERROR ibv_create_cq(cqe=256) failed: Connection timed out
[1741606774.779390] [ohm:3075455:0]        ib_iface.c:1059 UCX  ERROR ibv_create_cq(cqe=256) failed: Connection timed out
[1741606774.780419] [ohm:3075525:0]        ib_iface.c:1059 UCX  ERROR ibv_create_cq(cqe=256) failed: Connection timed out


           ************************************************************
           *        Program running with 64 parallel MPI-processes    *
           *              working on a common directory               *
           ************************************************************
------------------------------------------------------------------------------
                             ORCA STARTUP CALCULATIONS
                           -- RI-GTO INTEGRALS CHOSEN --
------------------------------------------------------------------------------
------------------------------------------------------------------------------
                   ___                                                        
                  /   \      - P O W E R E D   B Y -                         
                 /     \                                                     
                 |  |  |   _    _      __       _____    __    __             
                 |  |  |  | |  | |    /  \     |  _  \  |  |  /  |          
                  \  \/   | |  | |   /    \    | | | |  |  | /  /          
                 / \  \   | |__| |  /  /\  \   | |_| |  |  |/  /          
                |  |  |   |  __  | /  /__\  \  |    /   |      \           
                |  |  |   | |  | | |   __   |  |    \   |  |\   \          
                \     /   | |  | | |  |  |  |  | |\  \  |  | \   \       
                 \___/    |_|  |_| |__|  |__|  |_| \__\ |__|  \__/        
                                                                              
                      - O R C A' S   B I G   F R I E N D -                    
                                      &                                       
                       - I N T E G R A L  F E E D E R -                       
                                                                              
 v1 FN, 2020, v2 2021, v3 2022-2024                                           
------------------------------------------------------------------------------


----------------------
SHARK INTEGRAL PACKAGE
----------------------

Number of atoms                             ...      7
Number of basis functions                   ...    182
Number of shells                            ...     68
Maximum angular momentum                    ...      3
Integral batch strategy                     ... SHARK/LIBINT Hybrid
RI-J (if used) integral strategy            ... SPLIT-RIJ (Revised 2003 algorithm where possible)
Printlevel                                  ...      1
Contraction scheme used                     ... SEGMENTED contraction
Prescreening option                         ... SCHWARTZ
   Thresh                                   ... 2.500e-11
   Tcut                                     ... 2.500e-12
   Tpresel                                  ... 2.500e-12 
Coulomb Range Separation                    ... NOT USED
Exchange Range Separation                   ... Long Range
   Mu parameter                             ... 3.000e-01
   Scaling (regular/separated)              ... 1.500e-01 8.500e-01
Multipole approximations                    ... NOT USED
Finite Nucleus Model                        ... NOT USED
CABS basis                                  ... NOT available
Auxiliary Coulomb fitting basis             ... AVAILABLE
   # of basis functions in Aux-J            ...    191
   # of shells in Aux-J                     ...     65
   Maximum angular momentum in Aux-J        ...      4
Auxiliary J/K fitting basis                 ... NOT available
Auxiliary Correlation fitting basis         ... NOT available
Auxiliary 'external' fitting basis          ... NOT available

Checking pre-screening integrals            ... done (  0.0 sec) Dimension = 68
Check shell pair data                       ... done (  0.0 sec)
Shell pair information
Shell pair cut-off parameter TPreSel        ...   2.5e-12
Total number of shell pairs                 ...      2346
Shell pairs after pre-screening             ...      2328
Total number of primitive shell pairs       ...      5434
Primitive shell pairs kept                  ...      4822
          la=0 lb=0:    454 shell pairs
          la=1 lb=0:    656 shell pairs
          la=1 lb=1:    253 shell pairs
          la=2 lb=0:    387 shell pairs
          la=2 lb=1:    286 shell pairs
          la=2 lb=2:     91 shell pairs
          la=3 lb=0:     90 shell pairs
          la=3 lb=1:     66 shell pairs
          la=3 lb=2:     39 shell pairs
          la=3 lb=3:      6 shell pairs

Calculating one electron integrals          ... done (  0.0 sec)
Calculating RI/J V-Matrix + Cholesky decomp.... done (  0.0 sec)
Calculating Nuclear repulsion               ... done (  0.0 sec) ENN=     68.456006805093 Eh

Diagonalization of the overlap matrix:
Smallest eigenvalue                        ... 1.739e-05
Time for diagonalization                   ...    0.003 sec
Threshold for overlap eigenvalues          ... 1.000e-07
Number of eigenvalues below threshold      ... 0
Time for construction of square roots      ...    0.004 sec
Total time needed                          ...    0.009 sec

-------------------
DFT GRID GENERATION
-------------------

General Integration Accuracy     IntAcc      ... 4.388
Radial Grid Type                 RadialGrid  ... OptM3 with GC (2021)
Angular Grid (max. ang.)         AngularGrid ... 4 (Lebedev-302)
Angular grid pruning method      GridPruning ... 4 (adaptive)
Weight generation scheme         WeightScheme... mBecke (2022)
Basis function cutoff            BFCut       ... 1.0000e-11
Integration weight cutoff        WCut        ... 1.0000e-14
Partially contracted basis set               ... off
Rotationally invariant grid construction     ... off
Angular grids for H and He will be reduced by one unit
Diffuse basis detected: some atoms will have their outermost
                        angular grid increased by 1.

Total number of grid points                  ...    33155
Total number of batches                      ...      522
Average number of points per batch           ...       63
Average number of grid points per atom       ...     4736

--------------------
COSX GRID GENERATION
--------------------

GRIDX 1
-------
General Integration Accuracy     IntAcc      ... 3.816
Radial Grid Type                 RadialGrid  ... OptM3 with GC (2021)
Angular Grid (max. ang.)         AngularGrid ... 1 (Lebedev-50)
Angular grid pruning method      GridPruning ... 4 (adaptive)
Weight generation scheme         WeightScheme... mBecke (2022)
Basis function cutoff            BFCut       ... 1.0000e-11
Integration weight cutoff        WCut        ... 1.0000e-14
Partially contracted basis set               ... on
Rotationally invariant grid construction     ... off
Angular grids for H and He will be reduced by one unit
Diffuse basis detected: some atoms will have their outermost
                        angular grid increased by 1.

Total number of grid points                  ...     4166
Total number of batches                      ...       36
Average number of points per batch           ...      115
Average number of grid points per atom       ...      595
UseSFitting                                  ... on

GRIDX 2
-------
General Integration Accuracy     IntAcc      ... 4.020
Radial Grid Type                 RadialGrid  ... OptM3 with GC (2021)
Angular Grid (max. ang.)         AngularGrid ... 2 (Lebedev-110)
Angular grid pruning method      GridPruning ... 4 (adaptive)
Weight generation scheme         WeightScheme... mBecke (2022)
Basis function cutoff            BFCut       ... 1.0000e-11
Integration weight cutoff        WCut        ... 1.0000e-14
Partially contracted basis set               ... on
Rotationally invariant grid construction     ... off
Angular grids for H and He will be reduced by one unit
Diffuse basis detected: some atoms will have their outermost
                        angular grid increased by 1.

Total number of grid points                  ...    10272
Total number of batches                      ...       84
Average number of points per batch           ...      122
Average number of grid points per atom       ...     1467
UseSFitting                                  ... on

GRIDX 3
-------
General Integration Accuracy     IntAcc      ... 4.338
Radial Grid Type                 RadialGrid  ... OptM3 with GC (2021)
Angular Grid (max. ang.)         AngularGrid ... 3 (Lebedev-194)
Angular grid pruning method      GridPruning ... 4 (adaptive)
Weight generation scheme         WeightScheme... mBecke (2022)
Basis function cutoff            BFCut       ... 1.0000e-11
Integration weight cutoff        WCut        ... 1.0000e-14
Partially contracted basis set               ... on
Rotationally invariant grid construction     ... off
Angular grids for H and He will be reduced by one unit
Diffuse basis detected: some atoms will have their outermost
                        angular grid increased by 1.

Total number of grid points                  ...    23119
Total number of batches                      ...      184
Average number of points per batch           ...      125
Average number of grid points per atom       ...     3303
UseSFitting                                  ... on
Initializing property integral containers    ... done (  0.0 sec)

SHARK setup successfully completed in   0.4 seconds

Maximum memory used throughout the entire STARTUP-calculation: 13.8 MB
[1741606776.875138] [ohm:3075795:0]        ib_iface.c:1059 UCX  ERROR ibv_create_cq(cqe=256) failed: Connection timed out
[1741606776.880946] [ohm:3075786:0]        ib_iface.c:1059 UCX  ERROR ibv_create_cq(cqe=256) failed: Connection timed out
[1741606776.888861] [ohm:3075794:0]        ib_iface.c:1059 UCX  ERROR ibv_create_cq(cqe=256) failed: Connection timed out
[1741606776.892401] [ohm:3075789:0]        ib_iface.c:1059 UCX  ERROR ibv_create_cq(cqe=256) failed: Connection timed out
[1741606776.902662] [ohm:3075800:0]        ib_iface.c:1059 UCX  ERROR ibv_create_cq(cqe=256) failed: Connection timed out
[1741606776.903916] [ohm:3075847:0]        ib_iface.c:1059 UCX  ERROR ibv_create_cq(cqe=256) failed: Connection timed out
[1741606776.905172] [ohm:3075784:0]        ib_iface.c:1059 UCX  ERROR ibv_create_cq(cqe=256) failed: Connection timed out
[1741606776.909528] [ohm:3075792:0]        ib_iface.c:1059 UCX  ERROR ibv_create_cq(cqe=256) failed: Connection timed out
[1741606776.918039] [ohm:3075854:0]        ib_iface.c:1059 UCX  ERROR ibv_create_cq(cqe=256) failed: Connection timed out
[1741606776.930737] [ohm:3075848:0]        ib_iface.c:1059 UCX  ERROR ibv_create_cq(cqe=256) failed: Connection timed out
[1741606776.934479] [ohm:3075852:0]        ib_iface.c:1059 UCX  ERROR ibv_create_cq(cqe=256) failed: Connection timed out
[1741606776.937677] [ohm:3075843:0]        ib_iface.c:1059 UCX  ERROR ibv_create_cq(cqe=256) failed: Connection timed out
[1741606776.940187] [ohm:3075815:0]        ib_iface.c:1059 UCX  ERROR ibv_create_cq(cqe=256) failed: Connection timed out
[1741606776.941857] [ohm:3075799:0]        ib_iface.c:1059 UCX  ERROR ibv_create_cq(cqe=256) failed: Connection timed out
[1741606776.941856] [ohm:3075855:0]        ib_iface.c:1059 UCX  ERROR ibv_create_cq(cqe=256) failed: Connection timed out
[1741606776.944951] [ohm:3075826:0]        ib_iface.c:1059 UCX  ERROR ibv_create_cq(cqe=256) failed: Connection timed out
[1741606776.962187] [ohm:3075814:0]        ib_iface.c:1059 UCX  ERROR ibv_create_cq(cqe=256) failed: Connection timed out
[1741606776.969573] [ohm:3075813:0]        ib_iface.c:1059 UCX  ERROR ibv_create_cq(cqe=256) failed: Connection timed out
[1741606776.983926] [ohm:3075820:0]        ib_iface.c:1059 UCX  ERROR ibv_create_cq(cqe=256) failed: Connection timed out
[1741606777.017724] [ohm:3075842:0]        ib_iface.c:1059 UCX  ERROR ibv_create_cq(cqe=256) failed: Connection timed out
[1741606777.018758] [ohm:3075834:0]        ib_iface.c:1059 UCX  ERROR ibv_create_cq(cqe=256) failed: Connection timed out
[1741606777.020394] [ohm:3075840:0]        ib_iface.c:1059 UCX  ERROR ibv_create_cq(cqe=256) failed: Connection timed out
[1741606777.020401] [ohm:3075851:0]        ib_iface.c:1059 UCX  ERROR ibv_create_cq(cqe=256) failed: Connection timed out
[1741606777.021921] [ohm:3075853:0]        ib_iface.c:1059 UCX  ERROR ibv_create_cq(cqe=256) failed: Connection timed out
[1741606777.041938] [ohm:3075850:0]        ib_iface.c:1059 UCX  ERROR ibv_create_cq(cqe=256) failed: Connection timed out
[1741606777.041923] [ohm:3075830:0]        ib_iface.c:1059 UCX  ERROR ibv_create_cq(cqe=256) failed: Connection timed out
[1741606777.045251] [ohm:3075859:0]        ib_iface.c:1059 UCX  ERROR ibv_create_cq(cqe=256) failed: Connection timed out
[1741606777.046134] [ohm:3075857:0]        ib_iface.c:1059 UCX  ERROR ibv_create_cq(cqe=256) failed: Connection timed out
[1741606777.052191] [ohm:3075844:0]        ib_iface.c:1059 UCX  ERROR ibv_create_cq(cqe=256) failed: Connection timed out
[1741606777.055261] [ohm:3075908:0]        ib_iface.c:1059 UCX  ERROR ibv_create_cq(cqe=256) failed: Connection timed out
[1741606777.056702] [ohm:3075894:0]        ib_iface.c:1059 UCX  ERROR ibv_create_cq(cqe=256) failed: Connection timed out
[1741606777.056882] [ohm:3075846:0]        ib_iface.c:1059 UCX  ERROR ibv_create_cq(cqe=256) failed: Connection timed out
[1741606777.076186] [ohm:3075785:0]        ib_iface.c:1059 UCX  ERROR ibv_create_cq(cqe=256) failed: Connection timed out
[1741606777.078090] [ohm:3075893:0]        ib_iface.c:1059 UCX  ERROR ibv_create_cq(cqe=256) failed: Connection timed out
[1741606777.091011] [ohm:3075883:0]        ib_iface.c:1059 UCX  ERROR ibv_create_cq(cqe=256) failed: Connection timed out
[1741606777.094723] [ohm:3075791:0]        ib_iface.c:1059 UCX  ERROR ibv_create_cq(cqe=256) failed: Connection timed out
[1741606777.097706] [ohm:3075915:0]        ib_iface.c:1059 UCX  ERROR ibv_create_cq(cqe=256) failed: Connection timed out
[1741606777.098561] [ohm:3075858:0]        ib_iface.c:1059 UCX  ERROR ibv_create_cq(cqe=256) failed: Connection timed out
[1741606777.101523] [ohm:3075798:0]        ib_iface.c:1059 UCX  ERROR ibv_create_cq(cqe=256) failed: Connection timed out
[1741606777.113910] [ohm:3075931:0]        ib_iface.c:1059 UCX  ERROR ibv_create_cq(cqe=256) failed: Connection timed out
[1741606777.116642] [ohm:3075864:0]        ib_iface.c:1059 UCX  ERROR ibv_create_cq(cqe=256) failed: Connection timed out
[1741606777.116685] [ohm:3075901:0]        ib_iface.c:1059 UCX  ERROR ibv_create_cq(cqe=256) failed: Connection timed out
[1741606777.118752] [ohm:3075874:0]        ib_iface.c:1059 UCX  ERROR ibv_create_cq(cqe=256) failed: Connection timed out
[1741606777.124376] [ohm:3075880:0]        ib_iface.c:1059 UCX  ERROR ibv_create_cq(cqe=256) failed: Connection timed out
[1741606777.125288] [ohm:3075873:0]        ib_iface.c:1059 UCX  ERROR ibv_create_cq(cqe=256) failed: Connection timed out
[1741606777.134730] [ohm:3075793:0]        ib_iface.c:1059 UCX  ERROR ibv_create_cq(cqe=256) failed: Connection timed out
[1741606777.144763] [ohm:3075919:0]        ib_iface.c:1059 UCX  ERROR ibv_create_cq(cqe=256) failed: Connection timed out
[1741606777.152186] [ohm:3075856:0]        ib_iface.c:1059 UCX  ERROR ibv_create_cq(cqe=256) failed: Connection timed out
[1741606777.153119] [ohm:3075899:0]        ib_iface.c:1059 UCX  ERROR ibv_create_cq(cqe=256) failed: Connection timed out
[1741606777.161883] [ohm:3075797:0]        ib_iface.c:1059 UCX  ERROR ibv_create_cq(cqe=256) failed: Connection timed out
[1741606777.162719] [ohm:3075934:0]        ib_iface.c:1059 UCX  ERROR ibv_create_cq(cqe=256) failed: Connection timed out
[1741606777.163400] [ohm:3075921:0]        ib_iface.c:1059 UCX  ERROR ibv_create_cq(cqe=256) failed: Connection timed out
[1741606777.163392] [ohm:3075790:0]        ib_iface.c:1059 UCX  ERROR ibv_create_cq(cqe=256) failed: Connection timed out
[1741606777.170156] [ohm:3075796:0]        ib_iface.c:1059 UCX  ERROR ibv_create_cq(cqe=256) failed: Connection timed out
[1741606777.171268] [ohm:3075867:0]        ib_iface.c:1059 UCX  ERROR ibv_create_cq(cqe=256) failed: Connection timed out
[1741606777.172032] [ohm:3075926:0]        ib_iface.c:1059 UCX  ERROR ibv_create_cq(cqe=256) failed: Connection timed out
[1741606777.176195] [ohm:3075913:0]        ib_iface.c:1059 UCX  ERROR ibv_create_cq(cqe=256) failed: Connection timed out
[1741606777.176688] [ohm:3075888:0]        ib_iface.c:1059 UCX  ERROR ibv_create_cq(cqe=256) failed: Connection timed out
[1741606777.177463] [ohm:3075886:0]        ib_iface.c:1059 UCX  ERROR ibv_create_cq(cqe=256) failed: Connection timed out
[1741606777.178732] [ohm:3075787:0]        ib_iface.c:1059 UCX  ERROR ibv_create_cq(cqe=256) failed: Connection timed out
[1741606777.179856] [ohm:3075788:0]        ib_iface.c:1059 UCX  ERROR ibv_create_cq(cqe=256) failed: Connection timed out
[1741606777.180244] [ohm:3075925:0]        ib_iface.c:1059 UCX  ERROR ibv_create_cq(cqe=256) failed: Connection timed out
[1741606777.181410] [ohm:3075906:0]        ib_iface.c:1059 UCX  ERROR ibv_create_cq(cqe=256) failed: Connection timed out
[1741606777.182201] [ohm:3075817:0]        ib_iface.c:1059 UCX  ERROR ibv_create_cq(cqe=256) failed: Connection timed out


           ************************************************************
           *        Program running with 64 parallel MPI-processes    *
           *              working on a common directory               *
           ************************************************************
-------------------------------------------------------------------------------
                                 ORCA GUESS
                   Start orbitals & Density for SCF / CASSCF
-------------------------------------------------------------------------------

------------
SCF SETTINGS
------------
Hamiltonian:
 Density Functional     Method          .... DFT(GTOs)
  Functional kind                       .... Exchange-Correlation
  Functional name                       .... wB97M-V exchange-correlation functional
  Functional family                     .... Hybrid MGGA
  Functional refs                              
    [ 0] N. Mardirossian and M. Head-Gordon.,  J. Chem. Phys. 144, 214110 (2016), doi: 10.1063/1.4952647
  Fraction of HF Exchange (short range) .... 0.1500
  Fraction of HF Exchange (long range)  .... 1.0000
  Range separation parameter mu         .... 0.3000
  Functional external parameters        .... 17
    Parameter  0 _cx00      =  8.500000e-01 : u^00 coefficient for exchange
    Parameter  1 _cx01      =  1.007000e+00 : u^01 coefficient for exchange
    Parameter  2 _cx10      =  2.590000e-01 : u^10 coefficient for exchange
    Parameter  3 _css00     =  4.430000e-01 : u^00 coefficient for same-spin correlation
    Parameter  4 _css04     = -1.437000e+00 : u^04 coefficient for same-spin correlation
    Parameter  5 _css10     = -4.535000e+00 : u^10 coefficient for same-spin correlation
    Parameter  6 _css20     = -3.390000e+00 : u^20 coefficient for same-spin correlation
    Parameter  7 _css43     =  4.278000e+00 : u^43 coefficient for same-spin correlation
    Parameter  8 _cos00     =  1.000000e+00 : u^00 coefficient for opposite-spin correlation
    Parameter  9 _cos10     =  1.358000e+00 : u^10 coefficient for opposite-spin correlation
    Parameter 10 _cos20     =  2.924000e+00 : u^20 coefficient for opposite-spin correlation
    Parameter 11 _cos21     = -8.812000e+00 : u^21 coefficient for opposite-spin correlation
    Parameter 12 _cos60     = -1.390000e+00 : u^60 coefficient for opposite-spin correlation
    Parameter 13 _cos61     =  9.142000e+00 : u^61 coefficient for opposite-spin correlation
    Parameter 14 _alpha     =  1.000000e+00 : fraction of HF exchange
    Parameter 15 _beta      = -8.500000e-01 : fraction of short-range exchange
    Parameter 16 _omega     =  3.000000e-01 : range-separation constant
 Long-range corrected/Screened/Range-Separated Hybrid DFT is turned on
   Amount of maximum screened exact exchange              ....  0.850000
   Range separation parameter mu (erf(mu*r12)/r12)        ....  0.300000
 RI-approximation to the Coulomb term is turned on
   Number of AuxJ basis functions       .... 191
   RIJ-COSX (HFX calculated with COS-X)).... on


General Settings:
 Integral files         IntName         .... orca
 Hartree-Fock type      HFTyp           .... UHF
 Total Charge           Charge          ....    0
 Multiplicity           Mult            ....    3
 Number of Electrons    NEL             ....   24
 Basis Dimension        Dim             ....  182
 Nuclear Repulsion      ENuc            ....     68.4560068051 Eh

Convergence Acceleration:
 AO-DIIS                CNVDIIS         .... on
   Start iteration      DIISMaxIt       ....    12
   Startup error        DIISStart       ....  0.200000
   # of expansion vecs  DIISMaxEq       ....     5
   Bias factor          DIISBfac        ....   1.050
   Max. coefficient     DIISMaxC        ....  10.000
 MO-DIIS                CNVKDIIS        .... off
 Trust-Rad. Augm. Hess. CNVTRAH         .... auto
   Auto Start mean grad. ratio tolernc. ....  1.125000
   Auto Start start iteration           ....    50
   Auto Start num. interpolation iter.  ....    10
   Max. Number of Micro iterations      ....    24
   Max. Number of Macro iterations      .... Maxiter - #DIIS iter
   Number of Davidson start vectors     ....     2
   Converg. threshold    (grad. norm)   ....   1.000e-05
   Grad. Scal. Fac. for Micro threshold ....   0.100
   Minimum threshold for Micro iter.    ....   1.000e-02
   NR start threshold (gradient norm)   ....   1.000e-04
   Initial trust radius                 ....   0.400
   Minimum AH scaling param. (alpha)    ....   1.000
   Maximum AH scaling param. (alpha)    .... 1000.000
   Quad. conv. algorithm                .... NR
   White noise on init. David. guess    .... on
   Maximum white noise                  ....   0.010
   Pseudo random numbers                .... off
   Inactive MOs                         .... canonical
   Orbital update algorithm             .... Taylor
   Preconditioner                       .... Diag
   Full preconditioner red. dimension   ....   250
 SOSCF                  CNVSOSCF        .... on
   Start iteration      SOSCFMaxIt      ....   150
   Startup grad/error   SOSCFStart      ....  0.003300
   Hessian update       SOSCFHessUp     .... L-BFGS
 Level Shifting         CNVShift        .... on
   Level shift para.    LevelShift      ....    0.2500
   Turn off err/grad.   ShiftErr        ....    0.0010
 Zerner damping         CNVZerner       .... off
 Static damping         CNVDamp         .... on
   Fraction old density DampFac         ....    0.7000
   Max. Damping (<1)    DampMax         ....    0.9800
   Min. Damping (>=0)   DampMin         ....    0.0000
   Turn off err/grad.   DampErr         ....    0.1000

SCF Procedure:
 Maximum # iterations   MaxIter         ....   125
 SCF integral mode      SCFMode         .... Direct
   Integral package                     .... SHARK and LIBINT hybrid scheme
 Reset frequency        DirectResetFreq ....    20
 Integral Threshold     Thresh          ....  2.500e-11 Eh
 Primitive CutOff       TCut            ....  2.500e-12 Eh

Convergence Tolerance:
 Convergence Check Mode ConvCheckMode   .... Total+1el-Energy
 Convergence forced     ConvForced      .... 1
 Energy Change          TolE            ....  1.000e-08 Eh
 1-El. energy change                    ....  1.000e-05 Eh
 Orbital Gradient       TolG            ....  1.000e-05
 Orbital Rotation angle TolX            ....  1.000e-05
 DIIS Error             TolErr          ....  5.000e-07

------------------------------
INITIAL GUESS: MODEL POTENTIAL
------------------------------
Loading Hartree-Fock densities                     ... done
Calculating cut-offs                               ... done
Initializing the effective Hamiltonian             ... done
Setting up the integral package (SHARK)            ... done
Starting the Coulomb interaction                   ... done (   0.0 sec)
Making the grid                                    ... done (   0.0 sec)
Mapping shells                                     ... done
Starting the XC term evaluation                    ... done (   0.0 sec)
  promolecular density results
     # of electrons  =     23.999524903
     EX              =    -19.470085671
     EC              =     -0.766972317
     EX+EC           =    -20.237057987
Transforming the Hamiltonian                       ... done (   0.0 sec)
Diagonalizing the Hamiltonian                      ... done (   0.0 sec)
Back transforming the eigenvectors                 ... done (   0.0 sec)
Now organizing SCF variables                       ... done
                      ------------------
                      INITIAL GUESS DONE (   0.1 sec)
                      ------------------
             **** ENERGY FILE WAS UPDATED (orca.en.tmp) ****
Finished Guess after   1.7 sec
Maximum memory used throughout the entire GUESS-calculation: 9.5 MB
[1741606778.997299] [ohm:3076134:0]        ib_iface.c:1059 UCX  ERROR ibv_create_cq(cqe=256) failed: Connection timed out
[1741606779.027553] [ohm:3076128:0]        ib_iface.c:1059 UCX  ERROR ibv_create_cq(cqe=256) failed: Connection timed out
[1741606779.029002] [ohm:3076129:0]        ib_iface.c:1059 UCX  ERROR ibv_create_cq(cqe=256) failed: Connection timed out
[1741606779.033623] [ohm:3076145:0]        ib_iface.c:1059 UCX  ERROR ibv_create_cq(cqe=256) failed: Connection timed out
[1741606779.042020] [ohm:3076136:0]        ib_iface.c:1059 UCX  ERROR ibv_create_cq(cqe=256) failed: Connection timed out
[1741606779.044482] [ohm:3076135:0]        ib_iface.c:1059 UCX  ERROR ibv_create_cq(cqe=256) failed: Connection timed out
[1741606779.044741] [ohm:3076133:0]        ib_iface.c:1059 UCX  ERROR ibv_create_cq(cqe=256) failed: Connection timed out
[1741606779.048956] [ohm:3076132:0]        ib_iface.c:1059 UCX  ERROR ibv_create_cq(cqe=256) failed: Connection timed out
[1741606779.050657] [ohm:3076127:0]        ib_iface.c:1059 UCX  ERROR ibv_create_cq(cqe=256) failed: Connection timed out
[1741606779.053760] [ohm:3076139:0]        ib_iface.c:1059 UCX  ERROR ibv_create_cq(cqe=256) failed: Connection timed out
[1741606779.072547] [ohm:3076187:0]        ib_iface.c:1059 UCX  ERROR ibv_create_cq(cqe=256) failed: Connection timed out
[1741606779.080973] [ohm:3076270:0]        ib_iface.c:1059 UCX  ERROR ibv_create_cq(cqe=256) failed: Connection timed out
[1741606779.083850] [ohm:3076191:0]        ib_iface.c:1059 UCX  ERROR ibv_create_cq(cqe=256) failed: Connection timed out
[1741606779.086059] [ohm:3076131:0]        ib_iface.c:1059 UCX  ERROR ibv_create_cq(cqe=256) failed: Connection timed out
[1741606779.087783] [ohm:3076216:0]        ib_iface.c:1059 UCX  ERROR ibv_create_cq(cqe=256) failed: Connection timed out
[1741606779.090355] [ohm:3076183:0]        ib_iface.c:1059 UCX  ERROR ibv_create_cq(cqe=256) failed: Connection timed out
[1741606779.100525] [ohm:3076130:0]        ib_iface.c:1059 UCX  ERROR ibv_create_cq(cqe=256) failed: Connection timed out
[1741606779.101644] [ohm:3076173:0]        ib_iface.c:1059 UCX  ERROR ibv_create_cq(cqe=256) failed: Connection timed out
[1741606779.108366] [ohm:3076196:0]        ib_iface.c:1059 UCX  ERROR ibv_create_cq(cqe=256) failed: Connection timed out
[1741606779.125589] [ohm:3076189:0]        ib_iface.c:1059 UCX  ERROR ibv_create_cq(cqe=256) failed: Connection timed out
[1741606779.125905] [ohm:3076144:0]        ib_iface.c:1059 UCX  ERROR ibv_create_cq(cqe=256) failed: Connection timed out
[1741606779.126281] [ohm:3076166:0]        ib_iface.c:1059 UCX  ERROR ibv_create_cq(cqe=256) failed: Connection timed out
[1741606779.127678] [ohm:3076163:0]        ib_iface.c:1059 UCX  ERROR ibv_create_cq(cqe=256) failed: Connection timed out
[1741606779.134900] [ohm:3076182:0]        ib_iface.c:1059 UCX  ERROR ibv_create_cq(cqe=256) failed: Connection timed out
[1741606779.145885] [ohm:3076188:0]        ib_iface.c:1059 UCX  ERROR ibv_create_cq(cqe=256) failed: Connection timed out
[1741606779.146228] [ohm:3076193:0]        ib_iface.c:1059 UCX  ERROR ibv_create_cq(cqe=256) failed: Connection timed out
[1741606779.181293] [ohm:3076138:0]        ib_iface.c:1059 UCX  ERROR ibv_create_cq(cqe=256) failed: Connection timed out
[1741606779.198379] [ohm:3076192:0]        ib_iface.c:1059 UCX  ERROR ibv_create_cq(cqe=256) failed: Connection timed out
[1741606779.203409] [ohm:3076146:0]        ib_iface.c:1059 UCX  ERROR ibv_create_cq(cqe=256) failed: Connection timed out
[1741606779.204247] [ohm:3076278:0]        ib_iface.c:1059 UCX  ERROR ibv_create_cq(cqe=256) failed: Connection timed out
[1741606779.207808] [ohm:3076141:0]        ib_iface.c:1059 UCX  ERROR ibv_create_cq(cqe=256) failed: Connection timed out
[1741606779.213547] [ohm:3076137:0]        ib_iface.c:1059 UCX  ERROR ibv_create_cq(cqe=256) failed: Connection timed out
[1741606779.215213] [ohm:3076197:0]        ib_iface.c:1059 UCX  ERROR ibv_create_cq(cqe=256) failed: Connection timed out
[1741606779.216874] [ohm:3076186:0]        ib_iface.c:1059 UCX  ERROR ibv_create_cq(cqe=256) failed: Connection timed out
[1741606779.220974] [ohm:3076204:0]        ib_iface.c:1059 UCX  ERROR ibv_create_cq(cqe=256) failed: Connection timed out
[1741606779.225550] [ohm:3076198:0]        ib_iface.c:1059 UCX  ERROR ibv_create_cq(cqe=256) failed: Connection timed out
[1741606779.234082] [ohm:3076161:0]        ib_iface.c:1059 UCX  ERROR ibv_create_cq(cqe=256) failed: Connection timed out
[1741606779.242148] [ohm:3076240:0]        ib_iface.c:1059 UCX  ERROR ibv_create_cq(cqe=256) failed: Connection timed out
[1741606779.242315] [ohm:3076244:0]        ib_iface.c:1059 UCX  ERROR ibv_create_cq(cqe=256) failed: Connection timed out
[1741606779.245209] [ohm:3076164:0]        ib_iface.c:1059 UCX  ERROR ibv_create_cq(cqe=256) failed: Connection timed out
[1741606779.250669] [ohm:3076200:0]        ib_iface.c:1059 UCX  ERROR ibv_create_cq(cqe=256) failed: Connection timed out
[1741606779.255075] [ohm:3076199:0]        ib_iface.c:1059 UCX  ERROR ibv_create_cq(cqe=256) failed: Connection timed out
[1741606779.260520] [ohm:3076252:0]        ib_iface.c:1059 UCX  ERROR ibv_create_cq(cqe=256) failed: Connection timed out
[1741606779.262291] [ohm:3076179:0]        ib_iface.c:1059 UCX  ERROR ibv_create_cq(cqe=256) failed: Connection timed out
[1741606779.266693] [ohm:3076190:0]        ib_iface.c:1059 UCX  ERROR ibv_create_cq(cqe=256) failed: Connection timed out
[1741606779.269644] [ohm:3076195:0]        ib_iface.c:1059 UCX  ERROR ibv_create_cq(cqe=256) failed: Connection timed out
[1741606779.277061] [ohm:3076225:0]        ib_iface.c:1059 UCX  ERROR ibv_create_cq(cqe=256) failed: Connection timed out
[1741606779.278834] [ohm:3076267:0]        ib_iface.c:1059 UCX  ERROR ibv_create_cq(cqe=256) failed: Connection timed out
[1741606779.278904] [ohm:3076265:0]        ib_iface.c:1059 UCX  ERROR ibv_create_cq(cqe=256) failed: Connection timed out
[1741606779.283480] [ohm:3076233:0]        ib_iface.c:1059 UCX  ERROR ibv_create_cq(cqe=256) failed: Connection timed out
[1741606779.283610] [ohm:3076256:0]        ib_iface.c:1059 UCX  ERROR ibv_create_cq(cqe=256) failed: Connection timed out
[1741606779.290290] [ohm:3076238:0]        ib_iface.c:1059 UCX  ERROR ibv_create_cq(cqe=256) failed: Connection timed out
[1741606779.290467] [ohm:3076211:0]        ib_iface.c:1059 UCX  ERROR ibv_create_cq(cqe=256) failed: Connection timed out
[1741606779.298190] [ohm:3076209:0]        ib_iface.c:1059 UCX  ERROR ibv_create_cq(cqe=256) failed: Connection timed out
[1741606779.299323] [ohm:3076263:0]        ib_iface.c:1059 UCX  ERROR ibv_create_cq(cqe=256) failed: Connection timed out
[1741606779.300588] [ohm:3076220:0]        ib_iface.c:1059 UCX  ERROR ibv_create_cq(cqe=256) failed: Connection timed out
[1741606779.303108] [ohm:3076229:0]        ib_iface.c:1059 UCX  ERROR ibv_create_cq(cqe=256) failed: Connection timed out
[1741606779.304394] [ohm:3076201:0]        ib_iface.c:1059 UCX  ERROR ibv_create_cq(cqe=256) failed: Connection timed out
[1741606779.304775] [ohm:3076275:0]        ib_iface.c:1059 UCX  ERROR ibv_create_cq(cqe=256) failed: Connection timed out
[1741606779.304833] [ohm:3076215:0]        ib_iface.c:1059 UCX  ERROR ibv_create_cq(cqe=256) failed: Connection timed out
[1741606779.306042] [ohm:3076245:0]        ib_iface.c:1059 UCX  ERROR ibv_create_cq(cqe=256) failed: Connection timed out
[1741606779.306410] [ohm:3076269:0]        ib_iface.c:1059 UCX  ERROR ibv_create_cq(cqe=256) failed: Connection timed out
[1741606779.307793] [ohm:3076194:0]        ib_iface.c:1059 UCX  ERROR ibv_create_cq(cqe=256) failed: Connection timed out
[1741606779.308832] [ohm:3076261:0]        ib_iface.c:1059 UCX  ERROR ibv_create_cq(cqe=256) failed: Connection timed out


           ************************************************************
           *        Program running with 64 parallel MPI-processes    *
           *              working on a common directory               *
           ************************************************************

-------------------------------------------------------------------------------------------
                                      ORCA LEAN-SCF
                              memory conserving SCF solver
-------------------------------------------------------------------------------------------

----------------------------------------D-I-I-S--------------------------------------------
Iteration    Energy (Eh)           Delta-E    RMSDP     MaxDP     DIISErr   Damp  Time(sec)
-------------------------------------------------------------------------------------------
               ***  Starting incremental Fock matrix formation  ***
    1    -153.6931531244306370     0.00e+00  8.24e-04  2.24e-02  7.34e-02  0.700   0.3
    2    -153.7188090576172215    -2.57e-02  7.35e-04  2.01e-02  4.21e-02  0.700   0.4
                               ***Turning on AO-DIIS***
    3    -153.7333922219114584    -1.46e-02  6.08e-04  2.05e-02  2.22e-02  0.700   0.3
    4    -153.7425686504864473    -9.18e-03  1.53e-03  5.51e-02  1.59e-02  0.000   0.3
    5    -153.7643941409686192    -2.18e-02  1.70e-04  5.74e-03  5.56e-03  0.000   0.3
    6    -153.7650259794860972    -6.32e-04  1.08e-04  3.05e-03  3.77e-03  0.000   0.3
                              *** Initializing SOSCF ***
---------------------------------------S-O-S-C-F--------------------------------------
Iteration    Energy (Eh)           Delta-E    RMSDP     MaxDP     MaxGrad    Time(sec)
--------------------------------------------------------------------------------------
    7    -153.7653369445993974    -3.11e-04  6.04e-05  1.23e-03  2.47e-03     0.3
               *** Restarting incremental Fock matrix formation ***
    8    -153.7654688328518944    -1.32e-04  3.45e-05  1.05e-03  2.47e-03     0.3
    9    -153.7655055393221062    -3.67e-05  4.77e-05  1.18e-03  1.49e-03     0.3
   10    -153.7655217070976335    -1.62e-05  1.29e-05  3.76e-04  5.37e-04     0.3
   11    -153.7655247027569203    -3.00e-06  4.98e-06  1.60e-04  1.34e-04     0.3
   12    -153.7655251997063317    -4.97e-07  2.91e-06  7.14e-05  9.82e-05     0.2
   13    -153.7655253706807059    -1.71e-07  6.23e-06  1.90e-04  1.01e-04     0.2
   14    -153.7655256082751123    -2.38e-07  6.36e-06  2.36e-04  9.88e-05     0.3
   15    -153.7655258172199240    -2.09e-07  1.84e-05  7.17e-04  9.41e-05     0.3
   16    -153.7655263654496594    -5.48e-07  3.48e-05  1.38e-03  1.73e-04     0.3
   17    -153.7655273190606522    -9.54e-07  5.66e-05  2.23e-03  2.36e-04     0.3
   18    -153.7655286963321828    -1.38e-06  4.89e-05  1.91e-03  2.42e-04     0.3
   19    -153.7655297617015151    -1.07e-06  1.57e-05  5.80e-04  1.62e-04     0.3
   20    -153.7655301504661338    -3.89e-07  3.97e-06  1.27e-04  5.22e-05     0.3
   21    -153.7655302155846186    -6.51e-08  2.87e-06  1.10e-04  2.90e-05     0.3
   22    -153.7655302259566952    -1.04e-08  4.60e-07  1.29e-05  1.60e-05     0.3
   23    -153.7655302283860124    -2.43e-09  8.42e-07  2.91e-05  5.35e-06     0.3
                 **** Energy Check signals convergence ****

               *****************************************************
               *                     SUCCESS                       *
               *           SCF CONVERGED AFTER  23 CYCLES          *
               *****************************************************

Recomputing exchange energy using gridx3       ... done (    0.256 sec)
Old exchange energy                            :     -6.201567365 Eh
New exchange energy                            :     -6.201574082 Eh
Exchange energy change after final integration :     -0.000006717 Eh
Total energy after final integration           :   -153.765536945 Eh
             **** ENERGY FILE WAS UPDATED (orca.en.tmp) ****

----------------
TOTAL SCF ENERGY
----------------

Total Energy       :       -153.76553694500225 Eh           -4184.17298 eV

Components:
Nuclear Repulsion  :         68.45600680509338 Eh            1862.78265 eV
Electronic Energy  :       -222.22153703347939 Eh           -6046.95544 eV
One Electron Energy:       -343.45075294811880 Eh           -9345.77012 eV
Two Electron Energy:        121.22921591463941 Eh            3298.81467 eV

Virial components:
Potential Energy   :       -307.17039060772078 Eh           -8358.53127 eV
Kinetic Energy     :        153.40485366271852 Eh            4174.35829 eV
Virial Ratio       :          2.00235118559597

DFT components:
N(Alpha)           :       12.999991496450 electrons
N(Beta)            :       10.999984541708 electrons
N(Total)           :       23.999976038158 electrons
E(XC)              :      -14.712423510015 Eh       

---------------
SCF CONVERGENCE
---------------

  Last Energy change         ...    2.4293e-09  Tolerance :   1.0000e-08
  Last MAX-Density change    ...    2.9132e-05  Tolerance :   1.0000e-07
  Last RMS-Density change    ...    8.4214e-07  Tolerance :   5.0000e-09
  Last DIIS Error            ...    2.4656e-03  Tolerance :   5.0000e-07
  Last Orbital Gradient      ...    5.3516e-06  Tolerance :   1.0000e-05
  Last Orbital Rotation      ...    1.8834e-04  Tolerance :   1.0000e-05


----------------------
UHF SPIN CONTAMINATION
----------------------

Warning: in a DFT calculation there is little theoretical justification to 
         calculate <S**2> as in Hartree-Fock theory. We will do it anyways
         but you should keep in mind that the values have only limited relevance

Expectation value of <S**2>     :     2.008159
Ideal value S*(S+1) for S=1.0   :     2.000000
Deviation                       :     0.008159

----------------
ORBITAL ENERGIES
----------------
                 SPIN UP ORBITALS
  NO   OCC          E(Eh)            E(eV) 
   0   1.0000     -19.387029      -527.5479 
   1   1.0000     -10.402723      -283.0725 
   2   1.0000     -10.367121      -282.1037 
   3   1.0000      -1.166037       -31.7295 
   4   1.0000      -0.887165       -24.1410 
   5   1.0000      -0.727277       -19.7902 
   6   1.0000      -0.639979       -17.4147 
   7   1.0000      -0.571099       -15.5404 
   8   1.0000      -0.548288       -14.9197 
   9   1.0000      -0.525952       -14.3119 
  10   1.0000      -0.437899       -11.9158 
  11   1.0000      -0.408898       -11.1267 
  12   1.0000      -0.329156        -8.9568 
  13   0.0000       0.041451         1.1279 
  14   0.0000       0.061841         1.6828 
  15   0.0000       0.073500         2.0000 
  16   0.0000       0.089154         2.4260 
  17   0.0000       0.115478         3.1423 
  18   0.0000       0.125088         3.4038 
  19   0.0000       0.127620         3.4727 
  20   0.0000       0.135735         3.6935 
  21   0.0000       0.167621         4.5612 
  22   0.0000       0.178785         4.8650 
  23   0.0000       0.209097         5.6898 

                 SPIN DOWN ORBITALS
  NO   OCC          E(Eh)            E(eV) 
   0   1.0000     -19.361840      -526.8625 
   1   1.0000     -10.403915      -283.1049 
   2   1.0000     -10.353886      -281.7436 
   3   1.0000      -1.109444       -30.1895 
   4   1.0000      -0.853257       -23.2183 
   5   1.0000      -0.700875       -19.0718 
   6   1.0000      -0.612748       -16.6737 
   7   1.0000      -0.534838       -14.5537 
   8   1.0000      -0.527219       -14.3463 
   9   1.0000      -0.487868       -13.2756 
  10   1.0000      -0.377350       -10.2682 
  11   0.0000      -0.053149        -1.4463 
  12   0.0000      -0.003973        -0.1081 
  13   0.0000       0.040715         1.1079 
  14   0.0000       0.062817         1.7093 
  15   0.0000       0.073622         2.0033 
  16   0.0000       0.092063         2.5052 
  17   0.0000       0.116149         3.1606 
  18   0.0000       0.127478         3.4689 
  19   0.0000       0.130514         3.5515 
  20   0.0000       0.139910         3.8071 
  21   0.0000       0.176692         4.8080 
*Only the first 10 virtual orbitals were printed.

                    ********************************
                    * MULLIKEN POPULATION ANALYSIS *
                    ********************************

--------------------------------------------
MULLIKEN ATOMIC CHARGES AND SPIN POPULATIONS
--------------------------------------------
   0 O :   -0.325368    0.964515
   1 C :    0.009322   -0.004372
   2 C :   -0.597499    0.858752
   3 H :    0.215637    0.037863
   4 H :    0.202572    0.089154
   5 H :    0.265470    0.042287
   6 H :    0.229866    0.011801
Sum of atomic charges         :   -0.0000000
Sum of atomic spin populations:    2.0000000

-----------------------------------------------------
MULLIKEN REDUCED ORBITAL CHARGES AND SPIN POPULATIONS
-----------------------------------------------------
CHARGE
  0 O s       :     3.997434  s :     3.997434
      pz      :     1.149588  p :     4.308207
      px      :     1.850190
      py      :     1.308429
      dz2     :     0.004000  d :     0.018525
      dxz     :     0.001326
      dyz     :     0.006575
      dx2y2   :     0.003790
      dxy     :     0.002834
      f0      :     0.000084  f :     0.001201
      f+1     :     0.000055
      f-1     :     0.000274
      f+2     :     0.000297
      f-2     :     0.000175
      f+3     :     0.000157
      f-3     :     0.000160

  1 C s       :     3.205542  s :     3.205542
      pz      :     0.932291  p :     2.631127
      px      :     0.906930
      py      :     0.791906
      dz2     :     0.030097  d :     0.143697
      dxz     :     0.036201
      dyz     :     0.026591
      dx2y2   :     0.030669
      dxy     :     0.020140
      f0      :     0.000647  f :     0.010311
      f+1     :     0.000758
      f-1     :     0.001495
      f+2     :     0.001828
      f-2     :     0.002419
      f+3     :     0.001719
      f-3     :     0.001445

  2 C s       :     3.629057  s :     3.629057
      pz      :     1.044206  p :     2.947191
      px      :     0.956694
      py      :     0.946291
      dz2     :    -0.001110  d :     0.017307
      dxz     :    -0.001205
      dyz     :     0.016992
      dx2y2   :     0.002973
      dxy     :    -0.000343
      f0      :     0.000336  f :     0.003944
      f+1     :     0.000512
      f-1     :     0.000425
      f+2     :     0.000449
      f-2     :     0.000800
      f+3     :     0.000710
      f-3     :     0.000712

  3 H s       :     0.737929  s :     0.737929
      pz      :     0.021801  p :     0.043722
      px      :     0.011071
      py      :     0.010849
      dz2     :     0.000843  d :     0.002712
      dxz     :     0.000567
      dyz     :     0.000586
      dx2y2   :     0.000354
      dxy     :     0.000362

  4 H s       :     0.759195  s :     0.759195
      pz      :     0.015057  p :     0.035411
      px      :     0.006405
      py      :     0.013950
      dz2     :     0.000446  d :     0.002821
      dxz     :     0.000416
      dyz     :     0.000569
      dx2y2   :     0.000835
      dxy     :     0.000556

  5 H s       :     0.683491  s :     0.683491
      pz      :     0.008676  p :     0.048540
      px      :     0.016957
      py      :     0.022908
      dz2     :     0.000655  d :     0.002499
      dxz     :     0.000846
      dyz     :     0.000630
      dx2y2   :     0.000198
      dxy     :     0.000171

  6 H s       :     0.730170  s :     0.730170
      pz      :     0.005457  p :     0.037871
      px      :     0.015098
      py      :     0.017316
      dz2     :     0.000423  d :     0.002093
      dxz     :     0.000434
      dyz     :     0.000387
      dx2y2   :     0.000442
      dxy     :     0.000407


SPIN
  0 O s       :     0.006599  s :     0.006599
      pz      :     0.596692  p :     0.962394
      px      :     0.068402
      py      :     0.297300
      dz2     :    -0.002780  d :    -0.004329
      dxz     :     0.000014
      dyz     :    -0.000066
      dx2y2   :    -0.000742
      dxy     :    -0.000755
      f0      :    -0.000056  f :    -0.000149
      f+1     :     0.000011
      f-1     :    -0.000070
      f+2     :    -0.000058
      f-2     :    -0.000032
      f+3     :     0.000026
      f-3     :     0.000029

  1 C s       :     0.018387  s :     0.018387
      pz      :    -0.028468  p :    -0.090874
      px      :    -0.015063
      py      :    -0.047343
      dz2     :     0.019956  d :     0.064957
      dxz     :     0.002304
      dyz     :     0.015497
      dx2y2   :     0.023575
      dxy     :     0.003625
      f0      :     0.000351  f :     0.003159
      f+1     :     0.000188
      f-1     :     0.001041
      f+2     :     0.000034
      f-2     :     0.000382
      f+3     :     0.001107
      f-3     :     0.000056

  2 C s       :    -0.035878  s :    -0.035878
      pz      :     0.115299  p :     0.907231
      px      :     0.218945
      py      :     0.572987
      dz2     :    -0.000792  d :    -0.011640
      dxz     :    -0.005370
      dyz     :    -0.000789
      dx2y2   :    -0.001422
      dxy     :    -0.003267
      f0      :    -0.000030  f :    -0.000961
      f+1     :    -0.000073
      f-1     :    -0.000303
      f+2     :    -0.000001
      f-2     :    -0.000178
      f+3     :    -0.000117
      f-3     :    -0.000260

  3 H s       :     0.033992  s :     0.033992
      pz      :     0.003609  p :     0.003865
      px      :     0.000345
      py      :    -0.000089
      dz2     :    -0.000029  d :     0.000006
      dxz     :    -0.000004
      dyz     :     0.000014
      dx2y2   :    -0.000011
      dxy     :     0.000036

  4 H s       :     0.076482  s :     0.076482
      pz      :     0.001065  p :     0.012622
      px      :     0.001212
      py      :     0.010345
      dz2     :    -0.000014  d :     0.000051
      dxz     :     0.000024
      dyz     :     0.000044
      dx2y2   :    -0.000010
      dxy     :     0.000007

  5 H s       :     0.011744  s :     0.011744
      pz      :     0.001140  p :     0.029409
      px      :     0.008614
      py      :     0.019655
      dz2     :     0.000399  d :     0.001134
      dxz     :     0.000214
      dyz     :     0.000330
      dx2y2   :     0.000065
      dxy     :     0.000127

  6 H s       :    -0.009517  s :    -0.009517
      pz      :     0.002408  p :     0.020475
      px      :     0.006008
      py      :     0.012059
      dz2     :     0.000171  d :     0.000843
      dxz     :     0.000142
      dyz     :     0.000097
      dx2y2   :     0.000343
      dxy     :     0.000091



                     *******************************
                     * LOEWDIN POPULATION ANALYSIS *
                     *******************************

-------------------------------------------
LOEWDIN ATOMIC CHARGES AND SPIN POPULATIONS
-------------------------------------------
   0 O :    0.055922    0.904667
   1 C :   -0.240354    0.190124
   2 C :    0.243284    0.669381
   3 H :    0.026395    0.022281
   4 H :    0.000731    0.060582
   5 H :   -0.107845    0.095543
   6 H :    0.021868    0.057422

----------------------------------------------------
LOEWDIN REDUCED ORBITAL CHARGES AND SPIN POPULATIONS
----------------------------------------------------
CHARGE
  0 O s       :     3.485897  s :     3.485897
      pz      :     1.158782  p :     4.196001
      px      :     1.691118
      py      :     1.346101
      dz2     :     0.054739  d :     0.258278
      dxz     :     0.043891
      dyz     :     0.061602
      dx2y2   :     0.042167
      dxy     :     0.055879
      f0      :     0.000292  f :     0.003902
      f+1     :     0.000157
      f-1     :     0.001064
      f+2     :     0.000775
      f-2     :     0.000770
      f+3     :     0.000463
      f-3     :     0.000381

  1 C s       :     2.647742  s :     2.647742
      pz      :     0.845157  p :     2.601180
      px      :     0.914892
      py      :     0.841132
      dz2     :     0.103038  d :     0.905412
      dxz     :     0.204436
      dyz     :     0.220523
      dx2y2   :     0.166235
      dxy     :     0.211180
      f0      :     0.008067  f :     0.086019
      f+1     :     0.007112
      f-1     :     0.012722
      f+2     :     0.014611
      f-2     :     0.016520
      f+3     :     0.014015
      f-3     :     0.012972

  2 C s       :     2.738095  s :     2.738095
      pz      :     0.932617  p :     2.589881
      px      :     0.880549
      py      :     0.776715
      dz2     :     0.064531  d :     0.403717
      dxz     :     0.120756
      dyz     :     0.057399
      dx2y2   :     0.069983
      dxy     :     0.091047
      f0      :     0.002746  f :     0.025023
      f+1     :     0.003449
      f-1     :     0.003623
      f+2     :     0.002575
      f-2     :     0.003898
      f+3     :     0.004392
      f-3     :     0.004339

  3 H s       :     0.682691  s :     0.682691
      pz      :     0.102217  p :     0.260393
      px      :     0.085409
      py      :     0.072768
      dz2     :     0.007491  d :     0.030521
      dxz     :     0.007748
      dyz     :     0.006738
      dx2y2   :     0.004228
      dxy     :     0.004315

  4 H s       :     0.674981  s :     0.674981
      pz      :     0.083874  p :     0.289224
      px      :     0.100686
      py      :     0.104664
      dz2     :     0.004829  d :     0.035064
      dxz     :     0.005111
      dyz     :     0.007996
      dx2y2   :     0.009367
      dxy     :     0.007761

  5 H s       :     0.739343  s :     0.739343
      pz      :     0.134915  p :     0.330288
      px      :     0.092759
      py      :     0.102614
      dz2     :     0.012343  d :     0.038214
      dxz     :     0.010427
      dyz     :     0.010796
      dx2y2   :     0.002363
      dxy     :     0.002285

  6 H s       :     0.712933  s :     0.712933
      pz      :     0.085839  p :     0.242247
      px      :     0.077467
      py      :     0.078941
      dz2     :     0.004257  d :     0.022952
      dxz     :     0.005573
      dyz     :     0.004385
      dx2y2   :     0.004194
      dxy     :     0.004544


SPIN
  0 O s       :     0.018242  s :     0.018242
      pz      :     0.532865  p :     0.871635
      px      :     0.073338
      py      :     0.265432
      dz2     :     0.006359  d :     0.014772
      dxz     :     0.002750
      dyz     :     0.001702
      dx2y2   :     0.001343
      dxy     :     0.002618
      f0      :    -0.000040  f :     0.000018
      f+1     :     0.000012
      f-1     :     0.000079
      f+2     :    -0.000065
      f-2     :     0.000014
      f+3     :     0.000011
      f-3     :     0.000008

  1 C s       :    -0.003428  s :    -0.003428
      pz      :     0.004056  p :    -0.012457
      px      :    -0.013238
      py      :    -0.003274
      dz2     :     0.049414  d :     0.182081
      dxz     :     0.002652
      dyz     :     0.038656
      dx2y2   :     0.057517
      dxy     :     0.033842
      f0      :     0.003364  f :     0.023928
      f+1     :     0.001088
      f-1     :     0.007786
      f+2     :     0.000612
      f-2     :     0.002616
      f+3     :     0.007662
      f-3     :     0.000801

  2 C s       :     0.013731  s :     0.013731
      pz      :     0.098317  p :     0.656573
      px      :     0.132843
      py      :     0.425413
      dz2     :    -0.001896  d :    -0.000473
      dxz     :     0.000797
      dyz     :    -0.001397
      dx2y2   :     0.003078
      dxy     :    -0.001055
      f0      :     0.000295  f :    -0.000450
      f+1     :    -0.000102
      f-1     :    -0.000370
      f+2     :     0.000046
      f-2     :    -0.000198
      f+3     :     0.000169
      f-3     :    -0.000290

  3 H s       :     0.019347  s :     0.019347
      pz      :     0.002301  p :     0.003304
      px      :    -0.001146
      py      :     0.002149
      dz2     :    -0.000223  d :    -0.000370
      dxz     :    -0.000162
      dyz     :    -0.000044
      dx2y2   :    -0.000085
      dxy     :     0.000143

  4 H s       :     0.048068  s :     0.048068
      pz      :     0.005569  p :     0.013036
      px      :     0.001400
      py      :     0.006067
      dz2     :    -0.000164  d :    -0.000523
      dxz     :    -0.000034
      dyz     :     0.000013
      dx2y2   :    -0.000227
      dxy     :    -0.000110

  5 H s       :    -0.008671  s :    -0.008671
      pz      :     0.014456  p :     0.091339
      px      :     0.017805
      py      :     0.059078
      dz2     :     0.005570  d :     0.012875
      dxz     :     0.001351
      dyz     :     0.003898
      dx2y2   :     0.000530
      dxy     :     0.001526

  6 H s       :    -0.016248  s :    -0.016248
      pz      :     0.011904  p :     0.066087
      px      :     0.012882
      py      :     0.041302
      dz2     :     0.001030  d :     0.007583
      dxz     :     0.001716
      dyz     :     0.000955
      dx2y2   :     0.003048
      dxy     :     0.000835



                      *****************************
                      * MAYER POPULATION ANALYSIS *
                      *****************************

  NA   - Mulliken gross atomic population
  ZA   - Total nuclear charge
  QA   - Mulliken gross atomic charge
  VA   - Mayer's total valence
  BVA  - Mayer's bonded valence
  FA   - Mayer's free valence

  ATOM       NA         ZA         QA         VA         BVA        FA
  0 O      8.3254     8.0000    -0.3254     1.8167     1.0208     0.7960
  1 C      5.9907     6.0000     0.0093     3.4613     3.4484     0.0129
  2 C      6.5975     6.0000    -0.5975     3.4608     2.6931     0.7678
  3 H      0.7844     1.0000     0.2156     1.0388     1.0380     0.0008
  4 H      0.7974     1.0000     0.2026     0.9848     0.9798     0.0050
  5 H      0.7345     1.0000     0.2655     0.9205     0.9198     0.0006
  6 H      0.7701     1.0000     0.2299     0.9698     0.9694     0.0004

  Mayer bond orders larger than 0.100000
B(  0-O ,  1-C ) :   0.8390 B(  0-O ,  2-C ) :   0.1044 B(  1-C ,  2-C ) :   0.7127 
B(  1-C ,  3-H ) :   0.9955 B(  1-C ,  4-H ) :   0.9471 B(  2-C ,  5-H ) :   0.9466 
B(  2-C ,  6-H ) :   0.9727 

-------
TIMINGS
-------

Total SCF time: 0 days 0 hours 0 min 8 sec 

Total time                  ....       8.593 sec
Sum of individual times     ....       8.572 sec  ( 99.8%)

SCF preparation             ....       1.617 sec  ( 18.8%)
Fock matrix formation       ....       5.468 sec  ( 63.6%)
  Startup                   ....       0.103 sec  (  1.9% of F)
  Split-RI-J                ....       0.642 sec  ( 11.7% of F)
  Chain of spheres X        ....       2.989 sec  ( 54.7% of F)
  XC integration            ....       1.372 sec  ( 25.1% of F)
    XC Preparation          ....       0.000 sec  (  0.0% of XC)
    Basis function eval.    ....       0.075 sec  (  5.4% of XC)
    Density eval.           ....       0.268 sec  ( 19.5% of XC)
    XC-Functional eval.     ....       0.018 sec  (  1.3% of XC)
    XC-Potential eval.      ....       0.353 sec  ( 25.7% of XC)
[...]
[1741606799.148305] [ohm:3077243:0]        ib_iface.c:1059 UCX  ERROR ibv_create_cq(cqe=256) failed: Connection timed out
[1741606799.148727] [ohm:3077313:0]        ib_iface.c:1059 UCX  ERROR ibv_create_cq(cqe=256) failed: Connection timed out
[1741606799.148803] [ohm:3077334:0]        ib_iface.c:1059 UCX  ERROR ibv_create_cq(cqe=256) failed: Connection timed out
[1741606799.149110] [ohm:3077267:0]        ib_iface.c:1059 UCX  ERROR ibv_create_cq(cqe=256) failed: Connection timed out
[1741606799.152986] [ohm:3077330:0]        ib_iface.c:1059 UCX  ERROR ibv_create_cq(cqe=256) failed: Connection timed out
[1741606799.153394] [ohm:3077284:0]        ib_iface.c:1059 UCX  ERROR ibv_create_cq(cqe=256) failed: Connection timed out
[1741606799.156082] [ohm:3077239:0]        ib_iface.c:1059 UCX  ERROR ibv_create_cq(cqe=256) failed: Connection timed out
[1741606799.156507] [ohm:3077286:0]        ib_iface.c:1059 UCX  ERROR ibv_create_cq(cqe=256) failed: Connection timed out
[1741606799.157485] [ohm:3077222:0]        ib_iface.c:1059 UCX  ERROR ibv_create_cq(cqe=256) failed: Connection timed out
[1741606799.158502] [ohm:3077333:0]        ib_iface.c:1059 UCX  ERROR ibv_create_cq(cqe=256) failed: Connection timed out


           ************************************************************
           *        Program running with 64 parallel MPI-processes    *
           *              working on a common directory               *
           ************************************************************

------------------------------------------------------------------------------
                              ORCA PROPERTY CALCULATIONS
------------------------------------------------------------------------------

GBWName                                 ... orca.gbw
Number of atoms                         ...      7
Number of basis functions               ...    182
Max core memory                         ...   1024 MB

Electric properties:
Dipole moment                           ... YES
Quadrupole moment                       ...  NO
Static polarizability (Dipole/Dipole)   ...  NO
Static polarizability (Dipole/Quad.)    ...  NO
Static polarizability (Quad./Quad.)     ...  NO
Static polarizability (Velocity)        ...  NO

Atomic electric properties:
Dipole moment                           ...  NO
Quadrupole moment                       ...  NO
Static polarizability                   ...  NO

Choice of electric origin               ... Center of mass
Position of electric origin             ...     0.759910     0.127937     0.135585

General magnetic properties:
Magnetizability                         ...  NO

EPR properties:
g-Tensor (aka g-matrix)                 ...  NO
Zero-Field splitting spin-orbit         ...  NO
Zero-field splitting spin-spin          ...  NO
Hyperfine couplings                     ...  NO (   0 nuclei)
Quadrupole couplings                    ...  NO (   0 nuclei)
Contact density                         ...  NO (   0 nuclei)

NMR properties:
Chemical shifts                         ...  NO (   0 nuclei)
Spin-rotation constants                 ...  NO (   0 nuclei)
Spin-spin couplings                     ...  NO (   0 nuclei,    0 pairs)

Choice of magnetic origin               ... GIAO
Position of magnetic origin             ...     0.000000     0.000000     0.000000

Properties with geometric perturbations:
SCF Hessian                             ...  NO
IR spectrum                             ...  NO
VCD spectrum                            ...  NO
X-ray spectroscopy properties:
SCF XES/XAS/RIXS spectra                ...  NO


-------------
DIPOLE MOMENT
-------------

Method             : SCF
Type of density    : Electron Density
Multiplicity       :   3
Irrep              :   0
Energy             :  -153.7655369450022533 Eh
Relativity type    : 
Basis              : AO
                                X                 Y                 Z
Electronic contribution:      0.586428948       1.782037625      -1.471663708
Nuclear contribution   :     -0.477302987      -2.357337593       1.872874784
                        -----------------------------------------
Total Dipole Moment    :      0.109125961      -0.575299968       0.401211076
                        -----------------------------------------
Magnitude (a.u.)       :      0.709823116
Magnitude (Debye)      :      1.804226976



--------------------
Rotational spectrum 
--------------------
 
Rotational constants in cm-1:             1.395690             0.358235             0.322228 
Rotational constants in MHz :         41841.732548         10739.610073          9660.138420 

Dipole components along the rotational axes: 
x,y,z [a.u.] :     0.570275     0.414899    -0.080590 
x,y,z [Debye]:     1.449523     1.054588    -0.204842 

 

-------------
DIPOLE MOMENT
-------------

Method             : TDA/CIS
Type of density    : Electron Density
Level              : Relaxed density
State              :   1
Multiplicity       :   3
Irrep              :   0
Energy             :     0.0000000000000000 Eh
Relativity type    : 
Basis              : AO
                                X                 Y                 Z
Electronic contribution:      0.224245092       1.289322267      -1.089441831
Nuclear contribution   :     -0.477302987      -2.357337593       1.872874784
                        -----------------------------------------
Total Dipole Moment    :     -0.253057895      -1.068015327       0.783432953
                        -----------------------------------------
Magnitude (a.u.)       :      1.348503699
Magnitude (Debye)      :      3.427624006



--------------------
Rotational spectrum 
--------------------
 
Rotational constants in cm-1:             1.395690             0.358235             0.322228 
Rotational constants in MHz :         41841.732548         10739.610073          9660.138420 

Dipole components along the rotational axes: 
x,y,z [a.u.] :     1.290698     0.383249    -0.075365 
x,y,z [Debye]:     3.280695     0.974143    -0.191562 

 

Dipole moment calculation done in   0.0 sec 

Maximum memory used throughout the entire PROP-calculation: 7.4 MB
[1741606800.806988] [ohm:3077526:0]        ib_iface.c:1059 UCX  ERROR ibv_create_cq(cqe=256) failed: Connection timed out
[1741606800.817743] [ohm:3077525:0]        ib_iface.c:1059 UCX  ERROR ibv_create_cq(cqe=256) failed: Connection timed out
[1741606800.864173] [ohm:3077530:0]        ib_iface.c:1059 UCX  ERROR ibv_create_cq(cqe=256) failed: Connection timed out
[1741606800.864401] [ohm:3077534:0]        ib_iface.c:1059 UCX  ERROR ibv_create_cq(cqe=256) failed: Connection timed out
[1741606800.877184] [ohm:3077527:0]        ib_iface.c:1059 UCX  ERROR ibv_create_cq(cqe=256) failed: Connection timed out
[1741606800.884039] [ohm:3077531:0]        ib_iface.c:1059 UCX  ERROR ibv_create_cq(cqe=256) failed: Connection timed out
[1741606800.887622] [ohm:3077529:0]        ib_iface.c:1059 UCX  ERROR ibv_create_cq(cqe=256) failed: Connection timed out
[1741606800.889772] [ohm:3077532:0]        ib_iface.c:1059 UCX  ERROR ibv_create_cq(cqe=256) failed: Connection timed out
[1741606800.892961] [ohm:3077533:0]        ib_iface.c:1059 UCX  ERROR ibv_create_cq(cqe=256) failed: Connection timed out
[1741606800.898457] [ohm:3077537:0]        ib_iface.c:1059 UCX  ERROR ibv_create_cq(cqe=256) failed: Connection timed out
[1741606800.906320] [ohm:3077538:0]        ib_iface.c:1059 UCX  ERROR ibv_create_cq(cqe=256) failed: Connection timed out
[1741606800.906562] [ohm:3077535:0]        ib_iface.c:1059 UCX  ERROR ibv_create_cq(cqe=256) failed: Connection timed out
[1741606800.930402] [ohm:3077528:0]        ib_iface.c:1059 UCX  ERROR ibv_create_cq(cqe=256) failed: Connection timed out
[1741606800.932797] [ohm:3077560:0]        ib_iface.c:1059 UCX  ERROR ibv_create_cq(cqe=256) failed: Connection timed out
[1741606800.944676] [ohm:3077578:0]        ib_iface.c:1059 UCX  ERROR ibv_create_cq(cqe=256) failed: Connection timed out
[1741606800.971011] [ohm:3077632:0]        ib_iface.c:1059 UCX  ERROR ibv_create_cq(cqe=256) failed: Connection timed out
[1741606801.005889] [ohm:3077550:0]        ib_iface.c:1059 UCX  ERROR ibv_create_cq(cqe=256) failed: Connection timed out
[1741606801.008312] [ohm:3077639:0]        ib_iface.c:1059 UCX  ERROR ibv_create_cq(cqe=256) failed: Connection timed out
[1741606801.011392] [ohm:3077663:0]        ib_iface.c:1059 UCX  ERROR ibv_create_cq(cqe=256) failed: Connection timed out
[1741606801.013372] [ohm:3077626:0]        ib_iface.c:1059 UCX  ERROR ibv_create_cq(cqe=256) failed: Connection timed out
[1741606801.015209] [ohm:3077592:0]        ib_iface.c:1059 UCX  ERROR ibv_create_cq(cqe=256) failed: Connection timed out
[1741606801.018711] [ohm:3077669:0]        ib_iface.c:1059 UCX  ERROR ibv_create_cq(cqe=256) failed: Connection timed out
[1741606801.032716] [ohm:3077657:0]        ib_iface.c:1059 UCX  ERROR ibv_create_cq(cqe=256) failed: Connection timed out
[1741606801.035291] [ohm:3077619:0]        ib_iface.c:1059 UCX  ERROR ibv_create_cq(cqe=256) failed: Connection timed out
[1741606801.049888] [ohm:3077625:0]        ib_iface.c:1059 UCX  ERROR ibv_create_cq(cqe=256) failed: Connection timed out
[1741606801.054357] [ohm:3077644:0]        ib_iface.c:1059 UCX  ERROR ibv_create_cq(cqe=256) failed: Connection timed out
[1741606801.054403] [ohm:3077600:0]        ib_iface.c:1059 UCX  ERROR ibv_create_cq(cqe=256) failed: Connection timed out
[1741606801.059955] [ohm:3077675:0]        ib_iface.c:1059 UCX  ERROR ibv_create_cq(cqe=256) failed: Connection timed out
[1741606801.064688] [ohm:3077612:0]        ib_iface.c:1059 UCX  ERROR ibv_create_cq(cqe=256) failed: Connection timed out
[1741606801.074875] [ohm:3077620:0]        ib_iface.c:1059 UCX  ERROR ibv_create_cq(cqe=256) failed: Connection timed out
[1741606801.081838] [ohm:3077596:0]        ib_iface.c:1059 UCX  ERROR ibv_create_cq(cqe=256) failed: Connection timed out
[1741606801.082591] [ohm:3077588:0]        ib_iface.c:1059 UCX  ERROR ibv_create_cq(cqe=256) failed: Connection timed out
[1741606801.084895] [ohm:3077599:0]        ib_iface.c:1059 UCX  ERROR ibv_create_cq(cqe=256) failed: Connection timed out
[1741606801.085035] [ohm:3077593:0]        ib_iface.c:1059 UCX  ERROR ibv_create_cq(cqe=256) failed: Connection timed out
[1741606801.087270] [ohm:3077650:0]        ib_iface.c:1059 UCX  ERROR ibv_create_cq(cqe=256) failed: Connection timed out
[1741606801.087240] [ohm:3077569:0]        ib_iface.c:1059 UCX  ERROR ibv_create_cq(cqe=256) failed: Connection timed out
[1741606801.094773] [ohm:3077581:0]        ib_iface.c:1059 UCX  ERROR ibv_create_cq(cqe=256) failed: Connection timed out
[1741606801.101056] [ohm:3077590:0]        ib_iface.c:1059 UCX  ERROR ibv_create_cq(cqe=256) failed: Connection timed out
[1741606801.101363] [ohm:3077594:0]        ib_iface.c:1059 UCX  ERROR ibv_create_cq(cqe=256) failed: Connection timed out
[1741606801.106231] [ohm:3077561:0]        ib_iface.c:1059 UCX  ERROR ibv_create_cq(cqe=256) failed: Connection timed out
[1741606801.113711] [ohm:3077585:0]        ib_iface.c:1059 UCX  ERROR ibv_create_cq(cqe=256) failed: Connection timed out
[1741606801.113895] [ohm:3077595:0]        ib_iface.c:1059 UCX  ERROR ibv_create_cq(cqe=256) failed: Connection timed out
[1741606801.119018] [ohm:3077653:0]        ib_iface.c:1059 UCX  ERROR ibv_create_cq(cqe=256) failed: Connection timed out
[1741606801.120129] [ohm:3077565:0]        ib_iface.c:1059 UCX  ERROR ibv_create_cq(cqe=256) failed: Connection timed out
[1741606801.120858] [ohm:3077597:0]        ib_iface.c:1059 UCX  ERROR ibv_create_cq(cqe=256) failed: Connection timed out
[1741606801.133896] [ohm:3077666:0]        ib_iface.c:1059 UCX  ERROR ibv_create_cq(cqe=256) failed: Connection timed out
[1741606801.135595] [ohm:3077572:0]        ib_iface.c:1059 UCX  ERROR ibv_create_cq(cqe=256) failed: Connection timed out
[1741606801.139674] [ohm:3077606:0]        ib_iface.c:1059 UCX  ERROR ibv_create_cq(cqe=256) failed: Connection timed out
[1741606801.143396] [ohm:3077547:0]        ib_iface.c:1059 UCX  ERROR ibv_create_cq(cqe=256) failed: Connection timed out
[1741606801.145570] [ohm:3077541:0]        ib_iface.c:1059 UCX  ERROR ibv_create_cq(cqe=256) failed: Connection timed out
[1741606801.150611] [ohm:3077603:0]        ib_iface.c:1059 UCX  ERROR ibv_create_cq(cqe=256) failed: Connection timed out
[1741606801.150885] [ohm:3077586:0]        ib_iface.c:1059 UCX  ERROR ibv_create_cq(cqe=256) failed: Connection timed out
[1741606801.151527] [ohm:3077589:0]        ib_iface.c:1059 UCX  ERROR ibv_create_cq(cqe=256) failed: Connection timed out
[1741606801.158248] [ohm:3077616:0]        ib_iface.c:1059 UCX  ERROR ibv_create_cq(cqe=256) failed: Connection timed out
[1741606801.159032] [ohm:3077609:0]        ib_iface.c:1059 UCX  ERROR ibv_create_cq(cqe=256) failed: Connection timed out
[1741606801.159040] [ohm:3077659:0]        ib_iface.c:1059 UCX  ERROR ibv_create_cq(cqe=256) failed: Connection timed out
[1741606801.159232] [ohm:3077646:0]        ib_iface.c:1059 UCX  ERROR ibv_create_cq(cqe=256) failed: Connection timed out
[1741606801.160240] [ohm:3077544:0]        ib_iface.c:1059 UCX  ERROR ibv_create_cq(cqe=256) failed: Connection timed out
[1741606801.160241] [ohm:3077636:0]        ib_iface.c:1059 UCX  ERROR ibv_create_cq(cqe=256) failed: Connection timed out
[1741606801.160509] [ohm:3077602:0]        ib_iface.c:1059 UCX  ERROR ibv_create_cq(cqe=256) failed: Connection timed out
[1741606801.161918] [ohm:3077601:0]        ib_iface.c:1059 UCX  ERROR ibv_create_cq(cqe=256) failed: Connection timed out
[1741606801.162105] [ohm:3077536:0]        ib_iface.c:1059 UCX  ERROR ibv_create_cq(cqe=256) failed: Connection timed out
[1741606801.165358] [ohm:3077591:0]        ib_iface.c:1059 UCX  ERROR ibv_create_cq(cqe=256) failed: Connection timed out
[1741606801.168294] [ohm:3077598:0]        ib_iface.c:1059 UCX  ERROR ibv_create_cq(cqe=256) failed: Connection timed out

--------------------------------
SUGGESTED CITATIONS FOR THIS RUN
--------------------------------

Below you find a list of papers that are relevant to this ORCA run
We neither can nor want to force you to cite these papers, but we appreciate if you do
You receive ORCA, which is the product of decades of hard work by many enthusiastic individuals, for free
The only thing we kindly ask in return is that you cite our papers,
We deeply appreciate it, if you show your appreciation for ORCA by not just citing the generic ORCA reference.

Please note that relegating all ORCA citations to the supporting information does *not* help us.
SI sections are not indexed - citations you put there will not count into any citation statistics
But we need these citations in order to attract the funding resources that allow us to do what we are doing

Therefore, if you are a happy ORCA user, please consider citing a few of the papers listed below in the main body of your paper

In addition to the list printed below, the program has created the file orca.bibtex that contains the list in bibtex format
You can import this file easily into all common literature databanks and citation aid programs


List of essential papers. We consider these as the minimum necessary citations

  1. Neese,F.
     Software update: the ORCA program system, version 5.0
     WIRES Comput. Molec. Sci., 2022 12(1)e1606
     doi.org/10.1002/wcms.1606

List of papers to cite with high priority. The work reported in these papers was absolutely
necessary for this run to complete.
Our perspective: the developers of density functionals and basis sets usually get cited in chemistry papers
Good! But without the algorithms to do something with them, the functionals or basis sets would not do anything.
Hence, in our opinion, the algorithm design and method developments papers are equally worthy of getting cited

  1. Neese,F.; Olbrich,G.
     Efficient use of the resolution of the identity approximation in time-dependent density functional calculations with hybrid density functionals
     Chem. Phys. Lett., 2002 362 170-178
     doi.org/10.1016/s0009-2614(02)01053-9
  2. Neese,F.
     An improvement of the resolution of the identity approximation for the formation of the Coulomb matrix
     J. Comp. Chem., 2003 24(14)1740-1747
     doi.org/10.1002/jcc.10318
  3. Neese,F.; Wennmohs,F.; Hansen,A.; Becker,U.
     Efficient, approximate and parallel Hartree-Fock and hybrid DFT calculations. A 'chain-of-spheres' algorithm for the Hartree-Fock exchange
     Chem. Phys., 2009 356(1-3)98-109
     doi.org/10.1016/j.chemphys.2008.10.036
  4. Petrenko,T.; Kossmann,S.; Neese,F.
     Efficient time-dependent density functional theory approximations for hybrid density functionals: Analytical gradients and parallelization
     J. Chem. Phys., 2011 134 054116
     doi.org/10.1063/1.3533441
  5. Helmich-Paris,B.; de Souza,B.; Neese,F.; Izsák,R.
     An improved chain of spheres for exchange algorithm
     J. Chem. Phys., 2021 155 104109
     doi.org/doi: 10.1063/5.0058766.
  6. Neese,F.
     The SHARK Integral Generation and Digestion System
     J. Comp. Chem., 2022  1-16
     doi.org/10.1002/jcc.26942
  7. Lehtola,S.; Steigemann,C.; Oliveira,M.; Marques,M.
     Recent developments in Libxc - A comprehensive library of functionals for density functional theory
     Software X, 2018 7 
     doi.org/10.1016/j.softx.2017.11.002
  8. Grimme,S.; Antony,J.; Ehrlich,S.; Krieg,H.
     A consistent and accurate ab initio parametrization of density functional dispersion correction (DFT-D) for the 94 elements H-Pu
     J. Chem. Phys., 2010 132 154104-XXXX
     doi.org/10.1063/1.3382344
  9. Grimme,S.; Ehrlich,S.; Goerigk,L.
     Effect of the damping function in dispersion corrected density functional theory
     J. Comput. Chem., 2011 32(7)1456-1465
     doi.org/10.1002/jcc.21759

List of suggested additional citations. These are papers that are important in the 'surrounding' of 
of this run, or papers that preceded the highly important papers. If you like your results we are grateful for a citation.

  1. Izsak,R.; Neese,F.
     An overlap fitted chain of spheres exchange method
     J. Chem. Phys., 2011 135 144105
     doi.org/10.1063/1.3646921
  2. Izsak,R.; Hansen,A.; Neese,F.
     The resolution of identity and chain of spheres approximations for the LPNO-CCSD singles Fock term
     Molec. Phys., 2012 110 2413-2417
     doi.org/10.1080/00268976.2012.687466
  3. Neese,F.
     The ORCA program system
     WIRES Comput. Molec. Sci., 2012 2(1)73-78
     doi.org/10.1002/wcms.81
  4. Izsak,R.; Neese,F.; Klopper,W.
     Robust fitting techniques in the chain of spheres approximation to the Fock exchange: The role of the complementary space
     J. Chem. Phys., 2013 139 
     doi.org/10.1063/1.4819264
  5. Neese,F.
     Software update: the ORCA program system, version 4.0
     WIRES Comput. Molec. Sci., 2018 8(1)1-6
     doi.org/10.1002/wcms.1327
  6. Neese,F.; Wennmohs,F.; Becker,U.; Riplinger,C.
     The ORCA quantum chemistry program package
     J. Chem. Phys., 2020 152 Art. No. L224108
     doi.org/10.1063/5.0004608

List of optional additional citations

  1. Neese,F.
     Approximate second-order SCF convergence for spin unrestricted wavefunctions
     Chem. Phys. Lett., 2000 325(1-3)93-98
     doi.org/10.1016/s0009-2614(00)00662-x

Timings for individual modules:

Sum of individual times          ...       26.378 sec (=   0.440 min)
Startup calculation              ...        2.419 sec (=   0.040 min)   9.2 %
SCF iterations                   ...       11.194 sec (=   0.187 min)  42.4 %
Property integrals               ...        2.146 sec (=   0.036 min)   8.1 %
Property calculations            ...        1.949 sec (=   0.032 min)   7.4 %
CIS module                       ...        8.671 sec (=   0.145 min)  32.9 %
                             ****ORCA TERMINATED NORMALLY****
TOTAL RUN TIME: 0 days 0 hours 0 minutes 28 seconds 471 msec
