7
Properties=species:S:1:pos:R:3:momenta:R:3:forces:R:3 Coordinates=T from=T ORCA-job=T orca=T E=T -153.922068275156=T energy=-4184.169982699275 free_energy=-4184.169982699275 stress="-3.95854014307414e-06 1.3390022819621247e-06 1.248979121613896e-06 1.3390022819621247e-06 6.197563829411463e-06 -1.978291973193866e-07 1.248979121613896e-06 -1.978291973193866e-07 7.768342075177274e-06" pbc="F F F"
O        0.64287210       1.39800827      -0.14515320      -0.42771161      -0.04431134      -1.60296659      -0.39101876      -0.95595798       0.90450043
C        0.28733653       0.27844699       0.53851589       0.14106226      -0.29492986       0.61323069       1.12311771       0.69677588      -1.24038494
C       -0.06841594      -0.88562873      -0.34986369       0.31531499       0.57712077       0.78594602      -1.07862658      -0.25324662       0.16942343
H        0.52093878       0.27091627       1.60864672      -0.36480515      -0.37403902       0.36590717      -0.30154087      -0.12118162      -0.50859522
H        0.68545853      -1.42755712      -0.89691508      -0.05286216       0.09475042      -0.12042495       1.22270916       0.34133999       0.10263092
H       -0.70952419      -0.55039067      -1.17495479       0.22882601       0.25599345      -0.17824500      -0.22209048       0.08128757       0.47276362
H       -0.53313886      -1.66575770       0.24916591       0.16017566      -0.21458443       0.13655266      -0.35255017       0.21098277       0.09966176
