
                                 *****************
                                 * O   R   C   A *
                                 *****************

                                            #,                                       
                                            ###                                      
                                            ####                                     
                                            #####                                    
                                            ######                                   
                                           ########,                                 
                                     ,,################,,,,,                         
                               ,,#################################,,                 
                          ,,##########################################,,             
                       ,#########################################, ''#####,          
                    ,#############################################,,   '####,        
                  ,##################################################,,,,####,       
                ,###########''''           ''''###############################       
              ,#####''   ,,,,##########,,,,          '''####'''          '####       
            ,##' ,,,,###########################,,,                        '##       
           ' ,,###''''                  '''############,,,                           
         ,,##''                                '''############,,,,        ,,,,,,###''
      ,#''                                            '''#######################'''  
     '                                                          ''''####''''         
             ,#######,   #######,   ,#######,      ##                                
            ,#'     '#,  ##    ##  ,#'     '#,    #''#        ,####,   ,####,        
            ##       ##  ##   ,#'  ##            #'  '#       #'       #'  '#        
            ##       ##  #######   ##           ,######,      #####,   #    #        
            '#,     ,#'  ##    ##  '#,     ,#' ,#      #,     #,   #   #,  ,#        
             '#######'   ##     ##  '#######'  #'      '#     '####' # '####'        



                #########################################################
                #                        -***-                          #
                #          Department of theory and spectroscopy        #
                #                                                       #
                #                      Frank Neese                      #
                #                                                       #
                #     Directorship, Architecture, Infrastructure        #
                #                    SHARK, DRIVERS                     #
                #        Core code/Algorithms in most modules           #
                #                                                       #
                #        Max Planck Institute fuer Kohlenforschung      #
                #                Kaiser Wilhelm Platz 1                 #
                #                 D-45470 Muelheim/Ruhr                 #
                #                      Germany                          #
                #                                                       #
                #                  All rights reserved                  #
                #                        -***-                          #
                #########################################################


                         Program Version 6.0.0  -   RELEASE  -


 With contributions from (in alphabetic order):
   Daniel Aravena         : Magnetic Suceptibility
   Michael Atanasov       : Ab Initio Ligand Field Theory (pilot matlab implementation)
   Alexander A. Auer      : GIAO ZORA, VPT2 properties, NMR spectrum
   Ute Becker             : All parallelization in ORCA, NUMFREQ, NUMCALC
   Giovanni Bistoni       : ED, misc. LED, open-shell LED, HFLD
   Martin Brehm           : Molecular dynamics
   Dmytro Bykov           : pre 5.0 version of the SCF Hessian
   Marcos Casanova-Páez   : Triplet and SCS-CIS(D). UHF-(DLPNO)-IP/EA/STEOM-CCSD. UHF-CVS-IP/STEOM-CCSD
   Vijay G. Chilkuri      : MRCI spin determinant printing, contributions to CSF-ICE
   Pauline Colinet        : FMM embedding
   Dipayan Datta          : RHF DLPNO-CCSD density
   Achintya Kumar Dutta   : EOM-CC, STEOM-CC
   Nicolas Foglia         : Exact transition moments, OPA infrastructure, MCD improvements
   Dmitry Ganyushin       : Spin-Orbit,Spin-Spin,Magnetic field MRCI
   Miquel Garcia          : C-PCM and meta-GGA Hessian, CCSD/C-PCM, Gaussian charge scheme
   Tiago L. C. Gouveia    : GS-ROHF, GS-ROCIS
   Yang Guo               : DLPNO-NEVPT2, F12-NEVPT2, CIM, IAO-localization
   Andreas Hansen         : Spin unrestricted coupled pair/coupled cluster methods
   Ingolf Harden          : AUTO-CI MPn and infrastructure 
   Benjamin Helmich-Paris : MC-RPA, TRAH-(SCF,CASSCF), AVAS, COSX integrals, SCF dyn. polar.
   Lee Huntington         : MR-EOM, pCC
   Robert Izsak           : Overlap fitted RIJCOSX, COSX-SCS-MP3, EOM
   Riya Kayal             : Wick's Theorem for AUTO-CI, AUTO-CI UHF-CCSDT
   Emily Kempfer          : AUTO-CI, RHF CISDT and CCSDT
   Christian Kollmar      : KDIIS, OOCD, Brueckner-CCSD(T), CCSD density, CASPT2, CASPT2-K, improved NEVPT2
   Axel Koslowski         : Symmetry handling
   Simone Kossmann        : Meta GGA functionals, TD-DFT gradient, OOMP2, (MP2 Hessian; deprecated post 5.0)
   Lucas Lang             : DCDCAS
   Marvin Lechner         : AUTO-CI (C++ implementation), FIC-MRCC
   Spencer Leger          : CASSCF response
   Dagmar Lenk            : GEPOL surface, SMD, ORCA-2-JSON
   Dimitrios Liakos       : Extrapolation schemes; Compound Job, initial MDCI parallelization
   Dimitrios Manganas     : Further ROCIS development; embedding schemes. LFT, Crystal Embedding
   Dimitrios Pantazis     : SARC Basis sets
   Anastasios Papadopoulos: AUTO-CI, single reference methods and gradients
   Taras Petrenko         : pre 6.0 DFT Hessian and TD-DFT gradient, (ASA, deprecated), ECA, 1-Electron XAS/XES, NRVS
   Peter Pinski           : DLPNO-MP2, DLPNO-MP2 Gradient
   Christoph Reimann      : Effective Core Potentials
   Marius Retegan         : Local ZFS, SOC
   Christoph Riplinger    : Optimizer, TS searches, QM/MM, DLPNO-CCSD(T), (RO)-DLPNO pert. Triples
   Michael Roemelt        : Original ROCIS implementation
   Masaaki Saitow         : Open-shell DLPNO-CCSD energy and density
   Barbara Sandhoefer     : DKH picture change effects
   Kantharuban Sivalingam : CASSCF convergence/infrastructure, NEVPT2 and variants, FIC-MRCI
   Bernardo de Souza      : ESD, SOC TD-DFT
   Georgi Stoychev        : AutoAux, RI-MP2 NMR, DLPNO-MP2 response, X2C
   Van Anh Tran           : RI-MP2 g-tensors
   Willem Van den Heuvel  : Paramagnetic NMR
   Zikuan Wang            : NOTCH, Electric field optimization 
   Frank Wennmohs         : Technical directorship and infrastructure
   Hang Xu                : AUTO-CI-Response properties 


 We gratefully acknowledge several colleagues who have allowed us to
 interface, adapt or use parts of their codes:
   Stefan Grimme, W. Hujo, H. Kruse, P. Pracht,  : VdW corrections, initial TS optimization,
                  C. Bannwarth, S. Ehlert,         DFT functionals, gCP, sTDA/sTD-DF
                  L. Wittmann, M. Mueller
   Ed Valeev, F. Pavosevic, A. Kumar             : LibInt (2-el integral package), F12 methods
   Garnet Chan, S. Sharma, J. Yang, R. Olivares  : DMRG
   Ulf Ekstrom                                   : XCFun DFT Library
   Mihaly Kallay                                 : mrcc  (arbitrary order and MRCC methods)
   Frank Weinhold                                : gennbo (NPA and NBO analysis)
   Simon Mueller                                 : openCOSMO-RS
   Christopher J. Cramer and Donald G. Truhlar   : smd solvation model
   Lars Goerigk                                  : TD-DFT with DH, B97 family of functionals
   V. Asgeirsson, H. Jonsson                     : NEB implementation
   FAccTs GmbH                                   : IRC, NEB, NEB-TS, DLPNO-Multilevel, CI-OPT
                                                   MM, QMMM, 2- and 3-layer-ONIOM, Crystal-QMMM,
                                                   LR-CPCM, SF, NACMEs, symmetry and pop. for TD-DFT,
                                                   nearIR, NL-DFT gradient (VV10), updates on ESD,
                                                   ML-optimized integration grids, MBIS, APM,
                                                   GOAT, DOCKER, SOLVATOR, interface openCOSMO-RS
   S Lehtola, MJT Oliveira, MAL Marques          : LibXC Library
   Liviu Ungur et al                             : ANISO software


 Your calculation uses the libint2 library for the computation of 2-el integrals
 For citations please refer to: http://libint.valeyev.net

 Your ORCA version has been built with support for libXC version: 6.2.2
 For citations please refer to: https://libxc.gitlab.io

 This ORCA versions uses:
   CBLAS   interface :  Fast vector & matrix operations
   LAPACKE interface :  Fast linear algebra routines
   SCALAPACK package :  Parallel linear algebra routines
   Shared memory     :  Shared parallel matrices
   BLAS/LAPACK       :  OpenBLAS 0.3.27  USE64BITINT DYNAMIC_ARCH NO_AFFINITY Zen SINGLE_THREADED
        Core in use  :  Zen
   Copyright (c) 2011-2014, The OpenBLAS Project


Your calculation utilizes the atom-pairwise dispersion correction
with the Becke-Johnson damping scheme (D3BJ)


Warning: RI is on but no J-basis has been assigned. Assigning Def2/J (nothing to worry about!)
================================================================================

----- Orbital basis set information -----
Your calculation utilizes the basis: def2-TZVPPD
   F. Weigend and R. Ahlrichs, Phys. Chem. Chem. Phys. 7, 3297 (2005).
   D. Rappoport and F. Furche, J. Chem. Phys. 133, 134105 (2010)
   D. Rappoport, J. Chem. Phys. 155, 124102 (2021).

----- AuxJ basis set information -----
Your calculation utilizes the auxiliary basis: def2/J
   F. Weigend, Phys. Chem. Chem. Phys. 8, 1057 (2006).

================================================================================
                                        WARNINGS
                       Please study these warnings very carefully!
================================================================================

Using LibXC functional ID 531 : wB97M-V exchange-correlation functional
[ 1]  N. Mardirossian and M. Head-Gordon.,  J. Chem. Phys. 144, 214110 (2016)
Using LibXC functional ID 531 : wB97M-V exchange-correlation functional
[ 1]  N. Mardirossian and M. Head-Gordon.,  J. Chem. Phys. 144, 214110 (2016)

WARNING: B97M-V or wB97M-V functional requested.
  ===> : libXC variant has now been activated.
         Any manually given DFX/HFX/RangeSep scaling parameters are IGNORED!

Your calculation utilizes LibXC
 by S Lehtola, C Steigemann, MJT Oliveira & MAL Marques
Please cite in your paper:
 S Lehtola, C Steigemann, MJT Oliveira & MAL Marques, SoftwareX, 7, (2018), 1.
   


WARNING: your system is open-shell and RHF/RKS was chosen
  ===> : WILL SWITCH to UHF/UKS

INFO   : Checking CIS options ...

WARNING: CIS/ROCIS methods need fully converged wavefunctions
  ===> : Setting SCFConvForced true
         You can overwrite this default with %scf ConvForced false 


================================================================================
                                       INPUT FILE
================================================================================
NAME = orca.inp
|  1> ! Engrad def2-TZVPPD wB97M-D3BJ 
|  2> %pal nprocs 8 end%pal nprocs 64 end 
|  3> %tddft 
|  4>  Iroot 2 Nroots 3 
|  5> sf true 
|  6> end 
|  7> *xyz 0 3 
|  8> O   3.21671864 -0.70063477 -1.88891304
|  9> O   -2.2366828 1.77070307 -1.21555148
| 10> O   -1.07896849 -2.30444395 -2.11027328
| 11> O   -2.55520417 0.99183802 3.2876427
| 12> N   -0.33240203 -1.41846885 -0.12774464
| 13> N   -0.58036817 0.68189336 2.17596644
| 14> N   1.09754353 -1.55990604 -2.01450453
| 15> N   -2.41580906 1.15692993 0.95437721
| 16> C   2.02180226 -0.95885267 0.11852973
| 17> C   -0.21630238 1.2967615 -0.13965734
| 18> C   0.69249846 -0.87628607 0.72110602
| 19> C   0.29377329 0.59843218 1.02896116
| 20> C   3.23096024 -0.65244198 1.00878298
| 21> C   0.57426042 1.58871136 -1.40329116
| 22> C   2.16688091 -1.0462514 -1.31614998
| 23> C   -1.66066363 1.45856589 -0.17916708
| 24> C   -0.12811792 -1.87569311 -1.4435019
| 25> C   -1.918779 0.93575256 2.22883854
| 26> H   0.59519901 -1.31423484 1.58749054
| 27> H   1.26355861 1.02347556 1.31761307
| 28> H   3.31082677 0.42952427 1.2263237
| 29> H   3.13095773 -1.14550986 1.92542582
| 30> H   4.20872617 -0.97968615 0.68302444
| 31> H   0.47654893 0.73622621 -2.07651075
| 32> H   -0.02922227 2.36055818 -1.881283
| 33> H   1.6173886 1.73521644 -1.16012814
| 34> H   -1.21653172 -1.58807921 0.35541647
| 35> H   -0.16766317 0.75571708 3.08067216
| 36> H   1.18490781 -1.66117937 -3.01284628
| 37> H   -3.28271533 1.64584295 0.85294347
| 38> *
| 39> 
| 40>                          ****END OF INPUT****
================================================================================

                     *******************************
                     * Energy+Gradient Calculation *
                     *******************************

---------------------------------
CARTESIAN COORDINATES (ANGSTROEM)
---------------------------------
  O      3.216719   -0.700635   -1.888913
  O     -2.236683    1.770703   -1.215551
  O     -1.078968   -2.304444   -2.110273
  O     -2.555204    0.991838    3.287643
  N     -0.332402   -1.418469   -0.127745
  N     -0.580368    0.681893    2.175966
  N      1.097544   -1.559906   -2.014505
  N     -2.415809    1.156930    0.954377
  C      2.021802   -0.958853    0.118530
  C     -0.216302    1.296761   -0.139657
  C      0.692498   -0.876286    0.721106
  C      0.293773    0.598432    1.028961
  C      3.230960   -0.652442    1.008783
  C      0.574260    1.588711   -1.403291
  C      2.166881   -1.046251   -1.316150
  C     -1.660664    1.458566   -0.179167
  C     -0.128118   -1.875693   -1.443502
  C     -1.918779    0.935753    2.228839
  H      0.595199   -1.314235    1.587491
  H      1.263559    1.023476    1.317613
  H      3.310827    0.429524    1.226324
  H      3.130958   -1.145510    1.925426
  H      4.208726   -0.979686    0.683024
  H      0.476549    0.736226   -2.076511
  H     -0.029222    2.360558   -1.881283
  H      1.617389    1.735216   -1.160128
  H     -1.216532   -1.588079    0.355416
  H     -0.167663    0.755717    3.080672
  H      1.184908   -1.661179   -3.012846
  H     -3.282715    1.645843    0.852943

----------------------------
CARTESIAN COORDINATES (A.U.)
----------------------------
  NO LB      ZA    FRAG     MASS         X           Y           Z
   0 O     8.0000    0    15.999    6.078717   -1.324008   -3.569528
   1 O     8.0000    0    15.999   -4.226718    3.346144   -2.297059
   2 O     8.0000    0    15.999   -2.038955   -4.354768   -3.987839
   3 O     8.0000    0    15.999   -4.828636    1.874302    6.212744
   4 N     7.0000    0    14.007   -0.628149   -2.680518   -0.241402
   5 N     7.0000    0    14.007   -1.096737    1.288592    4.111981
   6 N     7.0000    0    14.007    2.074057   -2.947795   -3.806862
   7 N     7.0000    0    14.007   -4.565218    2.186281    1.803512
   8 C     6.0000    0    12.011    3.820653   -1.811969    0.223989
   9 C     6.0000    0    12.011   -0.408752    2.450524   -0.263914
  10 C     6.0000    0    12.011    1.308632   -1.655941    1.362693
  11 C     6.0000    0    12.011    0.555151    1.130873    1.944455
  12 C     6.0000    0    12.011    6.105630   -1.232937    1.906324
  13 C     6.0000    0    12.011    1.085195    3.002229   -2.651836
  14 C     6.0000    0    12.011    4.094811   -1.977129   -2.487163
  15 C     6.0000    0    12.011   -3.138199    2.756290   -0.338577
  16 C     6.0000    0    12.011   -0.242108   -3.544546   -2.727823
  17 C     6.0000    0    12.011   -3.625967    1.768316    4.211894
  18 H     1.0000    0     1.008    1.124763   -2.483544    2.999922
  19 H     1.0000    0     1.008    2.387780    1.934089    2.489928
  20 H     1.0000    0     1.008    6.256556    0.811683    2.317416
  21 H     1.0000    0     1.008    5.916653   -2.164700    3.638527
  22 H     1.0000    0     1.008    7.953340   -1.851339    1.290729
  23 H     1.0000    0     1.008    0.900547    1.391266   -3.924037
  24 H     1.0000    0     1.008   -0.055222    4.460808   -3.555110
  25 H     1.0000    0     1.008    3.056422    3.279084   -2.192324
  26 H     1.0000    0     1.008   -2.298912   -3.001035    0.671640
  27 H     1.0000    0     1.008   -0.316837    1.428098    5.821627
  28 H     1.0000    0     1.008    2.239151   -3.139174   -5.693454
  29 H     1.0000    0     1.008   -6.203433    3.110192    1.611830

--------------------------------
INTERNAL COORDINATES (ANGSTROEM)
--------------------------------
 O      0   0   0     0.000000000000     0.00000000     0.00000000
 O      1   0   0     6.024990769760     0.00000000     0.00000000
 O      2   1   0     4.329855974232    49.37092997     0.00000000
 O      2   1   3     4.581140082124    95.91513786    89.58977665
 N      3   2   1     2.296243272268    62.95974192    60.23819724
 N      4   2   1     2.287327485562    59.02005887    10.56514187
 N      1   2   3     2.290201625327    47.35056743     0.06572064
 N      6   4   2     2.255389822264    62.10057003   353.28376927
 C      1   2   3     2.350388928220    59.29945877   280.90250623
 C      2   1   3     2.337542695606    35.50691692   117.45915179
 C      5   3   2     1.436986647229   152.55810624   253.44041439
 C      6   4   2     1.444544970918   156.37642104   353.22820127
 C      9   1   2     1.532482097996    94.18995593   225.17445573
 C     10   2   1     1.518879420015    91.60322796    37.19514851
 C      1   2   3     1.244856472516    45.50284972   317.18720819
 C      2   1   3     1.226099640286    64.20307870    97.80750260
 C      3   2   1     1.237953214971    76.59144382    29.27631463
 C      4   2   1     1.236628005936    29.57542991     2.46429809
 H     11   5   3     0.975647705174   106.50311527   225.63434028
 H     12   6   4     1.097481374291   107.66841886   142.90150985
 H     13   9   1     1.106505125886   111.51044981    89.81503531
 H     13   9   1     1.045634033693   109.84733135   208.50745816
 H     13   9   1     1.081311050092   118.55115321   325.12250074
 H     14  10   2     1.090643425969   108.46135009   282.91528058
 H     14  10   2     1.090144517842   102.28303474    31.83627205
 H     14  10   2     1.081068172074   109.94654526   163.40202485
 H      5   3   2     1.021713091418    93.60576657    80.66030461
 H      6   4   2     0.997129780149    84.62629886   160.03915714
 H      7   1   2     1.007261165032    90.67719075   108.92449162
 H      8   6   4     1.000425522316   149.65950791    35.97878805

---------------------------
INTERNAL COORDINATES (A.U.)
---------------------------
 O      0   0   0     0.000000000000     0.00000000     0.00000000
 O      1   0   0    11.385582514250     0.00000000     0.00000000
 O      2   1   0     8.182241990620    49.37092997     0.00000000
 O      2   1   3     8.657100136344    95.91513786    89.58977665
 N      3   2   1     4.339270921446    62.95974192    60.23819724
 N      4   2   1     4.322422526302    59.02005887    10.56514187
 N      1   2   3     4.327853863330    47.35056743     0.06572064
 N      6   4   2     4.262069089313    62.10057003   353.28376927
 C      1   2   3     4.441591382536    59.29945877   280.90250623
 C      2   1   3     4.417315521043    35.50691692   117.45915179
 C      5   3   2     2.715511221364   152.55810624   253.44041439
 C      6   4   2     2.729794383169   156.37642104   353.22820127
 C      9   1   2     2.895971470350    94.18995593   225.17445573
 C     10   2   1     2.870266134278    91.60322796    37.19514851
 C      1   2   3     2.352437809094    45.50284972   317.18720819
 C      2   1   3     2.316992533040    64.20307870    97.80750260
 C      3   2   1     2.339392542903    76.59144382    29.27631463
 C      4   2   1     2.336888260757    29.57542991     2.46429809
 H     11   5   3     1.843706965967   106.50311527   225.63434028
 H     12   6   4     2.073939234490   107.66841886   142.90150985
 H     13   9   1     2.090991653704   111.51044981    89.81503531
 H     13   9   1     1.975961959987   109.84733135   208.50745816
 H     13   9   1     2.043381750256   118.55115321   325.12250074
 H     14  10   2     2.061017384842   108.46135009   282.91528058
 H     14  10   2     2.060074585116   102.28303474    31.83627205
 H     14  10   2     2.042922777319   109.94654526   163.40202485
 H      5   3   2     1.930757930222    93.60576657    80.66030461
 H      6   4   2     1.884302204459    84.62629886   160.03915714
 H      7   1   2     1.903447747246    90.67719075   108.92449162
 H      8   6   4     1.890530254562   149.65950791    35.97878805

---------------------
BASIS SET INFORMATION
---------------------
There are 4 groups of distinct atoms

 Group   1 Type O   : 12s7p3d1f contracted to 6s4p3d1f pattern {621111/4111/111/1}
 Group   2 Type N   : 12s6p3d1f contracted to 6s3p3d1f pattern {621111/411/111/1}
 Group   3 Type C   : 12s6p3d1f contracted to 6s3p3d1f pattern {621111/411/111/1}
 Group   4 Type H   : 5s3p1d contracted to 3s3p1d pattern {311/111/1}

Atom   0O    basis set group =>   1
Atom   1O    basis set group =>   1
Atom   2O    basis set group =>   1
Atom   3O    basis set group =>   1
Atom   4N    basis set group =>   2
Atom   5N    basis set group =>   2
Atom   6N    basis set group =>   2
Atom   7N    basis set group =>   2
Atom   8C    basis set group =>   3
Atom   9C    basis set group =>   3
Atom  10C    basis set group =>   3
Atom  11C    basis set group =>   3
Atom  12C    basis set group =>   3
Atom  13C    basis set group =>   3
Atom  14C    basis set group =>   3
Atom  15C    basis set group =>   3
Atom  16C    basis set group =>   3
Atom  17C    basis set group =>   3
Atom  18H    basis set group =>   4
Atom  19H    basis set group =>   4
Atom  20H    basis set group =>   4
Atom  21H    basis set group =>   4
Atom  22H    basis set group =>   4
Atom  23H    basis set group =>   4
Atom  24H    basis set group =>   4
Atom  25H    basis set group =>   4
Atom  26H    basis set group =>   4
Atom  27H    basis set group =>   4
Atom  28H    basis set group =>   4
Atom  29H    basis set group =>   4
---------------------------------
AUXILIARY/J BASIS SET INFORMATION
---------------------------------
There are 4 groups of distinct atoms

 Group   1 Type O   : 12s5p4d2f1g contracted to 6s4p3d1f1g pattern {711111/2111/211/2/1}
 Group   2 Type N   : 12s5p4d2f1g contracted to 6s4p3d1f1g pattern {711111/2111/211/2/1}
 Group   3 Type C   : 12s5p4d2f1g contracted to 6s4p3d1f1g pattern {711111/2111/211/2/1}
 Group   4 Type H   : 5s2p1d contracted to 3s1p1d pattern {311/2/1}

Atom   0O    basis set group =>   1
Atom   1O    basis set group =>   1
Atom   2O    basis set group =>   1
Atom   3O    basis set group =>   1
Atom   4N    basis set group =>   2
Atom   5N    basis set group =>   2
Atom   6N    basis set group =>   2
Atom   7N    basis set group =>   2
Atom   8C    basis set group =>   3
Atom   9C    basis set group =>   3
Atom  10C    basis set group =>   3
Atom  11C    basis set group =>   3
Atom  12C    basis set group =>   3
Atom  13C    basis set group =>   3
Atom  14C    basis set group =>   3
Atom  15C    basis set group =>   3
Atom  16C    basis set group =>   3
Atom  17C    basis set group =>   3
Atom  18H    basis set group =>   4
Atom  19H    basis set group =>   4
Atom  20H    basis set group =>   4
Atom  21H    basis set group =>   4
Atom  22H    basis set group =>   4
Atom  23H    basis set group =>   4
Atom  24H    basis set group =>   4
Atom  25H    basis set group =>   4
Atom  26H    basis set group =>   4
Atom  27H    basis set group =>   4
Atom  28H    basis set group =>   4
Atom  29H    basis set group =>   4
[1741419514.148632] [ohm:1661265:0]        ib_iface.c:1059 UCX  ERROR ibv_create_cq(cqe=256) failed: Connection timed out
[1741419514.163567] [ohm:1661258:0]        ib_iface.c:1059 UCX  ERROR ibv_create_cq(cqe=256) failed: Connection timed out
[1741419514.176028] [ohm:1661256:0]        ib_iface.c:1059 UCX  ERROR ibv_create_cq(cqe=256) failed: Connection timed out
[1741419514.232789] [ohm:1661260:0]        ib_iface.c:1059 UCX  ERROR ibv_create_cq(cqe=256) failed: Connection timed out
[1741419514.274589] [ohm:1661259:0]        ib_iface.c:1059 UCX  ERROR ibv_create_cq(cqe=256) failed: Connection timed out
[1741419514.300380] [ohm:1661281:0]        ib_iface.c:1059 UCX  ERROR ibv_create_cq(cqe=256) failed: Connection timed out
[1741419514.307962] [ohm:1661257:0]        ib_iface.c:1059 UCX  ERROR ibv_create_cq(cqe=256) failed: Connection timed out
[1741419514.343031] [ohm:1661277:0]        ib_iface.c:1059 UCX  ERROR ibv_create_cq(cqe=256) failed: Connection timed out
[1741419514.351373] [ohm:1661268:0]        ib_iface.c:1059 UCX  ERROR ibv_create_cq(cqe=256) failed: Connection timed out
[1741419514.363427] [ohm:1661264:0]        ib_iface.c:1059 UCX  ERROR ibv_create_cq(cqe=256) failed: Connection timed out
[1741419514.366403] [ohm:1661280:0]        ib_iface.c:1059 UCX  ERROR ibv_create_cq(cqe=256) failed: Connection timed out
[1741419514.370240] [ohm:1661291:0]        ib_iface.c:1059 UCX  ERROR ibv_create_cq(cqe=256) failed: Connection timed out
[1741419514.370598] [ohm:1661309:0]        ib_iface.c:1059 UCX  ERROR ibv_create_cq(cqe=256) failed: Connection timed out
[1741419514.373215] [ohm:1661263:0]        ib_iface.c:1059 UCX  ERROR ibv_create_cq(cqe=256) failed: Connection timed out
[1741419514.391435] [ohm:1661262:0]        ib_iface.c:1059 UCX  ERROR ibv_create_cq(cqe=256) failed: Connection timed out
[1741419514.394426] [ohm:1661279:0]        ib_iface.c:1059 UCX  ERROR ibv_create_cq(cqe=256) failed: Connection timed out
[1741419514.410150] [ohm:1661388:0]        ib_iface.c:1059 UCX  ERROR ibv_create_cq(cqe=256) failed: Connection timed out
[1741419514.419557] [ohm:1661267:0]        ib_iface.c:1059 UCX  ERROR ibv_create_cq(cqe=256) failed: Connection timed out
[1741419514.436304] [ohm:1661316:0]        ib_iface.c:1059 UCX  ERROR ibv_create_cq(cqe=256) failed: Connection timed out
[1741419514.440518] [ohm:1661346:0]        ib_iface.c:1059 UCX  ERROR ibv_create_cq(cqe=256) failed: Connection timed out
[1741419514.446047] [ohm:1661266:0]        ib_iface.c:1059 UCX  ERROR ibv_create_cq(cqe=256) failed: Connection timed out
[1741419514.452122] [ohm:1661360:0]        ib_iface.c:1059 UCX  ERROR ibv_create_cq(cqe=256) failed: Connection timed out
[1741419514.453158] [ohm:1661282:0]        ib_iface.c:1059 UCX  ERROR ibv_create_cq(cqe=256) failed: Connection timed out
[1741419514.454299] [ohm:1661380:0]        ib_iface.c:1059 UCX  ERROR ibv_create_cq(cqe=256) failed: Connection timed out
[1741419514.455648] [ohm:1661312:0]        ib_iface.c:1059 UCX  ERROR ibv_create_cq(cqe=256) failed: Connection timed out
[1741419514.465895] [ohm:1661355:0]        ib_iface.c:1059 UCX  ERROR ibv_create_cq(cqe=256) failed: Connection timed out
[1741419514.481355] [ohm:1661308:0]        ib_iface.c:1059 UCX  ERROR ibv_create_cq(cqe=256) failed: Connection timed out
[1741419514.491935] [ohm:1661400:0]        ib_iface.c:1059 UCX  ERROR ibv_create_cq(cqe=256) failed: Connection timed out
[1741419514.494351] [ohm:1661366:0]        ib_iface.c:1059 UCX  ERROR ibv_create_cq(cqe=256) failed: Connection timed out
[1741419514.499306] [ohm:1661349:0]        ib_iface.c:1059 UCX  ERROR ibv_create_cq(cqe=256) failed: Connection timed out
[1741419514.507339] [ohm:1661379:0]        ib_iface.c:1059 UCX  ERROR ibv_create_cq(cqe=256) failed: Connection timed out
[1741419514.508170] [ohm:1661297:0]        ib_iface.c:1059 UCX  ERROR ibv_create_cq(cqe=256) failed: Connection timed out
[1741419514.508596] [ohm:1661261:0]        ib_iface.c:1059 UCX  ERROR ibv_create_cq(cqe=256) failed: Connection timed out
[1741419514.509759] [ohm:1661343:0]        ib_iface.c:1059 UCX  ERROR ibv_create_cq(cqe=256) failed: Connection timed out
[1741419514.510189] [ohm:1661377:0]        ib_iface.c:1059 UCX  ERROR ibv_create_cq(cqe=256) failed: Connection timed out
[1741419514.518255] [ohm:1661287:0]        ib_iface.c:1059 UCX  ERROR ibv_create_cq(cqe=256) failed: Connection timed out
[1741419514.526163] [ohm:1661320:0]        ib_iface.c:1059 UCX  ERROR ibv_create_cq(cqe=256) failed: Connection timed out
[1741419514.526627] [ohm:1661306:0]        ib_iface.c:1059 UCX  ERROR ibv_create_cq(cqe=256) failed: Connection timed out
[1741419514.527047] [ohm:1661303:0]        ib_iface.c:1059 UCX  ERROR ibv_create_cq(cqe=256) failed: Connection timed out
[1741419514.529071] [ohm:1661328:0]        ib_iface.c:1059 UCX  ERROR ibv_create_cq(cqe=256) failed: Connection timed out
[1741419514.530565] [ohm:1661409:0]        ib_iface.c:1059 UCX  ERROR ibv_create_cq(cqe=256) failed: Connection timed out
[1741419514.549172] [ohm:1661337:0]        ib_iface.c:1059 UCX  ERROR ibv_create_cq(cqe=256) failed: Connection timed out
[1741419514.556749] [ohm:1661317:0]        ib_iface.c:1059 UCX  ERROR ibv_create_cq(cqe=256) failed: Connection timed out
[1741419514.558052] [ohm:1661382:0]        ib_iface.c:1059 UCX  ERROR ibv_create_cq(cqe=256) failed: Connection timed out
[1741419514.561516] [ohm:1661296:0]        ib_iface.c:1059 UCX  ERROR ibv_create_cq(cqe=256) failed: Connection timed out
[1741419514.561648] [ohm:1661319:0]        ib_iface.c:1059 UCX  ERROR ibv_create_cq(cqe=256) failed: Connection timed out
[1741419514.563499] [ohm:1661278:0]        ib_iface.c:1059 UCX  ERROR ibv_create_cq(cqe=256) failed: Connection timed out
[1741419514.564234] [ohm:1661314:0]        ib_iface.c:1059 UCX  ERROR ibv_create_cq(cqe=256) failed: Connection timed out
[1741419514.564229] [ohm:1661313:0]        ib_iface.c:1059 UCX  ERROR ibv_create_cq(cqe=256) failed: Connection timed out
[1741419514.565505] [ohm:1661390:0]        ib_iface.c:1059 UCX  ERROR ibv_create_cq(cqe=256) failed: Connection timed out
[1741419514.570071] [ohm:1661334:0]        ib_iface.c:1059 UCX  ERROR ibv_create_cq(cqe=256) failed: Connection timed out
[1741419514.570201] [ohm:1661315:0]        ib_iface.c:1059 UCX  ERROR ibv_create_cq(cqe=256) failed: Connection timed out
[1741419514.570343] [ohm:1661302:0]        ib_iface.c:1059 UCX  ERROR ibv_create_cq(cqe=256) failed: Connection timed out
[1741419514.570579] [ohm:1661395:0]        ib_iface.c:1059 UCX  ERROR ibv_create_cq(cqe=256) failed: Connection timed out
[1741419514.571330] [ohm:1661318:0]        ib_iface.c:1059 UCX  ERROR ibv_create_cq(cqe=256) failed: Connection timed out
[1741419514.574015] [ohm:1661325:0]        ib_iface.c:1059 UCX  ERROR ibv_create_cq(cqe=256) failed: Connection timed out
[1741419514.575291] [ohm:1661371:0]        ib_iface.c:1059 UCX  ERROR ibv_create_cq(cqe=256) failed: Connection timed out
[1741419514.575569] [ohm:1661300:0]        ib_iface.c:1059 UCX  ERROR ibv_create_cq(cqe=256) failed: Connection timed out
[1741419514.576300] [ohm:1661321:0]        ib_iface.c:1059 UCX  ERROR ibv_create_cq(cqe=256) failed: Connection timed out
[1741419514.576528] [ohm:1661372:0]        ib_iface.c:1059 UCX  ERROR ibv_create_cq(cqe=256) failed: Connection timed out
[1741419514.578198] [ohm:1661352:0]        ib_iface.c:1059 UCX  ERROR ibv_create_cq(cqe=256) failed: Connection timed out
[1741419514.578933] [ohm:1661362:0]        ib_iface.c:1059 UCX  ERROR ibv_create_cq(cqe=256) failed: Connection timed out
[1741419514.582888] [ohm:1661288:0]        ib_iface.c:1059 UCX  ERROR ibv_create_cq(cqe=256) failed: Connection timed out
[1741419514.583380] [ohm:1661397:0]        ib_iface.c:1059 UCX  ERROR ibv_create_cq(cqe=256) failed: Connection timed out


           ************************************************************
           *        Program running with 64 parallel MPI-processes    *
           *              working on a common directory               *
           ************************************************************
------------------------------------------------------------------------------
                             ORCA STARTUP CALCULATIONS
                           -- RI-GTO INTEGRALS CHOSEN --
------------------------------------------------------------------------------
------------------------------------------------------------------------------
                   ___                                                        
                  /   \      - P O W E R E D   B Y -                         
                 /     \                                                     
                 |  |  |   _    _      __       _____    __    __             
                 |  |  |  | |  | |    /  \     |  _  \  |  |  /  |          
                  \  \/   | |  | |   /    \    | | | |  |  | /  /          
                 / \  \   | |__| |  /  /\  \   | |_| |  |  |/  /          
                |  |  |   |  __  | /  /__\  \  |    /   |      \           
                |  |  |   | |  | | |   __   |  |    \   |  |\   \          
                \     /   | |  | | |  |  |  |  | |\  \  |  | \   \       
                 \___/    |_|  |_| |__|  |__|  |_| \__\ |__|  \__/        
                                                                              
                      - O R C A' S   B I G   F R I E N D -                    
                                      &                                       
                       - I N T E G R A L  F E E D E R -                       
                                                                              
 v1 FN, 2020, v2 2021, v3 2022-2024                                           
------------------------------------------------------------------------------


----------------------
SHARK INTEGRAL PACKAGE
----------------------

Number of atoms                             ...     30
Number of basis functions                   ...    882
Number of shells                            ...    322
Maximum angular momentum                    ...      3
Integral batch strategy                     ... SHARK/LIBINT Hybrid
RI-J (if used) integral strategy            ... SPLIT-RIJ (Revised 2003 algorithm where possible)
Printlevel                                  ...      1
Contraction scheme used                     ... SEGMENTED contraction
Prescreening option                         ... SCHWARTZ
   Thresh                                   ... 2.500e-11
   Tcut                                     ... 2.500e-12
   Tpresel                                  ... 2.500e-12 
Coulomb Range Separation                    ... NOT USED
Exchange Range Separation                   ... Long Range
   Mu parameter                             ... 3.000e-01
   Scaling (regular/separated)              ... 1.500e-01 8.500e-01
Multipole approximations                    ... NOT USED
Finite Nucleus Model                        ... NOT USED
CABS basis                                  ... NOT available
Auxiliary Coulomb fitting basis             ... AVAILABLE
   # of basis functions in Aux-J            ...   1014
   # of shells in Aux-J                     ...    330
   Maximum angular momentum in Aux-J        ...      4
Auxiliary J/K fitting basis                 ... NOT available
Auxiliary Correlation fitting basis         ... NOT available
Auxiliary 'external' fitting basis          ... NOT available

Checking pre-screening integrals            ... done (  0.0 sec) Dimension = 322
Check shell pair data                       ... done (  0.0 sec)
Shell pair information
Shell pair cut-off parameter TPreSel        ...   2.5e-12
Total number of shell pairs                 ...     52003
Shell pairs after pre-screening             ...     44633
Total number of primitive shell pairs       ...    129718
Primitive shell pairs kept                  ...     83413
          la=0 lb=0:   8660 shell pairs
          la=1 lb=0:  11836 shell pairs
          la=1 lb=1:   4090 shell pairs
          la=2 lb=0:   8015 shell pairs
          la=2 lb=1:   5550 shell pairs
          la=2 lb=2:   1906 shell pairs
          la=3 lb=0:   2033 shell pairs
          la=3 lb=1:   1436 shell pairs
          la=3 lb=2:    973 shell pairs
          la=3 lb=3:    134 shell pairs

Calculating one electron integrals          ... done (  0.2 sec)
Calculating RI/J V-Matrix + Cholesky decomp.... done (  0.1 sec)
Calculating Nuclear repulsion               ... done (  0.0 sec) ENN=   1418.990079239028 Eh

Diagonalization of the overlap matrix:
Smallest eigenvalue                        ... 5.920e-07
Time for diagonalization                   ...    0.129 sec
Threshold for overlap eigenvalues          ... 1.000e-07
Number of eigenvalues below threshold      ... 0

IMPORTANT:
Smallest eigenvalue of S below the DiffSThresh (1.000e-06) while
Thresh>1e-12 and/or TCut>1e-13! In order to avoid SCF convergence issues,
Thresh will be set to at least 1e-12 and TCut to at least 1e-13.
This can be turned off by adding %SCF DiffSThresh -1 END to the input.

Time for construction of square roots      ...    0.131 sec
Total time needed                          ...    0.272 sec

-------------------
DFT GRID GENERATION
-------------------

General Integration Accuracy     IntAcc      ... 4.388
Radial Grid Type                 RadialGrid  ... OptM3 with GC (2021)
Angular Grid (max. ang.)         AngularGrid ... 4 (Lebedev-302)
Angular grid pruning method      GridPruning ... 4 (adaptive)
Weight generation scheme         WeightScheme... mBecke (2022)
Basis function cutoff            BFCut       ... 1.0000e-11
Integration weight cutoff        WCut        ... 1.0000e-14
Partially contracted basis set               ... off
Rotationally invariant grid construction     ... off
Angular grids for H and He will be reduced by one unit
Diffuse basis detected: some atoms will have their outermost
                        angular grid increased by 1.

Total number of grid points                  ...   151750
Total number of batches                      ...     2385
Average number of points per batch           ...       63
Average number of grid points per atom       ...     5058

--------------------
COSX GRID GENERATION
--------------------

GRIDX 1
-------
General Integration Accuracy     IntAcc      ... 3.816
Radial Grid Type                 RadialGrid  ... OptM3 with GC (2021)
Angular Grid (max. ang.)         AngularGrid ... 1 (Lebedev-50)
Angular grid pruning method      GridPruning ... 4 (adaptive)
Weight generation scheme         WeightScheme... mBecke (2022)
Basis function cutoff            BFCut       ... 1.0000e-11
Integration weight cutoff        WCut        ... 1.0000e-14
Partially contracted basis set               ... on
Rotationally invariant grid construction     ... off
Angular grids for H and He will be reduced by one unit
Diffuse basis detected: some atoms will have their outermost
                        angular grid increased by 1.

Total number of grid points                  ...    19032
Total number of batches                      ...      167
Average number of points per batch           ...      113
Average number of grid points per atom       ...      634
UseSFitting                                  ... on

GRIDX 2
-------
General Integration Accuracy     IntAcc      ... 4.020
Radial Grid Type                 RadialGrid  ... OptM3 with GC (2021)
Angular Grid (max. ang.)         AngularGrid ... 2 (Lebedev-110)
Angular grid pruning method      GridPruning ... 4 (adaptive)
Weight generation scheme         WeightScheme... mBecke (2022)
Basis function cutoff            BFCut       ... 1.0000e-11
Integration weight cutoff        WCut        ... 1.0000e-14
Partially contracted basis set               ... on
Rotationally invariant grid construction     ... off
Angular grids for H and He will be reduced by one unit
Diffuse basis detected: some atoms will have their outermost
                        angular grid increased by 1.

Total number of grid points                  ...    45853
Total number of batches                      ...      373
Average number of points per batch           ...      122
Average number of grid points per atom       ...     1528
UseSFitting                                  ... on

GRIDX 3
-------
General Integration Accuracy     IntAcc      ... 4.338
Radial Grid Type                 RadialGrid  ... OptM3 with GC (2021)
Angular Grid (max. ang.)         AngularGrid ... 3 (Lebedev-194)
Angular grid pruning method      GridPruning ... 4 (adaptive)
Weight generation scheme         WeightScheme... mBecke (2022)
Basis function cutoff            BFCut       ... 1.0000e-11
Integration weight cutoff        WCut        ... 1.0000e-14
Partially contracted basis set               ... on
Rotationally invariant grid construction     ... off
Angular grids for H and He will be reduced by one unit
Diffuse basis detected: some atoms will have their outermost
                        angular grid increased by 1.

Total number of grid points                  ...   100848
Total number of batches                      ...      805
Average number of points per batch           ...      125
Average number of grid points per atom       ...     3362
UseSFitting                                  ... on
Initializing property integral containers    ... done (  0.0 sec)

SHARK setup successfully completed in   4.1 seconds

Maximum memory used throughout the entire STARTUP-calculation: 79.6 MB
[1741419520.572248] [ohm:1661618:0]        ib_iface.c:1059 UCX  ERROR ibv_create_cq(cqe=256) failed: Connection timed out
[1741419520.633267] [ohm:1661619:0]        ib_iface.c:1059 UCX  ERROR ibv_create_cq(cqe=256) failed: Connection timed out
[1741419520.639856] [ohm:1661631:0]        ib_iface.c:1059 UCX  ERROR ibv_create_cq(cqe=256) failed: Connection timed out
[1741419520.644497] [ohm:1661623:0]        ib_iface.c:1059 UCX  ERROR ibv_create_cq(cqe=256) failed: Connection timed out
[1741419520.647625] [ohm:1661616:0]        ib_iface.c:1059 UCX  ERROR ibv_create_cq(cqe=256) failed: Connection timed out
[1741419520.649460] [ohm:1661622:0]        ib_iface.c:1059 UCX  ERROR ibv_create_cq(cqe=256) failed: Connection timed out
[1741419520.655406] [ohm:1661621:0]        ib_iface.c:1059 UCX  ERROR ibv_create_cq(cqe=256) failed: Connection timed out
[1741419520.666897] [ohm:1661644:0]        ib_iface.c:1059 UCX  ERROR ibv_create_cq(cqe=256) failed: Connection timed out
[1741419520.672774] [ohm:1661641:0]        ib_iface.c:1059 UCX  ERROR ibv_create_cq(cqe=256) failed: Connection timed out
[1741419520.683113] [ohm:1661640:0]        ib_iface.c:1059 UCX  ERROR ibv_create_cq(cqe=256) failed: Connection timed out
[1741419520.687158] [ohm:1661620:0]        ib_iface.c:1059 UCX  ERROR ibv_create_cq(cqe=256) failed: Connection timed out
[1741419520.696277] [ohm:1661630:0]        ib_iface.c:1059 UCX  ERROR ibv_create_cq(cqe=256) failed: Connection timed out
[1741419520.699861] [ohm:1661625:0]        ib_iface.c:1059 UCX  ERROR ibv_create_cq(cqe=256) failed: Connection timed out
[1741419520.714731] [ohm:1661639:0]        ib_iface.c:1059 UCX  ERROR ibv_create_cq(cqe=256) failed: Connection timed out
[1741419520.758128] [ohm:1661628:0]        ib_iface.c:1059 UCX  ERROR ibv_create_cq(cqe=256) failed: Connection timed out
[1741419520.764374] [ohm:1661719:0]        ib_iface.c:1059 UCX  ERROR ibv_create_cq(cqe=256) failed: Connection timed out
[1741419520.783213] [ohm:1661646:0]        ib_iface.c:1059 UCX  ERROR ibv_create_cq(cqe=256) failed: Connection timed out
[1741419520.809618] [ohm:1661636:0]        ib_iface.c:1059 UCX  ERROR ibv_create_cq(cqe=256) failed: Connection timed out
[1741419520.822760] [ohm:1661694:0]        ib_iface.c:1059 UCX  ERROR ibv_create_cq(cqe=256) failed: Connection timed out
[1741419520.826358] [ohm:1661713:0]        ib_iface.c:1059 UCX  ERROR ibv_create_cq(cqe=256) failed: Connection timed out
[1741419520.829968] [ohm:1661692:0]        ib_iface.c:1059 UCX  ERROR ibv_create_cq(cqe=256) failed: Connection timed out
[1741419520.832850] [ohm:1661635:0]        ib_iface.c:1059 UCX  ERROR ibv_create_cq(cqe=256) failed: Connection timed out
[1741419520.838491] [ohm:1661645:0]        ib_iface.c:1059 UCX  ERROR ibv_create_cq(cqe=256) failed: Connection timed out
[1741419520.842018] [ohm:1661632:0]        ib_iface.c:1059 UCX  ERROR ibv_create_cq(cqe=256) failed: Connection timed out
[1741419520.857951] [ohm:1661617:0]        ib_iface.c:1059 UCX  ERROR ibv_create_cq(cqe=256) failed: Connection timed out
[1741419520.861047] [ohm:1661761:0]        ib_iface.c:1059 UCX  ERROR ibv_create_cq(cqe=256) failed: Connection timed out
[1741419520.863452] [ohm:1661643:0]        ib_iface.c:1059 UCX  ERROR ibv_create_cq(cqe=256) failed: Connection timed out
[1741419520.893647] [ohm:1661633:0]        ib_iface.c:1059 UCX  ERROR ibv_create_cq(cqe=256) failed: Connection timed out
[1741419520.895654] [ohm:1661732:0]        ib_iface.c:1059 UCX  ERROR ibv_create_cq(cqe=256) failed: Connection timed out
[1741419520.899346] [ohm:1661709:0]        ib_iface.c:1059 UCX  ERROR ibv_create_cq(cqe=256) failed: Connection timed out
[1741419520.903750] [ohm:1661652:0]        ib_iface.c:1059 UCX  ERROR ibv_create_cq(cqe=256) failed: Connection timed out
[1741419520.911798] [ohm:1661677:0]        ib_iface.c:1059 UCX  ERROR ibv_create_cq(cqe=256) failed: Connection timed out
[1741419520.912320] [ohm:1661686:0]        ib_iface.c:1059 UCX  ERROR ibv_create_cq(cqe=256) failed: Connection timed out
[1741419520.913514] [ohm:1661739:0]        ib_iface.c:1059 UCX  ERROR ibv_create_cq(cqe=256) failed: Connection timed out
[1741419520.913707] [ohm:1661661:0]        ib_iface.c:1059 UCX  ERROR ibv_create_cq(cqe=256) failed: Connection timed out
[1741419520.914707] [ohm:1661703:0]        ib_iface.c:1059 UCX  ERROR ibv_create_cq(cqe=256) failed: Connection timed out
[1741419520.920011] [ohm:1661730:0]        ib_iface.c:1059 UCX  ERROR ibv_create_cq(cqe=256) failed: Connection timed out
[1741419520.920504] [ohm:1661722:0]        ib_iface.c:1059 UCX  ERROR ibv_create_cq(cqe=256) failed: Connection timed out
[1741419520.922264] [ohm:1661702:0]        ib_iface.c:1059 UCX  ERROR ibv_create_cq(cqe=256) failed: Connection timed out
[1741419520.929418] [ohm:1661712:0]        ib_iface.c:1059 UCX  ERROR ibv_create_cq(cqe=256) failed: Connection timed out
[1741419520.942226] [ohm:1661651:0]        ib_iface.c:1059 UCX  ERROR ibv_create_cq(cqe=256) failed: Connection timed out
[1741419520.944345] [ohm:1661634:0]        ib_iface.c:1059 UCX  ERROR ibv_create_cq(cqe=256) failed: Connection timed out
[1741419520.944365] [ohm:1661752:0]        ib_iface.c:1059 UCX  ERROR ibv_create_cq(cqe=256) failed: Connection timed out
[1741419520.944541] [ohm:1661736:0]        ib_iface.c:1059 UCX  ERROR ibv_create_cq(cqe=256) failed: Connection timed out
[1741419520.947844] [ohm:1661629:0]        ib_iface.c:1059 UCX  ERROR ibv_create_cq(cqe=256) failed: Connection timed out
[1741419520.949410] [ohm:1661626:0]        ib_iface.c:1059 UCX  ERROR ibv_create_cq(cqe=256) failed: Connection timed out
[1741419520.954618] [ohm:1661642:0]        ib_iface.c:1059 UCX  ERROR ibv_create_cq(cqe=256) failed: Connection timed out
[1741419520.957204] [ohm:1661750:0]        ib_iface.c:1059 UCX  ERROR ibv_create_cq(cqe=256) failed: Connection timed out
[1741419520.965509] [ohm:1661624:0]        ib_iface.c:1059 UCX  ERROR ibv_create_cq(cqe=256) failed: Connection timed out
[1741419520.968557] [ohm:1661672:0]        ib_iface.c:1059 UCX  ERROR ibv_create_cq(cqe=256) failed: Connection timed out
[1741419520.969233] [ohm:1661638:0]        ib_iface.c:1059 UCX  ERROR ibv_create_cq(cqe=256) failed: Connection timed out
[1741419520.969510] [ohm:1661684:0]        ib_iface.c:1059 UCX  ERROR ibv_create_cq(cqe=256) failed: Connection timed out
[1741419520.975240] [ohm:1661757:0]        ib_iface.c:1059 UCX  ERROR ibv_create_cq(cqe=256) failed: Connection timed out
[1741419520.975758] [ohm:1661745:0]        ib_iface.c:1059 UCX  ERROR ibv_create_cq(cqe=256) failed: Connection timed out
[1741419520.975834] [ohm:1661637:0]        ib_iface.c:1059 UCX  ERROR ibv_create_cq(cqe=256) failed: Connection timed out
[1741419520.978675] [ohm:1661742:0]        ib_iface.c:1059 UCX  ERROR ibv_create_cq(cqe=256) failed: Connection timed out
[1741419520.979382] [ohm:1661668:0]        ib_iface.c:1059 UCX  ERROR ibv_create_cq(cqe=256) failed: Connection timed out
[1741419520.979720] [ohm:1661657:0]        ib_iface.c:1059 UCX  ERROR ibv_create_cq(cqe=256) failed: Connection timed out
[1741419520.980349] [ohm:1661679:0]        ib_iface.c:1059 UCX  ERROR ibv_create_cq(cqe=256) failed: Connection timed out
[1741419520.981545] [ohm:1661708:0]        ib_iface.c:1059 UCX  ERROR ibv_create_cq(cqe=256) failed: Connection timed out
[1741419520.981677] [ohm:1661665:0]        ib_iface.c:1059 UCX  ERROR ibv_create_cq(cqe=256) failed: Connection timed out
[1741419520.982914] [ohm:1661747:0]        ib_iface.c:1059 UCX  ERROR ibv_create_cq(cqe=256) failed: Connection timed out
[1741419520.982991] [ohm:1661724:0]        ib_iface.c:1059 UCX  ERROR ibv_create_cq(cqe=256) failed: Connection timed out
[1741419520.983462] [ohm:1661627:0]        ib_iface.c:1059 UCX  ERROR ibv_create_cq(cqe=256) failed: Connection timed out


           ************************************************************
           *        Program running with 64 parallel MPI-processes    *
           *              working on a common directory               *
           ************************************************************
-------------------------------------------------------------------------------
                                 ORCA GUESS
                   Start orbitals & Density for SCF / CASSCF
-------------------------------------------------------------------------------

------------
SCF SETTINGS
------------
Hamiltonian:
 Density Functional     Method          .... DFT(GTOs)
  Functional kind                       .... Exchange-Correlation
  Functional name                       .... wB97M-V exchange-correlation functional
  Functional family                     .... Hybrid MGGA
  Functional refs                              
    [ 0] N. Mardirossian and M. Head-Gordon.,  J. Chem. Phys. 144, 214110 (2016), doi: 10.1063/1.4952647
  Fraction of HF Exchange (short range) .... 0.1500
  Fraction of HF Exchange (long range)  .... 1.0000
  Range separation parameter mu         .... 0.3000
  Functional external parameters        .... 17
    Parameter  0 _cx00      =  8.500000e-01 : u^00 coefficient for exchange
    Parameter  1 _cx01      =  1.007000e+00 : u^01 coefficient for exchange
    Parameter  2 _cx10      =  2.590000e-01 : u^10 coefficient for exchange
    Parameter  3 _css00     =  4.430000e-01 : u^00 coefficient for same-spin correlation
    Parameter  4 _css04     = -1.437000e+00 : u^04 coefficient for same-spin correlation
    Parameter  5 _css10     = -4.535000e+00 : u^10 coefficient for same-spin correlation
    Parameter  6 _css20     = -3.390000e+00 : u^20 coefficient for same-spin correlation
    Parameter  7 _css43     =  4.278000e+00 : u^43 coefficient for same-spin correlation
    Parameter  8 _cos00     =  1.000000e+00 : u^00 coefficient for opposite-spin correlation
    Parameter  9 _cos10     =  1.358000e+00 : u^10 coefficient for opposite-spin correlation
    Parameter 10 _cos20     =  2.924000e+00 : u^20 coefficient for opposite-spin correlation
    Parameter 11 _cos21     = -8.812000e+00 : u^21 coefficient for opposite-spin correlation
    Parameter 12 _cos60     = -1.390000e+00 : u^60 coefficient for opposite-spin correlation
    Parameter 13 _cos61     =  9.142000e+00 : u^61 coefficient for opposite-spin correlation
    Parameter 14 _alpha     =  1.000000e+00 : fraction of HF exchange
    Parameter 15 _beta      = -8.500000e-01 : fraction of short-range exchange
    Parameter 16 _omega     =  3.000000e-01 : range-separation constant
 Long-range corrected/Screened/Range-Separated Hybrid DFT is turned on
   Amount of maximum screened exact exchange              ....  0.850000
   Range separation parameter mu (erf(mu*r12)/r12)        ....  0.300000
 RI-approximation to the Coulomb term is turned on
   Number of AuxJ basis functions       .... 1014
   RIJ-COSX (HFX calculated with COS-X)).... on


General Settings:
 Integral files         IntName         .... orca
 Hartree-Fock type      HFTyp           .... UHF
 Total Charge           Charge          ....    0
 Multiplicity           Mult            ....    3
 Number of Electrons    NEL             ....  132
 Basis Dimension        Dim             ....  882
 Nuclear Repulsion      ENuc            ....   1418.9900792390 Eh

Convergence Acceleration:
 AO-DIIS                CNVDIIS         .... on
   Start iteration      DIISMaxIt       ....    12
   Startup error        DIISStart       ....  0.200000
   # of expansion vecs  DIISMaxEq       ....     5
   Bias factor          DIISBfac        ....   1.050
   Max. coefficient     DIISMaxC        ....  10.000
 MO-DIIS                CNVKDIIS        .... off
 Trust-Rad. Augm. Hess. CNVTRAH         .... auto
   Auto Start mean grad. ratio tolernc. ....  1.125000
   Auto Start start iteration           ....    50
   Auto Start num. interpolation iter.  ....    10
   Max. Number of Micro iterations      ....    24
   Max. Number of Macro iterations      .... Maxiter - #DIIS iter
   Number of Davidson start vectors     ....     2
   Converg. threshold    (grad. norm)   ....   1.000e-05
   Grad. Scal. Fac. for Micro threshold ....   0.100
   Minimum threshold for Micro iter.    ....   1.000e-02
   NR start threshold (gradient norm)   ....   1.000e-04
   Initial trust radius                 ....   0.400
   Minimum AH scaling param. (alpha)    ....   1.000
   Maximum AH scaling param. (alpha)    .... 1000.000
   Quad. conv. algorithm                .... NR
   White noise on init. David. guess    .... on
   Maximum white noise                  ....   0.010
   Pseudo random numbers                .... off
   Inactive MOs                         .... canonical
   Orbital update algorithm             .... Taylor
   Preconditioner                       .... Diag
   Full preconditioner red. dimension   ....   250
 SOSCF                  CNVSOSCF        .... on
   Start iteration      SOSCFMaxIt      ....   150
   Startup grad/error   SOSCFStart      ....  0.003300
   Hessian update       SOSCFHessUp     .... L-BFGS
 Level Shifting         CNVShift        .... on
   Level shift para.    LevelShift      ....    0.2500
   Turn off err/grad.   ShiftErr        ....    0.0010
 Zerner damping         CNVZerner       .... off
 Static damping         CNVDamp         .... on
   Fraction old density DampFac         ....    0.7000
   Max. Damping (<1)    DampMax         ....    0.9800
   Min. Damping (>=0)   DampMin         ....    0.0000
   Turn off err/grad.   DampErr         ....    0.1000

SCF Procedure:
 Maximum # iterations   MaxIter         ....   125
 SCF integral mode      SCFMode         .... Direct
   Integral package                     .... SHARK and LIBINT hybrid scheme
 Reset frequency        DirectResetFreq ....    20
 Integral Threshold     Thresh          ....  1.000e-12 Eh
 Primitive CutOff       TCut            ....  1.000e-13 Eh

Convergence Tolerance:
 Convergence Check Mode ConvCheckMode   .... Total+1el-Energy
 Convergence forced     ConvForced      .... 1
 Energy Change          TolE            ....  1.000e-08 Eh
 1-El. energy change                    ....  1.000e-05 Eh
 Orbital Gradient       TolG            ....  1.000e-05
 Orbital Rotation angle TolX            ....  1.000e-05
 DIIS Error             TolErr          ....  5.000e-07

------------------------------
INITIAL GUESS: MODEL POTENTIAL
------------------------------
Loading Hartree-Fock densities                     ... done
Calculating cut-offs                               ... done
Initializing the effective Hamiltonian             ... done
Setting up the integral package (SHARK)            ... done
Starting the Coulomb interaction                   ... done (   0.1 sec)
Making the grid                                    ... done (   0.2 sec)
Mapping shells                                     ... done
Starting the XC term evaluation                    ... done (   0.1 sec)
  promolecular density results
     # of electrons  =    131.990869565
     EX              =   -113.569641378
     EC              =     -4.500039399
     EX+EC           =   -118.069680776
Transforming the Hamiltonian                       ... done (   0.1 sec)
Diagonalizing the Hamiltonian                      ... done (   0.1 sec)
Back transforming the eigenvectors                 ... done (   0.1 sec)
Now organizing SCF variables                       ... done
                      ------------------
                      INITIAL GUESS DONE (   1.1 sec)
                      ------------------
             **** ENERGY FILE WAS UPDATED (orca.en.tmp) ****
Finished Guess after   3.6 sec
Maximum memory used throughout the entire GUESS-calculation: 71.9 MB
[1741419524.701490] [ohm:1661973:0]        ib_iface.c:1059 UCX  ERROR ibv_create_cq(cqe=256) failed: Connection timed out
[1741419524.707911] [ohm:1661970:0]        ib_iface.c:1059 UCX  ERROR ibv_create_cq(cqe=256) failed: Connection timed out
[1741419524.710205] [ohm:1661972:0]        ib_iface.c:1059 UCX  ERROR ibv_create_cq(cqe=256) failed: Connection timed out
[1741419524.710311] [ohm:1661971:0]        ib_iface.c:1059 UCX  ERROR ibv_create_cq(cqe=256) failed: Connection timed out
[1741419524.732682] [ohm:1661976:0]        ib_iface.c:1059 UCX  ERROR ibv_create_cq(cqe=256) failed: Connection timed out
[1741419524.736019] [ohm:1661978:0]        ib_iface.c:1059 UCX  ERROR ibv_create_cq(cqe=256) failed: Connection timed out
[1741419524.767834] [ohm:1661975:0]        ib_iface.c:1059 UCX  ERROR ibv_create_cq(cqe=256) failed: Connection timed out
[1741419524.774722] [ohm:1661980:0]        ib_iface.c:1059 UCX  ERROR ibv_create_cq(cqe=256) failed: Connection timed out
[1741419524.776552] [ohm:1662030:0]        ib_iface.c:1059 UCX  ERROR ibv_create_cq(cqe=256) failed: Connection timed out
[1741419524.779301] [ohm:1662045:0]        ib_iface.c:1059 UCX  ERROR ibv_create_cq(cqe=256) failed: Connection timed out
[1741419524.781844] [ohm:1661974:0]        ib_iface.c:1059 UCX  ERROR ibv_create_cq(cqe=256) failed: Connection timed out
[1741419524.783559] [ohm:1661979:0]        ib_iface.c:1059 UCX  ERROR ibv_create_cq(cqe=256) failed: Connection timed out
[1741419524.783628] [ohm:1661981:0]        ib_iface.c:1059 UCX  ERROR ibv_create_cq(cqe=256) failed: Connection timed out
[1741419524.786202] [ohm:1661982:0]        ib_iface.c:1059 UCX  ERROR ibv_create_cq(cqe=256) failed: Connection timed out
[1741419524.801910] [ohm:1662079:0]        ib_iface.c:1059 UCX  ERROR ibv_create_cq(cqe=256) failed: Connection timed out
[1741419524.824120] [ohm:1662083:0]        ib_iface.c:1059 UCX  ERROR ibv_create_cq(cqe=256) failed: Connection timed out
[1741419524.836711] [ohm:1662065:0]        ib_iface.c:1059 UCX  ERROR ibv_create_cq(cqe=256) failed: Connection timed out
[1741419524.841639] [ohm:1662112:0]        ib_iface.c:1059 UCX  ERROR ibv_create_cq(cqe=256) failed: Connection timed out
[1741419524.843704] [ohm:1662034:0]        ib_iface.c:1059 UCX  ERROR ibv_create_cq(cqe=256) failed: Connection timed out
[1741419524.854291] [ohm:1662043:0]        ib_iface.c:1059 UCX  ERROR ibv_create_cq(cqe=256) failed: Connection timed out
[1741419524.856964] [ohm:1662039:0]        ib_iface.c:1059 UCX  ERROR ibv_create_cq(cqe=256) failed: Connection timed out
[1741419524.863573] [ohm:1662049:0]        ib_iface.c:1059 UCX  ERROR ibv_create_cq(cqe=256) failed: Connection timed out
[1741419524.893571] [ohm:1662005:0]        ib_iface.c:1059 UCX  ERROR ibv_create_cq(cqe=256) failed: Connection timed out
[1741419524.898288] [ohm:1662093:0]        ib_iface.c:1059 UCX  ERROR ibv_create_cq(cqe=256) failed: Connection timed out
[1741419524.914758] [ohm:1661983:0]        ib_iface.c:1059 UCX  ERROR ibv_create_cq(cqe=256) failed: Connection timed out
[1741419524.923078] [ohm:1662013:0]        ib_iface.c:1059 UCX  ERROR ibv_create_cq(cqe=256) failed: Connection timed out
[1741419524.934565] [ohm:1662055:0]        ib_iface.c:1059 UCX  ERROR ibv_create_cq(cqe=256) failed: Connection timed out
[1741419524.936871] [ohm:1662053:0]        ib_iface.c:1059 UCX  ERROR ibv_create_cq(cqe=256) failed: Connection timed out
[1741419524.937839] [ohm:1662037:0]        ib_iface.c:1059 UCX  ERROR ibv_create_cq(cqe=256) failed: Connection timed out
[1741419524.939183] [ohm:1662061:0]        ib_iface.c:1059 UCX  ERROR ibv_create_cq(cqe=256) failed: Connection timed out
[1741419524.944753] [ohm:1662109:0]        ib_iface.c:1059 UCX  ERROR ibv_create_cq(cqe=256) failed: Connection timed out
[1741419524.948156] [ohm:1662087:0]        ib_iface.c:1059 UCX  ERROR ibv_create_cq(cqe=256) failed: Connection timed out
[1741419524.949849] [ohm:1662033:0]        ib_iface.c:1059 UCX  ERROR ibv_create_cq(cqe=256) failed: Connection timed out
[1741419524.950254] [ohm:1662063:0]        ib_iface.c:1059 UCX  ERROR ibv_create_cq(cqe=256) failed: Connection timed out
[1741419524.950780] [ohm:1662036:0]        ib_iface.c:1059 UCX  ERROR ibv_create_cq(cqe=256) failed: Connection timed out
[1741419524.959942] [ohm:1662072:0]        ib_iface.c:1059 UCX  ERROR ibv_create_cq(cqe=256) failed: Connection timed out
[1741419524.973097] [ohm:1661984:0]        ib_iface.c:1059 UCX  ERROR ibv_create_cq(cqe=256) failed: Connection timed out
[1741419524.979608] [ohm:1662042:0]        ib_iface.c:1059 UCX  ERROR ibv_create_cq(cqe=256) failed: Connection timed out
[1741419524.979657] [ohm:1662028:0]        ib_iface.c:1059 UCX  ERROR ibv_create_cq(cqe=256) failed: Connection timed out
[1741419524.982745] [ohm:1662008:0]        ib_iface.c:1059 UCX  ERROR ibv_create_cq(cqe=256) failed: Connection timed out
[1741419524.983322] [ohm:1662114:0]        ib_iface.c:1059 UCX  ERROR ibv_create_cq(cqe=256) failed: Connection timed out
[1741419524.986896] [ohm:1662011:0]        ib_iface.c:1059 UCX  ERROR ibv_create_cq(cqe=256) failed: Connection timed out
[1741419524.987574] [ohm:1662095:0]        ib_iface.c:1059 UCX  ERROR ibv_create_cq(cqe=256) failed: Connection timed out
[1741419524.988999] [ohm:1662041:0]        ib_iface.c:1059 UCX  ERROR ibv_create_cq(cqe=256) failed: Connection timed out
[1741419524.991818] [ohm:1662019:0]        ib_iface.c:1059 UCX  ERROR ibv_create_cq(cqe=256) failed: Connection timed out
[1741419524.995228] [ohm:1662021:0]        ib_iface.c:1059 UCX  ERROR ibv_create_cq(cqe=256) failed: Connection timed out
[1741419525.000665] [ohm:1662040:0]        ib_iface.c:1059 UCX  ERROR ibv_create_cq(cqe=256) failed: Connection timed out
[1741419525.003642] [ohm:1662069:0]        ib_iface.c:1059 UCX  ERROR ibv_create_cq(cqe=256) failed: Connection timed out
[1741419525.009239] [ohm:1662027:0]        ib_iface.c:1059 UCX  ERROR ibv_create_cq(cqe=256) failed: Connection timed out
[1741419525.011796] [ohm:1662102:0]        ib_iface.c:1059 UCX  ERROR ibv_create_cq(cqe=256) failed: Connection timed out
[1741419525.011938] [ohm:1661977:0]        ib_iface.c:1059 UCX  ERROR ibv_create_cq(cqe=256) failed: Connection timed out
[1741419525.014114] [ohm:1662031:0]        ib_iface.c:1059 UCX  ERROR ibv_create_cq(cqe=256) failed: Connection timed out
[1741419525.014749] [ohm:1662098:0]        ib_iface.c:1059 UCX  ERROR ibv_create_cq(cqe=256) failed: Connection timed out
[1741419525.015861] [ohm:1662075:0]        ib_iface.c:1059 UCX  ERROR ibv_create_cq(cqe=256) failed: Connection timed out
[1741419525.017804] [ohm:1662038:0]        ib_iface.c:1059 UCX  ERROR ibv_create_cq(cqe=256) failed: Connection timed out
[1741419525.018528] [ohm:1662046:0]        ib_iface.c:1059 UCX  ERROR ibv_create_cq(cqe=256) failed: Connection timed out
[1741419525.018738] [ohm:1662035:0]        ib_iface.c:1059 UCX  ERROR ibv_create_cq(cqe=256) failed: Connection timed out
[1741419525.019000] [ohm:1662105:0]        ib_iface.c:1059 UCX  ERROR ibv_create_cq(cqe=256) failed: Connection timed out
[1741419525.020241] [ohm:1662044:0]        ib_iface.c:1059 UCX  ERROR ibv_create_cq(cqe=256) failed: Connection timed out
[1741419525.020366] [ohm:1661985:0]        ib_iface.c:1059 UCX  ERROR ibv_create_cq(cqe=256) failed: Connection timed out
[1741419525.022119] [ohm:1662048:0]        ib_iface.c:1059 UCX  ERROR ibv_create_cq(cqe=256) failed: Connection timed out
[1741419525.023241] [ohm:1662006:0]        ib_iface.c:1059 UCX  ERROR ibv_create_cq(cqe=256) failed: Connection timed out
[1741419525.024089] [ohm:1662032:0]        ib_iface.c:1059 UCX  ERROR ibv_create_cq(cqe=256) failed: Connection timed out
[1741419525.025654] [ohm:1661986:0]        ib_iface.c:1059 UCX  ERROR ibv_create_cq(cqe=256) failed: Connection timed out


           ************************************************************
           *        Program running with 64 parallel MPI-processes    *
           *              working on a common directory               *
           ************************************************************

-------------------------------------------------------------------------------------------
                                      ORCA LEAN-SCF
                              memory conserving SCF solver
-------------------------------------------------------------------------------------------

----------------------------------------D-I-I-S--------------------------------------------
Iteration    Energy (Eh)           Delta-E    RMSDP     MaxDP     DIISErr   Damp  Time(sec)
-------------------------------------------------------------------------------------------
               ***  Starting incremental Fock matrix formation  ***
    1    -908.1052431288628668     0.00e+00  1.79e-03  3.40e-01  1.48e-01  0.700   7.7
    2    -908.3754327385156557    -2.70e-01  1.44e-03  2.17e-01  7.06e-02  0.700   6.5
                               ***Turning on AO-DIIS***
    3    -908.4927337169344810    -1.17e-01  1.04e-03  1.61e-01  2.94e-02  0.700   5.8
    4    -908.5653023576317082    -7.26e-02  2.47e-03  4.89e-01  1.92e-02  0.000   5.7
    5    -908.7288200233781481    -1.64e-01  3.01e-04  7.16e-02  6.03e-03  0.000   5.9
                              *** Initializing SOSCF ***
---------------------------------------S-O-S-C-F--------------------------------------
Iteration    Energy (Eh)           Delta-E    RMSDP     MaxDP     MaxGrad    Time(sec)
--------------------------------------------------------------------------------------
    6    -908.7301404132570042    -1.32e-03  1.41e-04  4.14e-02  3.13e-03     6.5
               *** Restarting incremental Fock matrix formation ***
    7    -908.7307364354130641    -5.96e-04  2.13e-04  3.18e-02  3.80e-03     7.5
    8    -908.7311366289552552    -4.00e-04  2.63e-04  8.02e-02  2.01e-03     6.8
    9    -908.7312916341277287    -1.55e-04  1.23e-04  1.68e-02  1.01e-03     6.8
   10    -908.7313700792658437    -7.84e-05  3.46e-05  1.16e-02  4.04e-04     6.5
   11    -908.7313812937461535    -1.12e-05  1.14e-05  2.00e-03  1.90e-04     6.3
   12    -908.7313839931009625    -2.70e-06  8.97e-06  2.72e-03  1.65e-04     6.2
   13    -908.7313853821385692    -1.39e-06  5.19e-06  6.44e-04  3.90e-05     6.1
   14    -908.7313855788900128    -1.97e-07  2.45e-06  8.08e-04  2.64e-05     6.1
   15    -908.7313856595126254    -8.06e-08  1.98e-06  4.96e-04  1.05e-05     5.8
   16    -908.7313856825805942    -2.31e-08  1.07e-06  2.71e-04  5.02e-06     5.7
   17    -908.7313857263577574    -4.38e-08  1.69e-06  4.29e-04  2.78e-06     5.5
   18    -908.7313856749553906     5.14e-08  1.28e-06  3.93e-04  1.03e-06     5.4
                  *** Gradient check signals convergence ***

               *****************************************************
               *                     SUCCESS                       *
               *           SCF CONVERGED AFTER  18 CYCLES          *
               *****************************************************

Recomputing exchange energy using gridx3       ... done (    7.922 sec)
Old exchange energy                            :    -35.047084314 Eh
New exchange energy                            :    -35.047096608 Eh
Exchange energy change after final integration :     -0.000012294 Eh
Total energy after final integration           :   -908.731397969 Eh
             **** ENERGY FILE WAS UPDATED (orca.en.tmp) ****

----------------
TOTAL SCF ENERGY
----------------

Total Energy       :       -908.73139796891553 Eh          -24727.83848 eV

Components:
Nuclear Repulsion  :       1418.99007923902786 Eh           38612.68309 eV
Electronic Energy  :      -2327.72146491398325 Eh          -63340.52123 eV
One Electron Energy:      -4054.50950790784373 Eh         -110328.81272 eV
Two Electron Energy:       1726.78804299386070 Eh           46988.29149 eV

Virial components:
Potential Energy   :      -1814.58276329832415 Eh          -49377.30728 eV
Kinetic Energy     :        905.85136532940874 Eh           24649.46881 eV
Virial Ratio       :          2.00317936556673

DFT components:
N(Alpha)           :       66.999871113711 electrons
N(Beta)            :       64.999899485213 electrons
N(Total)           :      131.999770598925 electrons
E(XC)              :      -86.290782988342 Eh       

---------------
SCF CONVERGENCE
---------------

  Last Energy change         ...   -5.1402e-08  Tolerance :   1.0000e-08
  Last MAX-Density change    ...    3.9317e-04  Tolerance :   1.0000e-07
  Last RMS-Density change    ...    1.2766e-06  Tolerance :   5.0000e-09
  Last DIIS Error            ...    3.1338e-03  Tolerance :   5.0000e-07
  Last Orbital Gradient      ...    1.0253e-06  Tolerance :   1.0000e-05
  Last Orbital Rotation      ...    7.8591e-06  Tolerance :   1.0000e-05


----------------------
UHF SPIN CONTAMINATION
----------------------

Warning: in a DFT calculation there is little theoretical justification to 
         calculate <S**2> as in Hartree-Fock theory. We will do it anyways
         but you should keep in mind that the values have only limited relevance

Expectation value of <S**2>     :     2.015692
Ideal value S*(S+1) for S=1.0   :     2.000000
Deviation                       :     0.015692

----------------
ORBITAL ENERGIES
----------------
                 SPIN UP ORBITALS
  NO   OCC          E(Eh)            E(eV) 
   0   1.0000     -19.341490      -526.3087 
   1   1.0000     -19.336757      -526.1799 
   2   1.0000     -19.326168      -525.8918 
   3   1.0000     -19.322138      -525.7821 
   4   1.0000     -14.579336      -396.7239 
   5   1.0000     -14.565912      -396.3586 
   6   1.0000     -14.565033      -396.3347 
   7   1.0000     -14.562891      -396.2764 
   8   1.0000     -10.518457      -286.2218 
   9   1.0000     -10.514159      -286.1048 
  10   1.0000     -10.492278      -285.5094 
  11   1.0000     -10.481198      -285.2079 
  12   1.0000     -10.442590      -284.1573 
  13   1.0000     -10.430342      -283.8240 
  14   1.0000     -10.428874      -283.7841 
  15   1.0000     -10.418304      -283.4965 
  16   1.0000     -10.382910      -282.5334 
  17   1.0000     -10.372342      -282.2458 
  18   1.0000      -1.218575       -33.1591 
  19   1.0000      -1.214197       -33.0400 
  20   1.0000      -1.193341       -32.4724 
  21   1.0000      -1.187068       -32.3018 
  22   1.0000      -1.122908       -30.5559 
  23   1.0000      -1.102387       -29.9975 
  24   1.0000      -1.077881       -29.3306 
  25   1.0000      -1.061850       -28.8944 
  26   1.0000      -0.984078       -26.7781 
  27   1.0000      -0.961422       -26.1616 
  28   1.0000      -0.895077       -24.3563 
  29   1.0000      -0.855282       -23.2734 
  30   1.0000      -0.835419       -22.7329 
  31   1.0000      -0.809955       -22.0400 
  32   1.0000      -0.795455       -21.6454 
  33   1.0000      -0.790683       -21.5156 
  34   1.0000      -0.708664       -19.2837 
  35   1.0000      -0.706030       -19.2120 
  36   1.0000      -0.697360       -18.9761 
  37   1.0000      -0.689585       -18.7646 
  38   1.0000      -0.650199       -17.6928 
  39   1.0000      -0.649897       -17.6846 
  40   1.0000      -0.630161       -17.1476 
  41   1.0000      -0.609202       -16.5772 
  42   1.0000      -0.604954       -16.4616 
  43   1.0000      -0.596602       -16.2344 
  44   1.0000      -0.577850       -15.7241 
  45   1.0000      -0.574316       -15.6279 
  46   1.0000      -0.566585       -15.4176 
  47   1.0000      -0.563450       -15.3323 
  48   1.0000      -0.560776       -15.2595 
  49   1.0000      -0.556316       -15.1381 
  50   1.0000      -0.553009       -15.0481 
  51   1.0000      -0.536832       -14.6080 
  52   1.0000      -0.524983       -14.2855 
  53   1.0000      -0.521486       -14.1903 
  54   1.0000      -0.516829       -14.0636 
  55   1.0000      -0.513202       -13.9649 
  56   1.0000      -0.504292       -13.7225 
  57   1.0000      -0.423022       -11.5110 
  58   1.0000      -0.420911       -11.4536 
  59   1.0000      -0.414329       -11.2745 
  60   1.0000      -0.410250       -11.1635 
  61   1.0000      -0.403108       -10.9691 
  62   1.0000      -0.395412       -10.7597 
  63   1.0000      -0.394768       -10.7422 
  64   1.0000      -0.381415       -10.3788 
  65   1.0000      -0.357068        -9.7163 
  66   1.0000      -0.328100        -8.9280 
  67   0.0000       0.008338         0.2269 
  68   0.0000       0.029062         0.7908 
  69   0.0000       0.031775         0.8646 
  70   0.0000       0.033511         0.9119 
  71   0.0000       0.048663         1.3242 
  72   0.0000       0.053887         1.4664 
  73   0.0000       0.056269         1.5312 
  74   0.0000       0.061026         1.6606 
  75   0.0000       0.063725         1.7340 
  76   0.0000       0.064868         1.7652 
  77   0.0000       0.067217         1.8291 

                 SPIN DOWN ORBITALS
  NO   OCC          E(Eh)            E(eV) 
   0   1.0000     -19.336965      -526.1856 
   1   1.0000     -19.331892      -526.0475 
   2   1.0000     -19.326067      -525.8890 
   3   1.0000     -19.322164      -525.7828 
   4   1.0000     -14.578643      -396.7051 
   5   1.0000     -14.565612      -396.3505 
   6   1.0000     -14.564917      -396.3315 
   7   1.0000     -14.562779      -396.2734 
   8   1.0000     -10.518505      -286.2231 
   9   1.0000     -10.514164      -286.1050 
  10   1.0000     -10.493352      -285.5386 
  11   1.0000     -10.482154      -285.2339 
  12   1.0000     -10.441958      -284.1401 
  13   1.0000     -10.428389      -283.7709 
  14   1.0000     -10.418958      -283.5143 
  15   1.0000     -10.407101      -283.1916 
  16   1.0000     -10.383476      -282.5487 
  17   1.0000     -10.372796      -282.2581 
  18   1.0000      -1.215949       -33.0877 
  19   1.0000      -1.211554       -32.9681 
  20   1.0000      -1.188746       -32.3474 
  21   1.0000      -1.182884       -32.1879 
  22   1.0000      -1.120061       -30.4784 
  23   1.0000      -1.100115       -29.9356 
  24   1.0000      -1.075604       -29.2687 
  25   1.0000      -1.060487       -28.8573 
  26   1.0000      -0.972549       -26.4644 
  27   1.0000      -0.943598       -25.6766 
  28   1.0000      -0.888479       -24.1767 
  29   1.0000      -0.850366       -23.1396 
  30   1.0000      -0.827498       -22.5174 
  31   1.0000      -0.805408       -21.9163 
  32   1.0000      -0.794073       -21.6078 
  33   1.0000      -0.787638       -21.4327 
  34   1.0000      -0.702548       -19.1173 
  35   1.0000      -0.701127       -19.0786 
  36   1.0000      -0.690831       -18.7985 
  37   1.0000      -0.684608       -18.6291 
  38   1.0000      -0.647169       -17.6104 
  39   1.0000      -0.634782       -17.2733 
  40   1.0000      -0.626199       -17.0397 
  41   1.0000      -0.603721       -16.4281 
  42   1.0000      -0.597435       -16.2570 
  43   1.0000      -0.590122       -16.0580 
  44   1.0000      -0.571990       -15.5646 
  45   1.0000      -0.565084       -15.3767 
  46   1.0000      -0.561512       -15.2795 
  47   1.0000      -0.560329       -15.2473 
  48   1.0000      -0.554998       -15.1023 
  49   1.0000      -0.549463       -14.9516 
  50   1.0000      -0.539670       -14.6852 
  51   1.0000      -0.531066       -14.4510 
  52   1.0000      -0.518386       -14.1060 
  53   1.0000      -0.513354       -13.9691 
  54   1.0000      -0.511822       -13.9274 
  55   1.0000      -0.502153       -13.6643 
  56   1.0000      -0.497489       -13.5374 
  57   1.0000      -0.417790       -11.3686 
  58   1.0000      -0.415970       -11.3191 
  59   1.0000      -0.405283       -11.0283 
  60   1.0000      -0.397456       -10.8153 
  61   1.0000      -0.395213       -10.7543 
  62   1.0000      -0.391139       -10.6434 
  63   1.0000      -0.390235       -10.6188 
  64   1.0000      -0.372933       -10.1480 
  65   0.0000      -0.074280        -2.0213 
  66   0.0000      -0.049833        -1.3560 
  67   0.0000       0.007626         0.2075 
  68   0.0000       0.028115         0.7650 
  69   0.0000       0.031597         0.8598 
  70   0.0000       0.033394         0.9087 
  71   0.0000       0.052329         1.4239 
  72   0.0000       0.055241         1.5032 
  73   0.0000       0.056020         1.5244 
  74   0.0000       0.062352         1.6967 
  75   0.0000       0.064575         1.7572 
*Only the first 10 virtual orbitals were printed.

                    ********************************
                    * MULLIKEN POPULATION ANALYSIS *
                    ********************************

--------------------------------------------
MULLIKEN ATOMIC CHARGES AND SPIN POPULATIONS
--------------------------------------------
   0 O :   -0.685901    0.166769
   1 O :   -0.667147    0.179090
   2 O :   -0.669787   -0.000736
   3 O :   -0.669361    0.003349
   4 N :   -0.216908    0.028791
   5 N :   -0.171087    0.017877
   6 N :   -0.014095    0.028761
   7 N :   -0.064692    0.010350
   8 C :   -0.282012    0.418924
   9 C :    0.149516    0.467726
  10 C :    0.339938    0.128959
  11 C :    0.363344    0.127716
  12 C :   -1.392063   -0.013230
  13 C :   -1.381670    0.055821
  14 C :    0.483131    0.141240
  15 C :    0.300898    0.068813
  16 C :    0.411283    0.001539
  17 C :    0.417247   -0.001393
  18 H :    0.905650    0.040789
  19 H :    0.673806    0.055413
  20 H :    0.277459    0.022473
  21 H :    0.353291    0.005663
  22 H :    0.319578    0.008516
  23 H :    0.282620    0.028100
  24 H :    0.388111    0.013263
  25 H :    0.330286   -0.002746
  26 H :    0.059594   -0.001397
  27 H :    0.018292   -0.000388
  28 H :    0.047103   -0.001718
  29 H :    0.093575    0.001667
Sum of atomic charges         :   -0.0000000
Sum of atomic spin populations:    2.0000000

-----------------------------------------------------
MULLIKEN REDUCED ORBITAL CHARGES AND SPIN POPULATIONS
-----------------------------------------------------
CHARGE
  0 O s       :     4.111685  s :     4.111685
      pz      :     1.726491  p :     4.544568
      px      :     1.382513
      py      :     1.435563
      dz2     :     0.002142  d :     0.027851
      dxz     :     0.005462
      dyz     :     0.003951
      dx2y2   :     0.006217
      dxy     :     0.010079
[...]
[1741419816.850315] [ohm:1664475:0]        ib_iface.c:1059 UCX  ERROR ibv_create_cq(cqe=256) failed: Connection timed out
[1741419816.851711] [ohm:1664482:0]        ib_iface.c:1059 UCX  ERROR ibv_create_cq(cqe=256) failed: Connection timed out
[1741419816.852072] [ohm:1664582:0]        ib_iface.c:1059 UCX  ERROR ibv_create_cq(cqe=256) failed: Connection timed out
[1741419816.852804] [ohm:1664539:0]        ib_iface.c:1059 UCX  ERROR ibv_create_cq(cqe=256) failed: Connection timed out
[1741419816.853164] [ohm:1664559:0]        ib_iface.c:1059 UCX  ERROR ibv_create_cq(cqe=256) failed: Connection timed out
[1741419816.853137] [ohm:1664568:0]        ib_iface.c:1059 UCX  ERROR ibv_create_cq(cqe=256) failed: Connection timed out
[1741419816.853161] [ohm:1664565:0]        ib_iface.c:1059 UCX  ERROR ibv_create_cq(cqe=256) failed: Connection timed out
[1741419816.855341] [ohm:1664554:0]        ib_iface.c:1059 UCX  ERROR ibv_create_cq(cqe=256) failed: Connection timed out
[1741419816.856410] [ohm:1664587:0]        ib_iface.c:1059 UCX  ERROR ibv_create_cq(cqe=256) failed: Connection timed out
[1741419816.857973] [ohm:1664573:0]        ib_iface.c:1059 UCX  ERROR ibv_create_cq(cqe=256) failed: Connection timed out


           ************************************************************
           *        Program running with 64 parallel MPI-processes    *
           *              working on a common directory               *
           ************************************************************

------------------------------------------------------------------------------
                              ORCA PROPERTY CALCULATIONS
------------------------------------------------------------------------------

GBWName                                 ... orca.gbw
Number of atoms                         ...     30
Number of basis functions               ...    882
Max core memory                         ...   1024 MB

Electric properties:
Dipole moment                           ... YES
Quadrupole moment                       ...  NO
Static polarizability (Dipole/Dipole)   ...  NO
Static polarizability (Dipole/Quad.)    ...  NO
Static polarizability (Quad./Quad.)     ...  NO
Static polarizability (Velocity)        ...  NO

Atomic electric properties:
Dipole moment                           ...  NO
Quadrupole moment                       ...  NO
Static polarizability                   ...  NO

Choice of electric origin               ... Center of mass
Position of electric origin             ...    -0.013497    -0.091393    -0.049221

General magnetic properties:
Magnetizability                         ...  NO

EPR properties:
g-Tensor (aka g-matrix)                 ...  NO
Zero-Field splitting spin-orbit         ...  NO
Zero-field splitting spin-spin          ...  NO
Hyperfine couplings                     ...  NO (   0 nuclei)
Quadrupole couplings                    ...  NO (   0 nuclei)
Contact density                         ...  NO (   0 nuclei)

NMR properties:
Chemical shifts                         ...  NO (   0 nuclei)
Spin-rotation constants                 ...  NO (   0 nuclei)
Spin-spin couplings                     ...  NO (   0 nuclei,    0 pairs)

Choice of magnetic origin               ... GIAO
Position of magnetic origin             ...     0.000000     0.000000     0.000000

Properties with geometric perturbations:
SCF Hessian                             ...  NO
IR spectrum                             ...  NO
VCD spectrum                            ...  NO
X-ray spectroscopy properties:
SCF XES/XAS/RIXS spectra                ...  NO


-------------
DIPOLE MOMENT
-------------

Method             : SCF
Type of density    : Electron Density
Multiplicity       :   3
Irrep              :   0
Energy             :  -908.7313979689155303 Eh
Relativity type    : 
Basis              : AO
                                X                 Y                 Z
Electronic contribution:     -8.591070447      -2.278679635      -1.684317844
Nuclear contribution   :     10.435688226       2.412899386       2.991259577
                        -----------------------------------------
Total Dipole Moment    :      1.844617779       0.134219751       1.306941733
                        -----------------------------------------
Magnitude (a.u.)       :      2.264669156
Magnitude (Debye)      :      5.756331530



--------------------
Rotational spectrum 
--------------------
 
Rotational constants in cm-1:             0.022839             0.011425             0.009973 
Rotational constants in MHz :           684.695556           342.511239           298.978332 

Dipole components along the rotational axes: 
x,y,z [a.u.] :     0.600677     2.166419     0.273024 
x,y,z [Debye]:     1.526799     5.506600     0.693971 

 

-------------
DIPOLE MOMENT
-------------

Method             : TDA/CIS
Type of density    : Electron Density
Level              : Relaxed density
State              :   2
Multiplicity       :   3
Irrep              :   0
Energy             :     0.0000000000000000 Eh
Relativity type    : 
Basis              : AO
                                X                 Y                 Z
Electronic contribution:     -8.564899582      -2.282462469      -1.620819064
Nuclear contribution   :     10.435688226       2.412899386       2.991259577
                        -----------------------------------------
Total Dipole Moment    :      1.870788644       0.130436917       1.370440513
                        -----------------------------------------
Magnitude (a.u.)       :      2.322707717
Magnitude (Debye)      :      5.903853831



--------------------
Rotational spectrum 
--------------------
 
Rotational constants in cm-1:             0.022839             0.011425             0.009973 
Rotational constants in MHz :           684.695556           342.511239           298.978332 

Dipole components along the rotational axes: 
x,y,z [a.u.] :     0.587922     2.232246     0.257678 
x,y,z [Debye]:     1.494378     5.673918     0.654967 

 

Dipole moment calculation done in   0.2 sec 

Maximum memory used throughout the entire PROP-calculation: 81.2 MB
[1741419819.185549] [ohm:1664799:0]        ib_iface.c:1059 UCX  ERROR ibv_create_cq(cqe=256) failed: Connection timed out
[1741419819.197343] [ohm:1664790:0]        ib_iface.c:1059 UCX  ERROR ibv_create_cq(cqe=256) failed: Connection timed out
[1741419819.205903] [ohm:1664795:0]        ib_iface.c:1059 UCX  ERROR ibv_create_cq(cqe=256) failed: Connection timed out
[1741419819.239326] [ohm:1664789:0]        ib_iface.c:1059 UCX  ERROR ibv_create_cq(cqe=256) failed: Connection timed out
[1741419819.283107] [ohm:1664811:0]        ib_iface.c:1059 UCX  ERROR ibv_create_cq(cqe=256) failed: Connection timed out
[1741419819.286274] [ohm:1664802:0]        ib_iface.c:1059 UCX  ERROR ibv_create_cq(cqe=256) failed: Connection timed out
[1741419819.297696] [ohm:1664794:0]        ib_iface.c:1059 UCX  ERROR ibv_create_cq(cqe=256) failed: Connection timed out
[1741419819.297855] [ohm:1664820:0]        ib_iface.c:1059 UCX  ERROR ibv_create_cq(cqe=256) failed: Connection timed out
[1741419819.299961] [ohm:1664808:0]        ib_iface.c:1059 UCX  ERROR ibv_create_cq(cqe=256) failed: Connection timed out
[1741419819.302574] [ohm:1664801:0]        ib_iface.c:1059 UCX  ERROR ibv_create_cq(cqe=256) failed: Connection timed out
[1741419819.303315] [ohm:1664798:0]        ib_iface.c:1059 UCX  ERROR ibv_create_cq(cqe=256) failed: Connection timed out
[1741419819.303657] [ohm:1664817:0]        ib_iface.c:1059 UCX  ERROR ibv_create_cq(cqe=256) failed: Connection timed out
[1741419819.304918] [ohm:1664873:0]        ib_iface.c:1059 UCX  ERROR ibv_create_cq(cqe=256) failed: Connection timed out
[1741419819.305260] [ohm:1664846:0]        ib_iface.c:1059 UCX  ERROR ibv_create_cq(cqe=256) failed: Connection timed out
[1741419819.307303] [ohm:1664857:0]        ib_iface.c:1059 UCX  ERROR ibv_create_cq(cqe=256) failed: Connection timed out
[1741419819.307867] [ohm:1664877:0]        ib_iface.c:1059 UCX  ERROR ibv_create_cq(cqe=256) failed: Connection timed out
[1741419819.344664] [ohm:1664816:0]        ib_iface.c:1059 UCX  ERROR ibv_create_cq(cqe=256) failed: Connection timed out
[1741419819.347132] [ohm:1664803:0]        ib_iface.c:1059 UCX  ERROR ibv_create_cq(cqe=256) failed: Connection timed out
[1741419819.356883] [ohm:1664868:0]        ib_iface.c:1059 UCX  ERROR ibv_create_cq(cqe=256) failed: Connection timed out
[1741419819.362606] [ohm:1664852:0]        ib_iface.c:1059 UCX  ERROR ibv_create_cq(cqe=256) failed: Connection timed out
[1741419819.391742] [ohm:1664826:0]        ib_iface.c:1059 UCX  ERROR ibv_create_cq(cqe=256) failed: Connection timed out
[1741419819.405602] [ohm:1664935:0]        ib_iface.c:1059 UCX  ERROR ibv_create_cq(cqe=256) failed: Connection timed out
[1741419819.410755] [ohm:1664923:0]        ib_iface.c:1059 UCX  ERROR ibv_create_cq(cqe=256) failed: Connection timed out
[1741419819.413677] [ohm:1664812:0]        ib_iface.c:1059 UCX  ERROR ibv_create_cq(cqe=256) failed: Connection timed out
[1741419819.422666] [ohm:1664833:0]        ib_iface.c:1059 UCX  ERROR ibv_create_cq(cqe=256) failed: Connection timed out
[1741419819.426080] [ohm:1664909:0]        ib_iface.c:1059 UCX  ERROR ibv_create_cq(cqe=256) failed: Connection timed out
[1741419819.428959] [ohm:1664839:0]        ib_iface.c:1059 UCX  ERROR ibv_create_cq(cqe=256) failed: Connection timed out
[1741419819.429147] [ohm:1664813:0]        ib_iface.c:1059 UCX  ERROR ibv_create_cq(cqe=256) failed: Connection timed out
[1741419819.429567] [ohm:1664859:0]        ib_iface.c:1059 UCX  ERROR ibv_create_cq(cqe=256) failed: Connection timed out
[1741419819.429954] [ohm:1664890:0]        ib_iface.c:1059 UCX  ERROR ibv_create_cq(cqe=256) failed: Connection timed out
[1741419819.429957] [ohm:1664906:0]        ib_iface.c:1059 UCX  ERROR ibv_create_cq(cqe=256) failed: Connection timed out
[1741419819.431961] [ohm:1664809:0]        ib_iface.c:1059 UCX  ERROR ibv_create_cq(cqe=256) failed: Connection timed out
[1741419819.434860] [ohm:1664841:0]        ib_iface.c:1059 UCX  ERROR ibv_create_cq(cqe=256) failed: Connection timed out
[1741419819.440717] [ohm:1664848:0]        ib_iface.c:1059 UCX  ERROR ibv_create_cq(cqe=256) failed: Connection timed out
[1741419819.440776] [ohm:1664879:0]        ib_iface.c:1059 UCX  ERROR ibv_create_cq(cqe=256) failed: Connection timed out
[1741419819.451485] [ohm:1664915:0]        ib_iface.c:1059 UCX  ERROR ibv_create_cq(cqe=256) failed: Connection timed out
[1741419819.456513] [ohm:1664805:0]        ib_iface.c:1059 UCX  ERROR ibv_create_cq(cqe=256) failed: Connection timed out
[1741419819.470242] [ohm:1664796:0]        ib_iface.c:1059 UCX  ERROR ibv_create_cq(cqe=256) failed: Connection timed out
[1741419819.470863] [ohm:1664810:0]        ib_iface.c:1059 UCX  ERROR ibv_create_cq(cqe=256) failed: Connection timed out
[1741419819.474748] [ohm:1664920:0]        ib_iface.c:1059 UCX  ERROR ibv_create_cq(cqe=256) failed: Connection timed out
[1741419819.474790] [ohm:1664864:0]        ib_iface.c:1059 UCX  ERROR ibv_create_cq(cqe=256) failed: Connection timed out
[1741419819.478617] [ohm:1664927:0]        ib_iface.c:1059 UCX  ERROR ibv_create_cq(cqe=256) failed: Connection timed out
[1741419819.487439] [ohm:1664912:0]        ib_iface.c:1059 UCX  ERROR ibv_create_cq(cqe=256) failed: Connection timed out
[1741419819.489167] [ohm:1664814:0]        ib_iface.c:1059 UCX  ERROR ibv_create_cq(cqe=256) failed: Connection timed out
[1741419819.491917] [ohm:1664894:0]        ib_iface.c:1059 UCX  ERROR ibv_create_cq(cqe=256) failed: Connection timed out
[1741419819.491921] [ohm:1664791:0]        ib_iface.c:1059 UCX  ERROR ibv_create_cq(cqe=256) failed: Connection timed out
[1741419819.494077] [ohm:1664930:0]        ib_iface.c:1059 UCX  ERROR ibv_create_cq(cqe=256) failed: Connection timed out
[1741419819.495626] [ohm:1664792:0]        ib_iface.c:1059 UCX  ERROR ibv_create_cq(cqe=256) failed: Connection timed out
[1741419819.505169] [ohm:1664806:0]        ib_iface.c:1059 UCX  ERROR ibv_create_cq(cqe=256) failed: Connection timed out
[1741419819.507461] [ohm:1664822:0]        ib_iface.c:1059 UCX  ERROR ibv_create_cq(cqe=256) failed: Connection timed out
[1741419819.512682] [ohm:1664807:0]        ib_iface.c:1059 UCX  ERROR ibv_create_cq(cqe=256) failed: Connection timed out
[1741419819.520035] [ohm:1664797:0]        ib_iface.c:1059 UCX  ERROR ibv_create_cq(cqe=256) failed: Connection timed out
[1741419819.523318] [ohm:1664903:0]        ib_iface.c:1059 UCX  ERROR ibv_create_cq(cqe=256) failed: Connection timed out
[1741419819.523430] [ohm:1664901:0]        ib_iface.c:1059 UCX  ERROR ibv_create_cq(cqe=256) failed: Connection timed out
[1741419819.527125] [ohm:1664886:0]        ib_iface.c:1059 UCX  ERROR ibv_create_cq(cqe=256) failed: Connection timed out
[1741419819.527479] [ohm:1664815:0]        ib_iface.c:1059 UCX  ERROR ibv_create_cq(cqe=256) failed: Connection timed out
[1741419819.527628] [ohm:1664881:0]        ib_iface.c:1059 UCX  ERROR ibv_create_cq(cqe=256) failed: Connection timed out
[1741419819.532873] [ohm:1664793:0]        ib_iface.c:1059 UCX  ERROR ibv_create_cq(cqe=256) failed: Connection timed out
[1741419819.533066] [ohm:1664804:0]        ib_iface.c:1059 UCX  ERROR ibv_create_cq(cqe=256) failed: Connection timed out
[1741419819.533160] [ohm:1664831:0]        ib_iface.c:1059 UCX  ERROR ibv_create_cq(cqe=256) failed: Connection timed out
[1741419819.534566] [ohm:1664896:0]        ib_iface.c:1059 UCX  ERROR ibv_create_cq(cqe=256) failed: Connection timed out
[1741419819.538115] [ohm:1664837:0]        ib_iface.c:1059 UCX  ERROR ibv_create_cq(cqe=256) failed: Connection timed out
[1741419819.538202] [ohm:1664884:0]        ib_iface.c:1059 UCX  ERROR ibv_create_cq(cqe=256) failed: Connection timed out
[1741419819.538546] [ohm:1664800:0]        ib_iface.c:1059 UCX  ERROR ibv_create_cq(cqe=256) failed: Connection timed out

--------------------------------
SUGGESTED CITATIONS FOR THIS RUN
--------------------------------

Below you find a list of papers that are relevant to this ORCA run
We neither can nor want to force you to cite these papers, but we appreciate if you do
You receive ORCA, which is the product of decades of hard work by many enthusiastic individuals, for free
The only thing we kindly ask in return is that you cite our papers,
We deeply appreciate it, if you show your appreciation for ORCA by not just citing the generic ORCA reference.

Please note that relegating all ORCA citations to the supporting information does *not* help us.
SI sections are not indexed - citations you put there will not count into any citation statistics
But we need these citations in order to attract the funding resources that allow us to do what we are doing

Therefore, if you are a happy ORCA user, please consider citing a few of the papers listed below in the main body of your paper

In addition to the list printed below, the program has created the file orca.bibtex that contains the list in bibtex format
You can import this file easily into all common literature databanks and citation aid programs


List of essential papers. We consider these as the minimum necessary citations

  1. Neese,F.
     Software update: the ORCA program system, version 5.0
     WIRES Comput. Molec. Sci., 2022 12(1)e1606
     doi.org/10.1002/wcms.1606

List of papers to cite with high priority. The work reported in these papers was absolutely
necessary for this run to complete.
Our perspective: the developers of density functionals and basis sets usually get cited in chemistry papers
Good! But without the algorithms to do something with them, the functionals or basis sets would not do anything.
Hence, in our opinion, the algorithm design and method developments papers are equally worthy of getting cited

  1. Neese,F.; Olbrich,G.
     Efficient use of the resolution of the identity approximation in time-dependent density functional calculations with hybrid density functionals
     Chem. Phys. Lett., 2002 362 170-178
     doi.org/10.1016/s0009-2614(02)01053-9
  2. Neese,F.
     An improvement of the resolution of the identity approximation for the formation of the Coulomb matrix
     J. Comp. Chem., 2003 24(14)1740-1747
     doi.org/10.1002/jcc.10318
  3. Neese,F.; Wennmohs,F.; Hansen,A.; Becker,U.
     Efficient, approximate and parallel Hartree-Fock and hybrid DFT calculations. A 'chain-of-spheres' algorithm for the Hartree-Fock exchange
     Chem. Phys., 2009 356(1-3)98-109
     doi.org/10.1016/j.chemphys.2008.10.036
  4. Petrenko,T.; Kossmann,S.; Neese,F.
     Efficient time-dependent density functional theory approximations for hybrid density functionals: Analytical gradients and parallelization
     J. Chem. Phys., 2011 134 054116
     doi.org/10.1063/1.3533441
  5. Helmich-Paris,B.; de Souza,B.; Neese,F.; Izsák,R.
     An improved chain of spheres for exchange algorithm
     J. Chem. Phys., 2021 155 104109
     doi.org/doi: 10.1063/5.0058766.
  6. Neese,F.
     The SHARK Integral Generation and Digestion System
     J. Comp. Chem., 2022  1-16
     doi.org/10.1002/jcc.26942
  7. Lehtola,S.; Steigemann,C.; Oliveira,M.; Marques,M.
     Recent developments in Libxc - A comprehensive library of functionals for density functional theory
     Software X, 2018 7 
     doi.org/10.1016/j.softx.2017.11.002
  8. Grimme,S.; Antony,J.; Ehrlich,S.; Krieg,H.
     A consistent and accurate ab initio parametrization of density functional dispersion correction (DFT-D) for the 94 elements H-Pu
     J. Chem. Phys., 2010 132 154104-XXXX
     doi.org/10.1063/1.3382344
  9. Grimme,S.; Ehrlich,S.; Goerigk,L.
     Effect of the damping function in dispersion corrected density functional theory
     J. Comput. Chem., 2011 32(7)1456-1465
     doi.org/10.1002/jcc.21759

List of suggested additional citations. These are papers that are important in the 'surrounding' of 
of this run, or papers that preceded the highly important papers. If you like your results we are grateful for a citation.

  1. Izsak,R.; Neese,F.
     An overlap fitted chain of spheres exchange method
     J. Chem. Phys., 2011 135 144105
     doi.org/10.1063/1.3646921
  2. Izsak,R.; Hansen,A.; Neese,F.
     The resolution of identity and chain of spheres approximations for the LPNO-CCSD singles Fock term
     Molec. Phys., 2012 110 2413-2417
     doi.org/10.1080/00268976.2012.687466
  3. Neese,F.
     The ORCA program system
     WIRES Comput. Molec. Sci., 2012 2(1)73-78
     doi.org/10.1002/wcms.81
  4. Izsak,R.; Neese,F.; Klopper,W.
     Robust fitting techniques in the chain of spheres approximation to the Fock exchange: The role of the complementary space
     J. Chem. Phys., 2013 139 
     doi.org/10.1063/1.4819264
  5. Neese,F.
     Software update: the ORCA program system, version 4.0
     WIRES Comput. Molec. Sci., 2018 8(1)1-6
     doi.org/10.1002/wcms.1327
  6. Neese,F.; Wennmohs,F.; Becker,U.; Riplinger,C.
     The ORCA quantum chemistry program package
     J. Chem. Phys., 2020 152 Art. No. L224108
     doi.org/10.1063/5.0004608

List of optional additional citations

  1. Neese,F.
     Approximate second-order SCF convergence for spin unrestricted wavefunctions
     Chem. Phys. Lett., 2000 325(1-3)93-98
     doi.org/10.1016/s0009-2614(00)00662-x

Timings for individual modules:

Sum of individual times          ...      305.152 sec (=   5.086 min)
Startup calculation              ...        6.465 sec (=   0.108 min)   2.1 %
SCF iterations                   ...      130.264 sec (=   2.171 min)  42.7 %
Property integrals               ...        4.158 sec (=   0.069 min)   1.4 %
Property calculations            ...        2.797 sec (=   0.047 min)   0.9 %
CIS module                       ...      161.469 sec (=   2.691 min)  52.9 %
                             ****ORCA TERMINATED NORMALLY****
TOTAL RUN TIME: 0 days 0 hours 5 minutes 7 seconds 119 msec
