30
Properties=species:S:1:pos:R:3:momenta:R:3:forces:R:3 Coordinates=T from=T ORCA-job=T orca=T E=T -908.936227737435=T energy=-24728.42927331353 free_energy=-24728.42927331353 stress="1.6178496631326086e-06 2.0370169961251954e-07 -3.229437184305986e-07 2.0370169961251954e-07 1.2615294789762098e-06 -5.095947354647045e-07 -3.229437184305986e-07 -5.095947354647045e-07 -1.627290671180608e-06" pbc="F F F"
O        2.85176701       0.99033569      -0.45261191       1.05056293       0.04081330       0.15441841      -1.43184541      -1.12623196      -0.17912352
O       -0.81279703       0.83904637      -2.42851264      -0.02532646      -0.65805986       0.13033412       0.19455753       0.14623764      -0.77884632
O        0.44748511      -2.80390192      -1.39802686       0.89062735      -0.01719869       0.20154315      -0.12351778      -1.40696133      -0.76167095
O       -2.48059132      -1.49622695       1.06980476      -0.48131190      -0.32514627      -0.21402301      -0.04890714       0.65586878       0.40116186
N        0.55668191      -2.02835847       0.72236188       0.17864642       0.21460054       0.07085168       0.37285493      -0.42985920      -0.07171988
N       -1.99226175       0.69408501       1.46713713      -0.08371832      -0.00960147       0.29663230       1.12706310       0.90216527       0.33014060
N        1.49564162      -0.88653779      -1.00570609       0.15221837       0.17059374      -0.02910758       1.64804104       2.29870964       2.09663223
N       -1.68420158      -0.27932353      -0.65283762      -0.53355493       0.58558242       0.23632144      -0.47794894      -1.03031510       0.69691684
C        1.74396877      -0.02012460       1.33650056      -0.41101866       0.39703110      -0.55128680      -2.37256410      -1.81561788       0.27714585
C       -1.07605980       1.98583414      -0.32678312       0.04390230       0.35081382      -0.89094410       1.12591173      -0.01589149      -3.99272894
C        0.96288326      -1.11779885       1.69204628      -0.81134505       0.26987764       0.55562466       0.69731190       0.48774430      -1.36655357
C       -1.23800529       1.78420762       1.06694313       0.13829638       0.12521820      -0.57659892      -0.83050547      -0.52306598       1.30662812
C        2.27218577       0.92324177       2.33095156       1.15565987       0.94120120      -1.06299052       0.47992297       0.32169062      -0.22713628
C       -0.65017735       3.34264973      -0.86538795      -0.15218122      -0.26334293       0.24577411       1.74585347      -1.11229028      -0.99503795
C        2.04101685       0.11228911      -0.10310881       0.05165208      -1.15526194      -0.06159175       1.25650406       0.33186307      -1.03005532
C       -1.15610921       0.87583153      -1.25275698      -1.08249831       0.22990638       0.32998731      -0.60877004       1.13628991       0.99192547
C        0.89503148      -2.04839818      -0.59110221       0.04413065      -0.28630292       0.96115565      -1.16363252       1.36666819       0.28224622
C       -2.09841621      -0.40929553       0.66613137      -0.97061417      -0.56234217       0.56995437       0.01110661      -1.63982513      -1.81809308
H        0.87442975      -1.62408275       2.62915626       0.22850329      -0.26036596      -0.16842834       0.10681128       0.56762803       0.79555684
H       -0.88372515       2.54493253       1.68430702       0.10968243      -0.13222765       0.06269074      -0.19228062       0.45183524       1.27532717
H        1.50426361       1.36123684       2.98883829       0.08108504       0.14033838       0.26285088       0.30319318      -0.43397914      -0.01947803
H        3.05529758       0.39479560       2.85760012       0.02809479       0.18827725      -0.07133294      -0.04446443       0.00722468       0.73656470
H        2.78647240       1.71415726       1.82837723      -0.10569064      -0.12641562       0.08631124       0.12569790       0.50139285      -0.25363462
H       -0.67369580       3.44988617      -2.03244991       0.26747661       0.30399702      -0.17389286      -0.35696204      -0.55740985       1.92293643
H       -1.20731988       4.10750150      -0.39835636      -0.41685776       0.18261250       0.05757761      -0.52748708       0.75807408       0.27311942
H        0.45797800       3.51936641      -0.63173016      -0.13881292       0.06330283      -0.28410985      -1.04986256      -0.12101504      -0.08608415
H       -0.09839334      -2.74261249       0.93276802       0.02898383      -0.14011184       0.05236873      -0.28816843      -0.30432283       0.28620902
H       -2.08851551       0.43481531       2.43333443       0.27740991      -0.00301938      -0.04665784       0.07187848       0.19045030       0.23912575
H        1.67859654      -0.71775930      -1.96803974       0.24841709      -0.32987060      -0.05418150       0.08632949      -0.18490481      -0.47960432
H       -1.75415092      -1.15879918      -1.17868888       0.23758102       0.06510098      -0.08925040       0.16387887       0.57784743       0.14813042
