7
Properties=species:S:1:pos:R:3:momenta:R:3:forces:R:3 Coordinates=T from=T ORCA-job=T orca=T E=T -153.851947508303=T energy=-4182.272851547324 free_energy=-4182.272851547324 stress="-1.612753068967496e-05 -2.398771966867858e-05 -1.0249977455229085e-06 -2.398771966867858e-05 -3.9596646621686613e-05 4.242334353768714e-07 -1.0249977455229085e-06 4.242334353768714e-07 -9.39167305695707e-07" pbc="F F F"
O        0.18942711       0.92064988       0.00064435       0.61974704       1.39142716       0.21933734       2.90199832       4.90579850      -0.03037881
C        0.65998951      -0.35909048      -0.00216171      -0.11922753      -0.54251052      -0.23798850      -0.33030691      -1.08017597      -0.13917923
C       -0.73903383      -0.62530428       0.00117426      -0.66193469      -1.10391514       0.03990851      -2.55872638      -4.68568446       0.12443475
H        1.22356977      -0.63025121       0.89244797       0.06244607       0.10979111      -0.02526332       0.22177949       0.32444706       0.02631855
H        1.23011019      -0.63623742      -0.90086649       0.11343717       0.08218848      -0.06630715       0.06948902       0.40669740       0.14744891
H       -1.27489064      -0.68061625      -0.91916220      -0.00666598       0.01194415       0.04433123      -0.18206300       0.06551100      -0.21699329
H       -1.26884888      -0.67377609       0.93068215      -0.00780209       0.05107475       0.02598189      -0.12217054       0.06340648       0.08834912
