30
Properties=species:S:1:pos:R:3:momenta:R:3:forces:R:3 Coordinates=T from=T ORCA-job=T orca=T E=T -908.819404455468=T energy=-24728.832244512356 free_energy=-24728.832244512356 stress="2.6805190336998283e-06 7.296083494453122e-07 7.508589914637177e-08 7.296083494453122e-07 4.2165310085561144e-06 1.2389932540034773e-06 7.508589914637177e-08 1.2389932540034773e-06 2.9281956328989552e-06" pbc="F F F"
O        3.26760565       0.57917976      -0.77058860       0.33450006       0.19266534      -0.03784409      -0.34086348      -0.32139689       0.72353213
O       -1.09195604       1.29022286      -2.48877643      -0.55906757      -0.06422302       0.26883189       0.07980350       0.25424774       1.19414959
O        0.58820104      -3.00127855      -0.65296602       0.09086625       0.16155002       0.97237887      -0.67951100       0.06861109       0.26479016
O       -3.30182307      -1.63148046       0.00947752      -0.49766227      -0.08940843       1.19452535       0.49243611       0.90674880       0.61958106
N        0.33230547      -1.50154984       1.08956141      -0.40255435       0.57560255      -0.86709576      -0.07066772      -0.77628383      -1.50840005
N       -2.01407443      -0.02320182       1.15806078      -0.92285660       0.31543576       0.08937166      -1.30625011      -0.53220602      -0.22972237
N        1.90950038      -1.24561459      -0.62378551       0.32601801       0.21189119      -0.02230235       1.42771554       1.27772415      -0.77598038
N       -1.80690638      -0.40072724      -1.11690021      -0.34417241      -0.14663858       0.17142445       0.97042178       1.80939515       0.05133416
C        1.71217490       0.44996269       1.04707871       0.71489393      -0.43320245       0.20364295       0.83813969       1.20533400       0.69070813
C       -0.68554556       1.54552746      -0.10568747      -0.54021616      -0.60933646      -0.18342992      -0.44729870       0.52135161      -0.54997968
C        0.46503752      -0.16613918       1.56868268       0.74874181      -0.84907188       0.21260844       0.02917429       0.54544388      -1.28226829
C       -0.81895879       0.81053368       1.18855874      -0.03947026       1.07228029      -0.15485733       0.09187065      -0.88725153      -0.55513655
C        2.27834494       1.76195968       1.60210586      -0.51027263       0.87466869      -1.12787434      -0.58728955      -0.60583786       0.43807905
C       -0.28413377       3.00443972      -0.15322282       1.13433891      -0.47123153      -0.55386541      -0.76669870      -0.83245659      -1.03630584
C        2.39976334      -0.02915323      -0.14479304       0.14727475      -0.04256227      -0.13293509      -0.54863340      -0.00319687      -0.35266984
C       -1.20518772       0.91388940      -1.31967777      -0.56296468      -0.22040863      -0.21826612       0.11785513      -1.57202353      -0.82986712
C        0.87574748      -1.95142071      -0.11487677       0.25250245      -0.39081141      -0.30782948       0.02372080      -1.01971498       0.50073295
C       -2.46654558      -0.73265599       0.01810822      -0.04124959      -0.02074893       0.08213415       0.06596327      -0.56296942       0.96855981
H        0.44134836      -0.25181349       2.62504339       0.01413663      -0.07903094       0.09457143       0.09839777       0.46637927       0.95966710
H       -0.86806665       1.53607039       1.98458137       0.12064481       0.18953164      -0.15598075      -0.14800086       0.05885881       0.24719261
H        2.17648150       2.48048703       0.81525753      -0.01690197      -0.21790242       0.13904944       0.20429557       0.44531576      -0.42427199
H        1.74415328       2.21651777       2.48615369       0.25012414       0.19910420      -0.00099625       0.42468323      -0.84628143      -0.59951689
H        3.36195112       1.65996091       1.78803058      -0.01145286       0.22413082       0.04065184      -0.43008649       0.03199426       0.07404665
H       -1.20529207       3.59531752      -0.34647127       0.33803988       0.08379409      -0.08381186       0.28760384      -0.17068871       0.22377997
H        0.11919510       3.28210524       0.79575121      -0.10786895       0.14927927       0.17734296       0.32411344       0.36806105       0.22420536
H        0.35928350       3.24800633      -1.02747307       0.05225512      -0.42150950       0.09909166      -0.07999464      -0.28465830       0.65041080
H       -0.52478677      -2.01486389       1.23600619      -0.07357062       0.01109731       0.18963347      -0.00972974       0.20673274       0.33194749
H       -2.73027113      -0.00131530       1.88641302      -0.05164440      -0.13488670       0.14784575       0.59358657       0.10165610      -0.20870407
H        2.38172888      -1.56709776      -1.48551546       0.26308680       0.16223209      -0.18939559      -0.60349505       0.00897638       0.66928311
H       -1.97399766      -1.01895739      -1.88213259      -0.10549824      -0.23229012      -0.04661999      -0.05126174       0.13813516      -0.47917706
