7
Properties=species:S:1:pos:R:3:momenta:R:3:forces:R:3 Coordinates=T from=T ORCA-job=T orca=T E=T -153.825440110646=T energy=-4183.032521796617 free_energy=-4183.032521796617 stress="-1.3198635112852891e-05 -1.7192103400353855e-05 -5.87040491238225e-07 -1.7192103400353855e-05 -2.8499229902544802e-05 2.963437559256106e-08 -5.87040491238225e-07 2.963437559256106e-08 1.1881968894903503e-06" pbc="F F F"
O        0.29468636       0.98627719      -0.00378681       0.66794364       0.87484737      -0.02684576       1.97629050       3.42233135      -0.01340578
C        0.63689944      -0.31834509       0.00052508      -0.15342847      -0.40915218       0.11926590      -0.33092650      -1.20163373       0.04833324
C       -0.74451571      -0.69271180      -0.00062880      -0.61074571      -0.70833197      -0.14760143      -1.89887265      -3.15600716       0.33855975
H        1.19972736      -0.62180684       0.89736999       0.05345845       0.15023871       0.00566532       0.18524645       0.37068397      -0.17186100
H        1.20169249      -0.62883758      -0.88978775       0.05474729       0.05862166      -0.01839632       0.22283460       0.36678271       0.11311164
H       -1.28941427      -0.70443566      -0.91928866      -0.04719260       0.03649634       0.00543905      -0.15806762       0.09980476      -0.17596623
H       -1.28748045      -0.70536084       0.93348721       0.03521741      -0.00271993       0.06247324       0.00349522       0.09803810      -0.13877162
