
                                 *****************
                                 * O   R   C   A *
                                 *****************

                                            #,                                       
                                            ###                                      
                                            ####                                     
                                            #####                                    
                                            ######                                   
                                           ########,                                 
                                     ,,################,,,,,                         
                               ,,#################################,,                 
                          ,,##########################################,,             
                       ,#########################################, ''#####,          
                    ,#############################################,,   '####,        
                  ,##################################################,,,,####,       
                ,###########''''           ''''###############################       
              ,#####''   ,,,,##########,,,,          '''####'''          '####       
            ,##' ,,,,###########################,,,                        '##       
           ' ,,###''''                  '''############,,,                           
         ,,##''                                '''############,,,,        ,,,,,,###''
      ,#''                                            '''#######################'''  
     '                                                          ''''####''''         
             ,#######,   #######,   ,#######,      ##                                
            ,#'     '#,  ##    ##  ,#'     '#,    #''#        ,####,   ,####,        
            ##       ##  ##   ,#'  ##            #'  '#       #'       #'  '#        
            ##       ##  #######   ##           ,######,      #####,   #    #        
            '#,     ,#'  ##    ##  '#,     ,#' ,#      #,     #,   #   #,  ,#        
             '#######'   ##     ##  '#######'  #'      '#     '####' # '####'        



                #########################################################
                #                        -***-                          #
                #          Department of theory and spectroscopy        #
                #                                                       #
                #                      Frank Neese                      #
                #                                                       #
                #     Directorship, Architecture, Infrastructure        #
                #                    SHARK, DRIVERS                     #
                #        Core code/Algorithms in most modules           #
                #                                                       #
                #        Max Planck Institute fuer Kohlenforschung      #
                #                Kaiser Wilhelm Platz 1                 #
                #                 D-45470 Muelheim/Ruhr                 #
                #                      Germany                          #
                #                                                       #
                #                  All rights reserved                  #
                #                        -***-                          #
                #########################################################


                         Program Version 6.0.0  -   RELEASE  -


 With contributions from (in alphabetic order):
   Daniel Aravena         : Magnetic Suceptibility
   Michael Atanasov       : Ab Initio Ligand Field Theory (pilot matlab implementation)
   Alexander A. Auer      : GIAO ZORA, VPT2 properties, NMR spectrum
   Ute Becker             : All parallelization in ORCA, NUMFREQ, NUMCALC
   Giovanni Bistoni       : ED, misc. LED, open-shell LED, HFLD
   Martin Brehm           : Molecular dynamics
   Dmytro Bykov           : pre 5.0 version of the SCF Hessian
   Marcos Casanova-Páez   : Triplet and SCS-CIS(D). UHF-(DLPNO)-IP/EA/STEOM-CCSD. UHF-CVS-IP/STEOM-CCSD
   Vijay G. Chilkuri      : MRCI spin determinant printing, contributions to CSF-ICE
   Pauline Colinet        : FMM embedding
   Dipayan Datta          : RHF DLPNO-CCSD density
   Achintya Kumar Dutta   : EOM-CC, STEOM-CC
   Nicolas Foglia         : Exact transition moments, OPA infrastructure, MCD improvements
   Dmitry Ganyushin       : Spin-Orbit,Spin-Spin,Magnetic field MRCI
   Miquel Garcia          : C-PCM and meta-GGA Hessian, CCSD/C-PCM, Gaussian charge scheme
   Tiago L. C. Gouveia    : GS-ROHF, GS-ROCIS
   Yang Guo               : DLPNO-NEVPT2, F12-NEVPT2, CIM, IAO-localization
   Andreas Hansen         : Spin unrestricted coupled pair/coupled cluster methods
   Ingolf Harden          : AUTO-CI MPn and infrastructure 
   Benjamin Helmich-Paris : MC-RPA, TRAH-(SCF,CASSCF), AVAS, COSX integrals, SCF dyn. polar.
   Lee Huntington         : MR-EOM, pCC
   Robert Izsak           : Overlap fitted RIJCOSX, COSX-SCS-MP3, EOM
   Riya Kayal             : Wick's Theorem for AUTO-CI, AUTO-CI UHF-CCSDT
   Emily Kempfer          : AUTO-CI, RHF CISDT and CCSDT
   Christian Kollmar      : KDIIS, OOCD, Brueckner-CCSD(T), CCSD density, CASPT2, CASPT2-K, improved NEVPT2
   Axel Koslowski         : Symmetry handling
   Simone Kossmann        : Meta GGA functionals, TD-DFT gradient, OOMP2, (MP2 Hessian; deprecated post 5.0)
   Lucas Lang             : DCDCAS
   Marvin Lechner         : AUTO-CI (C++ implementation), FIC-MRCC
   Spencer Leger          : CASSCF response
   Dagmar Lenk            : GEPOL surface, SMD, ORCA-2-JSON
   Dimitrios Liakos       : Extrapolation schemes; Compound Job, initial MDCI parallelization
   Dimitrios Manganas     : Further ROCIS development; embedding schemes. LFT, Crystal Embedding
   Dimitrios Pantazis     : SARC Basis sets
   Anastasios Papadopoulos: AUTO-CI, single reference methods and gradients
   Taras Petrenko         : pre 6.0 DFT Hessian and TD-DFT gradient, (ASA, deprecated), ECA, 1-Electron XAS/XES, NRVS
   Peter Pinski           : DLPNO-MP2, DLPNO-MP2 Gradient
   Christoph Reimann      : Effective Core Potentials
   Marius Retegan         : Local ZFS, SOC
   Christoph Riplinger    : Optimizer, TS searches, QM/MM, DLPNO-CCSD(T), (RO)-DLPNO pert. Triples
   Michael Roemelt        : Original ROCIS implementation
   Masaaki Saitow         : Open-shell DLPNO-CCSD energy and density
   Barbara Sandhoefer     : DKH picture change effects
   Kantharuban Sivalingam : CASSCF convergence/infrastructure, NEVPT2 and variants, FIC-MRCI
   Bernardo de Souza      : ESD, SOC TD-DFT
   Georgi Stoychev        : AutoAux, RI-MP2 NMR, DLPNO-MP2 response, X2C
   Van Anh Tran           : RI-MP2 g-tensors
   Willem Van den Heuvel  : Paramagnetic NMR
   Zikuan Wang            : NOTCH, Electric field optimization 
   Frank Wennmohs         : Technical directorship and infrastructure
   Hang Xu                : AUTO-CI-Response properties 


 We gratefully acknowledge several colleagues who have allowed us to
 interface, adapt or use parts of their codes:
   Stefan Grimme, W. Hujo, H. Kruse, P. Pracht,  : VdW corrections, initial TS optimization,
                  C. Bannwarth, S. Ehlert,         DFT functionals, gCP, sTDA/sTD-DF
                  L. Wittmann, M. Mueller
   Ed Valeev, F. Pavosevic, A. Kumar             : LibInt (2-el integral package), F12 methods
   Garnet Chan, S. Sharma, J. Yang, R. Olivares  : DMRG
   Ulf Ekstrom                                   : XCFun DFT Library
   Mihaly Kallay                                 : mrcc  (arbitrary order and MRCC methods)
   Frank Weinhold                                : gennbo (NPA and NBO analysis)
   Simon Mueller                                 : openCOSMO-RS
   Christopher J. Cramer and Donald G. Truhlar   : smd solvation model
   Lars Goerigk                                  : TD-DFT with DH, B97 family of functionals
   V. Asgeirsson, H. Jonsson                     : NEB implementation
   FAccTs GmbH                                   : IRC, NEB, NEB-TS, DLPNO-Multilevel, CI-OPT
                                                   MM, QMMM, 2- and 3-layer-ONIOM, Crystal-QMMM,
                                                   LR-CPCM, SF, NACMEs, symmetry and pop. for TD-DFT,
                                                   nearIR, NL-DFT gradient (VV10), updates on ESD,
                                                   ML-optimized integration grids, MBIS, APM,
                                                   GOAT, DOCKER, SOLVATOR, interface openCOSMO-RS
   S Lehtola, MJT Oliveira, MAL Marques          : LibXC Library
   Liviu Ungur et al                             : ANISO software


 Your calculation uses the libint2 library for the computation of 2-el integrals
 For citations please refer to: http://libint.valeyev.net

 Your ORCA version has been built with support for libXC version: 6.2.2
 For citations please refer to: https://libxc.gitlab.io

 This ORCA versions uses:
   CBLAS   interface :  Fast vector & matrix operations
   LAPACKE interface :  Fast linear algebra routines
   SCALAPACK package :  Parallel linear algebra routines
   Shared memory     :  Shared parallel matrices
   BLAS/LAPACK       :  OpenBLAS 0.3.27  USE64BITINT DYNAMIC_ARCH NO_AFFINITY Zen SINGLE_THREADED
        Core in use  :  Zen
   Copyright (c) 2011-2014, The OpenBLAS Project


Your calculation utilizes the atom-pairwise dispersion correction
with the Becke-Johnson damping scheme (D3BJ)


Warning: RI is on but no J-basis has been assigned. Assigning Def2/J (nothing to worry about!)
================================================================================

----- Orbital basis set information -----
Your calculation utilizes the basis: def2-TZVPPD
   F. Weigend and R. Ahlrichs, Phys. Chem. Chem. Phys. 7, 3297 (2005).
   D. Rappoport and F. Furche, J. Chem. Phys. 133, 134105 (2010)
   D. Rappoport, J. Chem. Phys. 155, 124102 (2021).

----- AuxJ basis set information -----
Your calculation utilizes the auxiliary basis: def2/J
   F. Weigend, Phys. Chem. Chem. Phys. 8, 1057 (2006).

================================================================================
                                        WARNINGS
                       Please study these warnings very carefully!
================================================================================

Using LibXC functional ID 531 : wB97M-V exchange-correlation functional
[ 1]  N. Mardirossian and M. Head-Gordon.,  J. Chem. Phys. 144, 214110 (2016)
Using LibXC functional ID 531 : wB97M-V exchange-correlation functional
[ 1]  N. Mardirossian and M. Head-Gordon.,  J. Chem. Phys. 144, 214110 (2016)

WARNING: B97M-V or wB97M-V functional requested.
  ===> : libXC variant has now been activated.
         Any manually given DFX/HFX/RangeSep scaling parameters are IGNORED!

Your calculation utilizes LibXC
 by S Lehtola, C Steigemann, MJT Oliveira & MAL Marques
Please cite in your paper:
 S Lehtola, C Steigemann, MJT Oliveira & MAL Marques, SoftwareX, 7, (2018), 1.
   


WARNING: your system is open-shell and RHF/RKS was chosen
  ===> : WILL SWITCH to UHF/UKS

INFO   : Checking CIS options ...

WARNING: CIS/ROCIS methods need fully converged wavefunctions
  ===> : Setting SCFConvForced true
         You can overwrite this default with %scf ConvForced false 


================================================================================
                                       INPUT FILE
================================================================================
NAME = orca.inp
|  1> ! Engrad def2-TZVPPD wB97M-D3BJ 
|  2> %pal nprocs 8 end%pal nprocs 32 end 
|  3>  %tddft nroots 2 Iroot 1 
|  4> sf true 
|  5> end 
|  6> *xyz 0 3 
|  7> O   2.14499346932198 0.14283151665792 -1.17722358311549
|  8> O   -0.47685160306984 2.48397992320769 -2.46688334687973
|  9> O   0.44792294040861 -3.70084454175964 0.45315189890871
| 10> O   -2.41485645275961 -1.26064802024678 -1.08943149418605
| 11> N   0.44641603363657 -1.898753952079 1.83296491715944
| 12> N   -1.4683454299112 -0.17890095634966 0.64221826182073
| 13> N   1.10385693004071 -1.69206895998587 -0.3850664748446
| 14> N   -1.05713967934945 0.45605385648704 -1.62085791293735
| 15> C   1.05841795439801 0.37497102934421 0.93209299885263
| 16> C   -0.04886095923546 2.36130724242271 -0.32822516883343
| 17> C   0.56476811026008 -0.50136753569356 2.05004734274246
| 18> C   -0.39574103727565 0.43195894229882 1.35703126389111
| 19> C   2.02392580980597 1.46003949903475 1.35647600359128
| 20> C   -0.9610010048165 3.2907201588868 0.35751874937652
| 21> C   1.48301229509313 -0.36447723553045 -0.30855814285252
| 22> C   -0.58135132625075 1.74170014355806 -1.49649688046264
| 23> C   0.63951954659326 -2.52254262874148 0.63410813619518
| 24> C   -1.68215762252236 -0.37996217797255 -0.70074238081828
| 25> H   0.89078046469225 -0.23381463851583 3.04291336530554
| 26> H   -0.65675834020855 1.32024342516538 1.91270576282639
| 27> H   2.33191516014595 2.04774254755433 0.50321036081505
| 28> H   1.55574288804839 2.11781267785836 2.08658903339901
| 29> H   2.89588905299866 0.99863797424352 1.81873178425883
| 30> H   -1.98386229393213 2.93589963841461 0.50974210079183
| 31> H   -0.54708242226781 3.71822124842702 1.26700548191003
| 32> H   -1.02399243058439 4.10054734599813 -0.38365170263246
| 33> H   0.05734668163297 -2.48417558713316 2.54999172279924
| 34> H   -1.97214270889058 -0.88128251431617 1.16008929257795
| 35> H   1.35998915837254 -2.17592894154995 -1.23137668884364
| 36> H   -1.28175318437478 0.20710052031472 -2.57347470081575
| 37> *
| 38> 
| 39>                          ****END OF INPUT****
================================================================================

                     *******************************
                     * Energy+Gradient Calculation *
                     *******************************

---------------------------------
CARTESIAN COORDINATES (ANGSTROEM)
---------------------------------
  O      2.144993    0.142832   -1.177224
  O     -0.476852    2.483980   -2.466883
  O      0.447923   -3.700845    0.453152
  O     -2.414856   -1.260648   -1.089431
  N      0.446416   -1.898754    1.832965
  N     -1.468345   -0.178901    0.642218
  N      1.103857   -1.692069   -0.385066
  N     -1.057140    0.456054   -1.620858
  C      1.058418    0.374971    0.932093
  C     -0.048861    2.361307   -0.328225
  C      0.564768   -0.501368    2.050047
  C     -0.395741    0.431959    1.357031
  C      2.023926    1.460039    1.356476
  C     -0.961001    3.290720    0.357519
  C      1.483012   -0.364477   -0.308558
  C     -0.581351    1.741700   -1.496497
  C      0.639520   -2.522543    0.634108
  C     -1.682158   -0.379962   -0.700742
  H      0.890780   -0.233815    3.042913
  H     -0.656758    1.320243    1.912706
  H      2.331915    2.047743    0.503210
  H      1.555743    2.117813    2.086589
  H      2.895889    0.998638    1.818732
  H     -1.983862    2.935900    0.509742
  H     -0.547082    3.718221    1.267005
  H     -1.023992    4.100547   -0.383652
  H      0.057347   -2.484176    2.549992
  H     -1.972143   -0.881283    1.160089
  H      1.359989   -2.175929   -1.231377
  H     -1.281753    0.207101   -2.573475

----------------------------
CARTESIAN COORDINATES (A.U.)
----------------------------
  NO LB      ZA    FRAG     MASS         X           Y           Z
   0 O     8.0000    0    15.999    4.053450    0.269912   -2.224630
   1 O     8.0000    0    15.999   -0.901119    4.694042   -4.661734
   2 O     8.0000    0    15.999    0.846452   -6.993583    0.856333
   3 O     8.0000    0    15.999   -4.563417   -2.382280   -2.058727
   4 N     7.0000    0    14.007    0.843604   -3.588125    3.463802
   5 N     7.0000    0    14.007   -2.774771   -0.338074    1.213617
   6 N     7.0000    0    14.007    2.085987   -3.197547   -0.727670
   7 N     7.0000    0    14.007   -1.997704    0.861817   -3.062978
   8 C     6.0000    0    12.011    2.000120    0.708593    1.761400
   9 C     6.0000    0    12.011   -0.092334    4.462224   -0.620256
  10 C     6.0000    0    12.011    1.067257   -0.947447    3.874028
  11 C     6.0000    0    12.011   -0.747842    0.816284    2.564417
  12 C     6.0000    0    12.011    3.824665    2.759075    2.563368
  13 C     6.0000    0    12.011   -1.816029    6.218560    0.675613
  14 C     6.0000    0    12.011    2.802487   -0.688762   -0.583090
  15 C     6.0000    0    12.011   -1.098595    3.291336   -2.827969
  16 C     6.0000    0    12.011    1.208517   -4.766915    1.198291
  17 C     6.0000    0    12.011   -3.178817   -0.718024   -1.324211
  18 H     1.0000    0     1.008    1.683331   -0.441846    5.750273
  19 H     1.0000    0     1.008   -1.241093    2.494899    3.614490
  20 H     1.0000    0     1.008    4.406681    3.869673    0.950930
  21 H     1.0000    0     1.008    2.939928    4.002086    3.943082
  22 H     1.0000    0     1.008    5.472437    1.887152    3.436905
  23 H     1.0000    0     1.008   -3.748956    5.548046    0.963273
  24 H     1.0000    0     1.008   -1.033836    7.026420    2.394293
  25 H     1.0000    0     1.008   -1.935065    7.748911   -0.724997
  26 H     1.0000    0     1.008    0.108370   -4.694412    4.818786
  27 H     1.0000    0     1.008   -3.726810   -1.665383    2.192251
  28 H     1.0000    0     1.008    2.570007   -4.111910   -2.326965
  29 H     1.0000    0     1.008   -2.422162    0.391363   -4.863162

--------------------------------
INTERNAL COORDINATES (ANGSTROEM)
--------------------------------
 O      0   0   0     0.000000000000     0.00000000     0.00000000
 O      1   0   0     3.744097989021     0.00000000     0.00000000
 O      1   2   0     4.506885646935   113.21598461     0.00000000
 O      3   1   2     4.065664575713    67.41914584     2.59804552
 N      3   1   2     2.269673264926    62.80784054   277.54912936
 N      4   3   1     2.250482326992    72.56682068   297.37033442
 N      1   2   3     2.253516793103   107.86005520   359.21126530
 N      4   3   1     2.252304199909    97.03810595   357.25720215
 C      1   2   3     2.384061984502    85.68240916   298.57400855
 C      2   1   3     2.184509871881    59.36742319    80.72728391
 C      5   3   1     1.419091536948   151.01951693    15.08559167
 C      6   4   3     1.426389717716   155.19187228    61.55950212
 C      9   1   2     1.513168839714    91.55584900   264.41104068
 C     10   2   1     1.471751525702   107.41378400   181.10635957
 C      1   2   3     1.204226262871    97.29301054   328.49110931
 C      2   1   3     1.226193034407    53.74104564    35.73931139
 C      3   1   2     1.207414517693    33.08957340   283.50880791
 C      4   3   1     1.209766240008    83.60195062   327.68515000
 H     11   5   3     1.078726817499   114.21960156   205.92221359
 H     12   6   4     1.079793268963   115.36722236   142.51606119
 H     13   9   1     1.080886011707   110.50622720    33.04083681
 H     13   9   1     1.088542989183   110.30324091   153.47941914
 H     13   9   1     1.089445579788   109.02590186   272.39356652
 H     14  10   2     1.093304517157   116.08850746    79.21413886
 H     14  10   2     1.086854125995   113.71960000   210.66821639
 H     14  10   2     1.099600669169   100.75031010   325.04269837
 H      5   3   1     1.004102032397    88.36477225   182.25833952
 H      6   4   3     1.007641779491    81.38008528   288.94315212
 H      7   1   2     1.007950980191    88.75773866   101.85852956
 H      8   4   3     1.009904814712    84.29543136   112.55066081

---------------------------
INTERNAL COORDINATES (A.U.)
---------------------------
 O      0   0   0     0.000000000000     0.00000000     0.00000000
 O      1   0   0     7.075319817814     0.00000000     0.00000000
 O      1   2   0     8.516779589607   113.21598461     0.00000000
 O      3   1   2     7.682992600482    67.41914584     2.59804552
 N      3   1   2     4.289060884192    62.80784054   277.54912936
 N      4   3   1     4.252795267244    72.56682068   297.37033442
 N      1   2   3     4.258529577158   107.86005520   359.21126530
 N      4   3   1     4.256238108109    97.03810595   357.25720215
 C      1   2   3     4.505224237002    85.68240916   298.57400855
 C      2   1   3     4.128125394702    59.36742319    80.72728391
 C      5   3   1     2.681694363797   151.01951693    15.08559167
 C      6   4   3     2.695485926725   155.19187228    61.55950212
 C      9   1   2     2.859474701443    91.55584900   264.41104068
 C     10   2   1     2.781207320757   107.41378400   181.10635957
 C      1   2   3     2.275657840101    97.29301054   328.49110931
 C      2   1   3     2.317169022350    53.74104564    35.73931139
 C      3   1   2     2.281682768561    33.08957340   283.50880791
 C      4   3   1     2.286126879679    83.60195062   327.68515000
 H     11   5   3     2.038498258389   114.21960156   205.92221359
 H     12   6   4     2.040513559593   115.36722236   142.51606119
 H     13   9   1     2.042578544113   110.50622720    33.04083681
 H     13   9   1     2.057048134557   110.30324091   153.47941914
 H     13   9   1     2.058753783610   109.02590186   272.39356652
 H     14  10   2     2.066046118405   116.08850746    79.21413886
 H     14  10   2     2.053856645652   113.71960000   210.66821639
 H     14  10   2     2.077944121405   100.75031010   325.04269837
 H      5   3   1     1.897477851744    88.36477225   182.25833952
 H      6   4   3     1.904167004335    81.38008528   288.94315212
 H      7   1   2     1.904751308979    88.75773866   101.85852956
 H      8   4   3     1.908443521135    84.29543136   112.55066081

---------------------
BASIS SET INFORMATION
---------------------
There are 4 groups of distinct atoms

 Group   1 Type O   : 12s7p3d1f contracted to 6s4p3d1f pattern {621111/4111/111/1}
 Group   2 Type N   : 12s6p3d1f contracted to 6s3p3d1f pattern {621111/411/111/1}
 Group   3 Type C   : 12s6p3d1f contracted to 6s3p3d1f pattern {621111/411/111/1}
 Group   4 Type H   : 5s3p1d contracted to 3s3p1d pattern {311/111/1}

Atom   0O    basis set group =>   1
Atom   1O    basis set group =>   1
Atom   2O    basis set group =>   1
Atom   3O    basis set group =>   1
Atom   4N    basis set group =>   2
Atom   5N    basis set group =>   2
Atom   6N    basis set group =>   2
Atom   7N    basis set group =>   2
Atom   8C    basis set group =>   3
Atom   9C    basis set group =>   3
Atom  10C    basis set group =>   3
Atom  11C    basis set group =>   3
Atom  12C    basis set group =>   3
Atom  13C    basis set group =>   3
Atom  14C    basis set group =>   3
Atom  15C    basis set group =>   3
Atom  16C    basis set group =>   3
Atom  17C    basis set group =>   3
Atom  18H    basis set group =>   4
Atom  19H    basis set group =>   4
Atom  20H    basis set group =>   4
Atom  21H    basis set group =>   4
Atom  22H    basis set group =>   4
Atom  23H    basis set group =>   4
Atom  24H    basis set group =>   4
Atom  25H    basis set group =>   4
Atom  26H    basis set group =>   4
Atom  27H    basis set group =>   4
Atom  28H    basis set group =>   4
Atom  29H    basis set group =>   4
---------------------------------
AUXILIARY/J BASIS SET INFORMATION
---------------------------------
There are 4 groups of distinct atoms

 Group   1 Type O   : 12s5p4d2f1g contracted to 6s4p3d1f1g pattern {711111/2111/211/2/1}
 Group   2 Type N   : 12s5p4d2f1g contracted to 6s4p3d1f1g pattern {711111/2111/211/2/1}
 Group   3 Type C   : 12s5p4d2f1g contracted to 6s4p3d1f1g pattern {711111/2111/211/2/1}
 Group   4 Type H   : 5s2p1d contracted to 3s1p1d pattern {311/2/1}

Atom   0O    basis set group =>   1
Atom   1O    basis set group =>   1
Atom   2O    basis set group =>   1
Atom   3O    basis set group =>   1
Atom   4N    basis set group =>   2
Atom   5N    basis set group =>   2
Atom   6N    basis set group =>   2
Atom   7N    basis set group =>   2
Atom   8C    basis set group =>   3
Atom   9C    basis set group =>   3
Atom  10C    basis set group =>   3
Atom  11C    basis set group =>   3
Atom  12C    basis set group =>   3
Atom  13C    basis set group =>   3
Atom  14C    basis set group =>   3
Atom  15C    basis set group =>   3
Atom  16C    basis set group =>   3
Atom  17C    basis set group =>   3
Atom  18H    basis set group =>   4
Atom  19H    basis set group =>   4
Atom  20H    basis set group =>   4
Atom  21H    basis set group =>   4
Atom  22H    basis set group =>   4
Atom  23H    basis set group =>   4
Atom  24H    basis set group =>   4
Atom  25H    basis set group =>   4
Atom  26H    basis set group =>   4
Atom  27H    basis set group =>   4
Atom  28H    basis set group =>   4
Atom  29H    basis set group =>   4
[1737011759.526239] [ohm:110016:0]        ib_iface.c:1059 UCX  ERROR ibv_create_cq(cqe=256) failed: Connection timed out
[1737011759.526209] [ohm:110019:0]        ib_iface.c:1059 UCX  ERROR ibv_create_cq(cqe=256) failed: Connection timed out
[1737011759.526209] [ohm:110012:0]        ib_iface.c:1059 UCX  ERROR ibv_create_cq(cqe=256) failed: Connection timed out
[1737011759.526293] [ohm:110009:0]        ib_iface.c:1059 UCX  ERROR ibv_create_cq(cqe=256) failed: Connection timed out
[1737011759.530491] [ohm:110020:0]        ib_iface.c:1059 UCX  ERROR ibv_create_cq(cqe=256) failed: Connection timed out
[1737011759.532861] [ohm:110013:0]        ib_iface.c:1059 UCX  ERROR ibv_create_cq(cqe=256) failed: Connection timed out
[1737011759.575889] [ohm:110062:0]        ib_iface.c:1059 UCX  ERROR ibv_create_cq(cqe=256) failed: Connection timed out
[1737011759.575906] [ohm:110033:0]        ib_iface.c:1059 UCX  ERROR ibv_create_cq(cqe=256) failed: Connection timed out
[1737011759.575945] [ohm:110040:0]        ib_iface.c:1059 UCX  ERROR ibv_create_cq(cqe=256) failed: Connection timed out
[1737011759.575966] [ohm:110055:0]        ib_iface.c:1059 UCX  ERROR ibv_create_cq(cqe=256) failed: Connection timed out
[1737011759.577645] [ohm:110023:0]        ib_iface.c:1059 UCX  ERROR ibv_create_cq(cqe=256) failed: Connection timed out
[1737011759.587862] [ohm:110031:0]        ib_iface.c:1059 UCX  ERROR ibv_create_cq(cqe=256) failed: Connection timed out
[1737011759.592200] [ohm:110024:0]        ib_iface.c:1059 UCX  ERROR ibv_create_cq(cqe=256) failed: Connection timed out
[1737011759.592547] [ohm:110029:0]        ib_iface.c:1059 UCX  ERROR ibv_create_cq(cqe=256) failed: Connection timed out
[1737011759.593876] [ohm:110035:0]        ib_iface.c:1059 UCX  ERROR ibv_create_cq(cqe=256) failed: Connection timed out
[1737011759.594248] [ohm:110027:0]        ib_iface.c:1059 UCX  ERROR ibv_create_cq(cqe=256) failed: Connection timed out
[1737011759.594613] [ohm:110017:0]        ib_iface.c:1059 UCX  ERROR ibv_create_cq(cqe=256) failed: Connection timed out
[1737011759.594816] [ohm:110015:0]        ib_iface.c:1059 UCX  ERROR ibv_create_cq(cqe=256) failed: Connection timed out
[1737011759.596318] [ohm:110034:0]        ib_iface.c:1059 UCX  ERROR ibv_create_cq(cqe=256) failed: Connection timed out
[1737011759.596713] [ohm:110030:0]        ib_iface.c:1059 UCX  ERROR ibv_create_cq(cqe=256) failed: Connection timed out
[1737011759.597638] [ohm:110028:0]        ib_iface.c:1059 UCX  ERROR ibv_create_cq(cqe=256) failed: Connection timed out
[1737011759.597897] [ohm:110011:0]        ib_iface.c:1059 UCX  ERROR ibv_create_cq(cqe=256) failed: Connection timed out
[1737011759.600590] [ohm:110014:0]        ib_iface.c:1059 UCX  ERROR ibv_create_cq(cqe=256) failed: Connection timed out
[1737011759.600607] [ohm:110025:0]        ib_iface.c:1059 UCX  ERROR ibv_create_cq(cqe=256) failed: Connection timed out
[1737011759.600703] [ohm:110047:0]        ib_iface.c:1059 UCX  ERROR ibv_create_cq(cqe=256) failed: Connection timed out
[1737011759.601139] [ohm:110026:0]        ib_iface.c:1059 UCX  ERROR ibv_create_cq(cqe=256) failed: Connection timed out
[1737011759.602571] [ohm:110032:0]        ib_iface.c:1059 UCX  ERROR ibv_create_cq(cqe=256) failed: Connection timed out
[1737011759.602946] [ohm:110036:0]        ib_iface.c:1059 UCX  ERROR ibv_create_cq(cqe=256) failed: Connection timed out
[1737011759.603656] [ohm:110010:0]        ib_iface.c:1059 UCX  ERROR ibv_create_cq(cqe=256) failed: Connection timed out
[1737011759.604193] [ohm:110022:0]        ib_iface.c:1059 UCX  ERROR ibv_create_cq(cqe=256) failed: Connection timed out
[1737011759.604889] [ohm:110021:0]        ib_iface.c:1059 UCX  ERROR ibv_create_cq(cqe=256) failed: Connection timed out
[1737011759.607096] [ohm:110018:0]        ib_iface.c:1059 UCX  ERROR ibv_create_cq(cqe=256) failed: Connection timed out


           ************************************************************
           *        Program running with 32 parallel MPI-processes    *
           *              working on a common directory               *
           ************************************************************
------------------------------------------------------------------------------
                             ORCA STARTUP CALCULATIONS
                           -- RI-GTO INTEGRALS CHOSEN --
------------------------------------------------------------------------------
------------------------------------------------------------------------------
                   ___                                                        
                  /   \      - P O W E R E D   B Y -                         
                 /     \                                                     
                 |  |  |   _    _      __       _____    __    __             
                 |  |  |  | |  | |    /  \     |  _  \  |  |  /  |          
                  \  \/   | |  | |   /    \    | | | |  |  | /  /          
                 / \  \   | |__| |  /  /\  \   | |_| |  |  |/  /          
                |  |  |   |  __  | /  /__\  \  |    /   |      \           
                |  |  |   | |  | | |   __   |  |    \   |  |\   \          
                \     /   | |  | | |  |  |  |  | |\  \  |  | \   \       
                 \___/    |_|  |_| |__|  |__|  |_| \__\ |__|  \__/        
                                                                              
                      - O R C A' S   B I G   F R I E N D -                    
                                      &                                       
                       - I N T E G R A L  F E E D E R -                       
                                                                              
 v1 FN, 2020, v2 2021, v3 2022-2024                                           
------------------------------------------------------------------------------


----------------------
SHARK INTEGRAL PACKAGE
----------------------

Number of atoms                             ...     30
Number of basis functions                   ...    882
Number of shells                            ...    322
Maximum angular momentum                    ...      3
Integral batch strategy                     ... SHARK/LIBINT Hybrid
RI-J (if used) integral strategy            ... SPLIT-RIJ (Revised 2003 algorithm where possible)
Printlevel                                  ...      1
Contraction scheme used                     ... SEGMENTED contraction
Prescreening option                         ... SCHWARTZ
   Thresh                                   ... 2.500e-11
   Tcut                                     ... 2.500e-12
   Tpresel                                  ... 2.500e-12 
Coulomb Range Separation                    ... NOT USED
Exchange Range Separation                   ... Long Range
   Mu parameter                             ... 3.000e-01
   Scaling (regular/separated)              ... 1.500e-01 8.500e-01
Multipole approximations                    ... NOT USED
Finite Nucleus Model                        ... NOT USED
CABS basis                                  ... NOT available
Auxiliary Coulomb fitting basis             ... AVAILABLE
   # of basis functions in Aux-J            ...   1014
   # of shells in Aux-J                     ...    330
   Maximum angular momentum in Aux-J        ...      4
Auxiliary J/K fitting basis                 ... NOT available
Auxiliary Correlation fitting basis         ... NOT available
Auxiliary 'external' fitting basis          ... NOT available

Checking pre-screening integrals            ... done (  0.0 sec) Dimension = 322
Check shell pair data                       ... done (  0.0 sec)
Shell pair information
Shell pair cut-off parameter TPreSel        ...   2.5e-12
Total number of shell pairs                 ...     52003
Shell pairs after pre-screening             ...     45181
Total number of primitive shell pairs       ...    129718
Primitive shell pairs kept                  ...     84715
          la=0 lb=0:   8747 shell pairs
          la=1 lb=0:  11946 shell pairs
          la=1 lb=1:   4116 shell pairs
          la=2 lb=0:   8115 shell pairs
          la=2 lb=1:   5593 shell pairs
          la=2 lb=2:   1937 shell pairs
          la=3 lb=0:   2095 shell pairs
          la=3 lb=1:   1479 shell pairs
          la=3 lb=2:   1009 shell pairs
          la=3 lb=3:    144 shell pairs

Calculating one electron integrals          ... done (  0.1 sec)
Calculating RI/J V-Matrix + Cholesky decomp.... done (  0.0 sec)
Calculating Nuclear repulsion               ... done (  0.0 sec) ENN=   1460.662848780399 Eh

Diagonalization of the overlap matrix:
Smallest eigenvalue                        ... 3.339e-07
Time for diagonalization                   ...    0.118 sec
Threshold for overlap eigenvalues          ... 1.000e-07
Number of eigenvalues below threshold      ... 0

IMPORTANT:
Smallest eigenvalue of S below the DiffSThresh (1.000e-06) while
Thresh>1e-12 and/or TCut>1e-13! In order to avoid SCF convergence issues,
Thresh will be set to at least 1e-12 and TCut to at least 1e-13.
This can be turned off by adding %SCF DiffSThresh -1 END to the input.

Time for construction of square roots      ...    0.100 sec
Total time needed                          ...    0.228 sec

-------------------
DFT GRID GENERATION
-------------------

General Integration Accuracy     IntAcc      ... 4.388
Radial Grid Type                 RadialGrid  ... OptM3 with GC (2021)
Angular Grid (max. ang.)         AngularGrid ... 4 (Lebedev-302)
Angular grid pruning method      GridPruning ... 4 (adaptive)
Weight generation scheme         WeightScheme... mBecke (2022)
Basis function cutoff            BFCut       ... 1.0000e-11
Integration weight cutoff        WCut        ... 1.0000e-14
Partially contracted basis set               ... off
Rotationally invariant grid construction     ... off
Angular grids for H and He will be reduced by one unit
Diffuse basis detected: some atoms will have their outermost
                        angular grid increased by 1.

Total number of grid points                  ...   151793
Total number of batches                      ...     2387
Average number of points per batch           ...       63
Average number of grid points per atom       ...     5060

--------------------
COSX GRID GENERATION
--------------------

GRIDX 1
-------
General Integration Accuracy     IntAcc      ... 3.816
Radial Grid Type                 RadialGrid  ... OptM3 with GC (2021)
Angular Grid (max. ang.)         AngularGrid ... 1 (Lebedev-50)
Angular grid pruning method      GridPruning ... 4 (adaptive)
Weight generation scheme         WeightScheme... mBecke (2022)
Basis function cutoff            BFCut       ... 1.0000e-11
Integration weight cutoff        WCut        ... 1.0000e-14
Partially contracted basis set               ... on
Rotationally invariant grid construction     ... off
Angular grids for H and He will be reduced by one unit
Diffuse basis detected: some atoms will have their outermost
                        angular grid increased by 1.

Total number of grid points                  ...    19022
Total number of batches                      ...      166
Average number of points per batch           ...      114
Average number of grid points per atom       ...      634
UseSFitting                                  ... on

GRIDX 2
-------
General Integration Accuracy     IntAcc      ... 4.020
Radial Grid Type                 RadialGrid  ... OptM3 with GC (2021)
Angular Grid (max. ang.)         AngularGrid ... 2 (Lebedev-110)
Angular grid pruning method      GridPruning ... 4 (adaptive)
Weight generation scheme         WeightScheme... mBecke (2022)
Basis function cutoff            BFCut       ... 1.0000e-11
Integration weight cutoff        WCut        ... 1.0000e-14
Partially contracted basis set               ... on
Rotationally invariant grid construction     ... off
Angular grids for H and He will be reduced by one unit
Diffuse basis detected: some atoms will have their outermost
                        angular grid increased by 1.

Total number of grid points                  ...    45752
Total number of batches                      ...      373
Average number of points per batch           ...      122
Average number of grid points per atom       ...     1525
UseSFitting                                  ... on

GRIDX 3
-------
General Integration Accuracy     IntAcc      ... 4.338
Radial Grid Type                 RadialGrid  ... OptM3 with GC (2021)
Angular Grid (max. ang.)         AngularGrid ... 3 (Lebedev-194)
Angular grid pruning method      GridPruning ... 4 (adaptive)
Weight generation scheme         WeightScheme... mBecke (2022)
Basis function cutoff            BFCut       ... 1.0000e-11
Integration weight cutoff        WCut        ... 1.0000e-14
Partially contracted basis set               ... on
Rotationally invariant grid construction     ... off
Angular grids for H and He will be reduced by one unit
Diffuse basis detected: some atoms will have their outermost
                        angular grid increased by 1.

Total number of grid points                  ...   100715
Total number of batches                      ...      804
Average number of points per batch           ...      125
Average number of grid points per atom       ...     3357
UseSFitting                                  ... on
Initializing property integral containers    ... done (  0.0 sec)

SHARK setup successfully completed in   3.3 seconds

Maximum memory used throughout the entire STARTUP-calculation: 81.5 MB
[1737011763.829184] [ohm:110184:0]        ib_iface.c:1059 UCX  ERROR ibv_create_cq(cqe=256) failed: Connection timed out
[1737011763.829986] [ohm:110200:0]        ib_iface.c:1059 UCX  ERROR ibv_create_cq(cqe=256) failed: Connection timed out
[1737011763.830221] [ohm:110190:0]        ib_iface.c:1059 UCX  ERROR ibv_create_cq(cqe=256) failed: Connection timed out
[1737011763.832332] [ohm:110199:0]        ib_iface.c:1059 UCX  ERROR ibv_create_cq(cqe=256) failed: Connection timed out
[1737011763.894600] [ohm:110187:0]        ib_iface.c:1059 UCX  ERROR ibv_create_cq(cqe=256) failed: Connection timed out
[1737011763.899846] [ohm:110196:0]        ib_iface.c:1059 UCX  ERROR ibv_create_cq(cqe=256) failed: Connection timed out
[1737011763.899831] [ohm:110182:0]        ib_iface.c:1059 UCX  ERROR ibv_create_cq(cqe=256) failed: Connection timed out
[1737011763.902068] [ohm:110192:0]        ib_iface.c:1059 UCX  ERROR ibv_create_cq(cqe=256) failed: Connection timed out
[1737011763.902143] [ohm:110203:0]        ib_iface.c:1059 UCX  ERROR ibv_create_cq(cqe=256) failed: Connection timed out
[1737011763.904135] [ohm:110181:0]        ib_iface.c:1059 UCX  ERROR ibv_create_cq(cqe=256) failed: Connection timed out
[1737011763.904119] [ohm:110191:0]        ib_iface.c:1059 UCX  ERROR ibv_create_cq(cqe=256) failed: Connection timed out
[1737011763.904121] [ohm:110201:0]        ib_iface.c:1059 UCX  ERROR ibv_create_cq(cqe=256) failed: Connection timed out
[1737011763.906208] [ohm:110195:0]        ib_iface.c:1059 UCX  ERROR ibv_create_cq(cqe=256) failed: Connection timed out
[1737011763.906322] [ohm:110215:0]        ib_iface.c:1059 UCX  ERROR ibv_create_cq(cqe=256) failed: Connection timed out
[1737011763.906733] [ohm:110205:0]        ib_iface.c:1059 UCX  ERROR ibv_create_cq(cqe=256) failed: Connection timed out
[1737011763.906721] [ohm:110186:0]        ib_iface.c:1059 UCX  ERROR ibv_create_cq(cqe=256) failed: Connection timed out
[1737011763.907629] [ohm:110188:0]        ib_iface.c:1059 UCX  ERROR ibv_create_cq(cqe=256) failed: Connection timed out
[1737011763.907833] [ohm:110198:0]        ib_iface.c:1059 UCX  ERROR ibv_create_cq(cqe=256) failed: Connection timed out
[1737011763.908682] [ohm:110185:0]        ib_iface.c:1059 UCX  ERROR ibv_create_cq(cqe=256) failed: Connection timed out
[1737011763.909204] [ohm:110231:0]        ib_iface.c:1059 UCX  ERROR ibv_create_cq(cqe=256) failed: Connection timed out
[1737011763.909705] [ohm:110183:0]        ib_iface.c:1059 UCX  ERROR ibv_create_cq(cqe=256) failed: Connection timed out
[1737011763.909843] [ohm:110179:0]        ib_iface.c:1059 UCX  ERROR ibv_create_cq(cqe=256) failed: Connection timed out
[1737011763.910912] [ohm:110194:0]        ib_iface.c:1059 UCX  ERROR ibv_create_cq(cqe=256) failed: Connection timed out
[1737011763.910912] [ohm:110197:0]        ib_iface.c:1059 UCX  ERROR ibv_create_cq(cqe=256) failed: Connection timed out
[1737011763.910912] [ohm:110227:0]        ib_iface.c:1059 UCX  ERROR ibv_create_cq(cqe=256) failed: Connection timed out
[1737011763.911687] [ohm:110202:0]        ib_iface.c:1059 UCX  ERROR ibv_create_cq(cqe=256) failed: Connection timed out
[1737011763.913014] [ohm:110189:0]        ib_iface.c:1059 UCX  ERROR ibv_create_cq(cqe=256) failed: Connection timed out
[1737011763.913017] [ohm:110212:0]        ib_iface.c:1059 UCX  ERROR ibv_create_cq(cqe=256) failed: Connection timed out
[1737011763.913136] [ohm:110204:0]        ib_iface.c:1059 UCX  ERROR ibv_create_cq(cqe=256) failed: Connection timed out
[1737011763.913350] [ohm:110193:0]        ib_iface.c:1059 UCX  ERROR ibv_create_cq(cqe=256) failed: Connection timed out
[1737011763.913468] [ohm:110180:0]        ib_iface.c:1059 UCX  ERROR ibv_create_cq(cqe=256) failed: Connection timed out
[1737011763.913500] [ohm:110221:0]        ib_iface.c:1059 UCX  ERROR ibv_create_cq(cqe=256) failed: Connection timed out


           ************************************************************
           *        Program running with 32 parallel MPI-processes    *
           *              working on a common directory               *
           ************************************************************
-------------------------------------------------------------------------------
                                 ORCA GUESS
                   Start orbitals & Density for SCF / CASSCF
-------------------------------------------------------------------------------

------------
SCF SETTINGS
------------
Hamiltonian:
 Density Functional     Method          .... DFT(GTOs)
  Functional kind                       .... Exchange-Correlation
  Functional name                       .... wB97M-V exchange-correlation functional
  Functional family                     .... Hybrid MGGA
  Functional refs                              
    [ 0] N. Mardirossian and M. Head-Gordon.,  J. Chem. Phys. 144, 214110 (2016), doi: 10.1063/1.4952647
  Fraction of HF Exchange (short range) .... 0.1500
  Fraction of HF Exchange (long range)  .... 1.0000
  Range separation parameter mu         .... 0.3000
  Functional external parameters        .... 17
    Parameter  0 _cx00      =  8.500000e-01 : u^00 coefficient for exchange
    Parameter  1 _cx01      =  1.007000e+00 : u^01 coefficient for exchange
    Parameter  2 _cx10      =  2.590000e-01 : u^10 coefficient for exchange
    Parameter  3 _css00     =  4.430000e-01 : u^00 coefficient for same-spin correlation
    Parameter  4 _css04     = -1.437000e+00 : u^04 coefficient for same-spin correlation
    Parameter  5 _css10     = -4.535000e+00 : u^10 coefficient for same-spin correlation
    Parameter  6 _css20     = -3.390000e+00 : u^20 coefficient for same-spin correlation
    Parameter  7 _css43     =  4.278000e+00 : u^43 coefficient for same-spin correlation
    Parameter  8 _cos00     =  1.000000e+00 : u^00 coefficient for opposite-spin correlation
    Parameter  9 _cos10     =  1.358000e+00 : u^10 coefficient for opposite-spin correlation
    Parameter 10 _cos20     =  2.924000e+00 : u^20 coefficient for opposite-spin correlation
    Parameter 11 _cos21     = -8.812000e+00 : u^21 coefficient for opposite-spin correlation
    Parameter 12 _cos60     = -1.390000e+00 : u^60 coefficient for opposite-spin correlation
    Parameter 13 _cos61     =  9.142000e+00 : u^61 coefficient for opposite-spin correlation
    Parameter 14 _alpha     =  1.000000e+00 : fraction of HF exchange
    Parameter 15 _beta      = -8.500000e-01 : fraction of short-range exchange
    Parameter 16 _omega     =  3.000000e-01 : range-separation constant
 Long-range corrected/Screened/Range-Separated Hybrid DFT is turned on
   Amount of maximum screened exact exchange              ....  0.850000
   Range separation parameter mu (erf(mu*r12)/r12)        ....  0.300000
 RI-approximation to the Coulomb term is turned on
   Number of AuxJ basis functions       .... 1014
   RIJ-COSX (HFX calculated with COS-X)).... on


General Settings:
 Integral files         IntName         .... orca
 Hartree-Fock type      HFTyp           .... UHF
 Total Charge           Charge          ....    0
 Multiplicity           Mult            ....    3
 Number of Electrons    NEL             ....  132
 Basis Dimension        Dim             ....  882
 Nuclear Repulsion      ENuc            ....   1460.6628487804 Eh

Convergence Acceleration:
 AO-DIIS                CNVDIIS         .... on
   Start iteration      DIISMaxIt       ....    12
   Startup error        DIISStart       ....  0.200000
   # of expansion vecs  DIISMaxEq       ....     5
   Bias factor          DIISBfac        ....   1.050
   Max. coefficient     DIISMaxC        ....  10.000
 MO-DIIS                CNVKDIIS        .... off
 Trust-Rad. Augm. Hess. CNVTRAH         .... auto
   Auto Start mean grad. ratio tolernc. ....  1.125000
   Auto Start start iteration           ....    50
   Auto Start num. interpolation iter.  ....    10
   Max. Number of Micro iterations      ....    24
   Max. Number of Macro iterations      .... Maxiter - #DIIS iter
   Number of Davidson start vectors     ....     2
   Converg. threshold    (grad. norm)   ....   1.000e-05
   Grad. Scal. Fac. for Micro threshold ....   0.100
   Minimum threshold for Micro iter.    ....   1.000e-02
   NR start threshold (gradient norm)   ....   1.000e-04
   Initial trust radius                 ....   0.400
   Minimum AH scaling param. (alpha)    ....   1.000
   Maximum AH scaling param. (alpha)    .... 1000.000
   Quad. conv. algorithm                .... NR
   White noise on init. David. guess    .... on
   Maximum white noise                  ....   0.010
   Pseudo random numbers                .... off
   Inactive MOs                         .... canonical
   Orbital update algorithm             .... Taylor
   Preconditioner                       .... Diag
   Full preconditioner red. dimension   ....   250
 SOSCF                  CNVSOSCF        .... on
   Start iteration      SOSCFMaxIt      ....   150
   Startup grad/error   SOSCFStart      ....  0.003300
   Hessian update       SOSCFHessUp     .... L-BFGS
 Level Shifting         CNVShift        .... on
   Level shift para.    LevelShift      ....    0.2500
   Turn off err/grad.   ShiftErr        ....    0.0010
 Zerner damping         CNVZerner       .... off
 Static damping         CNVDamp         .... on
   Fraction old density DampFac         ....    0.7000
   Max. Damping (<1)    DampMax         ....    0.9800
   Min. Damping (>=0)   DampMin         ....    0.0000
   Turn off err/grad.   DampErr         ....    0.1000

SCF Procedure:
 Maximum # iterations   MaxIter         ....   125
 SCF integral mode      SCFMode         .... Direct
   Integral package                     .... SHARK and LIBINT hybrid scheme
 Reset frequency        DirectResetFreq ....    20
 Integral Threshold     Thresh          ....  1.000e-12 Eh
 Primitive CutOff       TCut            ....  1.000e-13 Eh

Convergence Tolerance:
 Convergence Check Mode ConvCheckMode   .... Total+1el-Energy
 Convergence forced     ConvForced      .... 1
 Energy Change          TolE            ....  1.000e-08 Eh
 1-El. energy change                    ....  1.000e-05 Eh
 Orbital Gradient       TolG            ....  1.000e-05
 Orbital Rotation angle TolX            ....  1.000e-05
 DIIS Error             TolErr          ....  5.000e-07

------------------------------
INITIAL GUESS: MODEL POTENTIAL
------------------------------
Loading Hartree-Fock densities                     ... done
Calculating cut-offs                               ... done
Initializing the effective Hamiltonian             ... done
Setting up the integral package (SHARK)            ... done
Starting the Coulomb interaction                   ... done (   0.1 sec)
Making the grid                                    ... done (   0.2 sec)
Mapping shells                                     ... done
Starting the XC term evaluation                    ... done (   0.2 sec)
  promolecular density results
     # of electrons  =    131.989779642
     EX              =   -113.581074516
     EC              =     -4.498662843
     EX+EC           =   -118.079737359
Transforming the Hamiltonian                       ... done (   0.1 sec)
Diagonalizing the Hamiltonian                      ... done (   0.1 sec)
Back transforming the eigenvectors                 ... done (   0.1 sec)
Now organizing SCF variables                       ... done
                      ------------------
                      INITIAL GUESS DONE (   1.0 sec)
                      ------------------
             **** ENERGY FILE WAS UPDATED (orca.en.tmp) ****
Finished Guess after   2.0 sec
Maximum memory used throughout the entire GUESS-calculation: 73.9 MB
[1737011766.329843] [ohm:110361:0]        ib_iface.c:1059 UCX  ERROR ibv_create_cq(cqe=256) failed: Connection timed out
[1737011766.329843] [ohm:110369:0]        ib_iface.c:1059 UCX  ERROR ibv_create_cq(cqe=256) failed: Connection timed out
[1737011766.335729] [ohm:110379:0]        ib_iface.c:1059 UCX  ERROR ibv_create_cq(cqe=256) failed: Connection timed out
[1737011766.351954] [ohm:110370:0]        ib_iface.c:1059 UCX  ERROR ibv_create_cq(cqe=256) failed: Connection timed out
[1737011766.386724] [ohm:110352:0]        ib_iface.c:1059 UCX  ERROR ibv_create_cq(cqe=256) failed: Connection timed out
[1737011766.388390] [ohm:110385:0]        ib_iface.c:1059 UCX  ERROR ibv_create_cq(cqe=256) failed: Connection timed out
[1737011766.388852] [ohm:110397:0]        ib_iface.c:1059 UCX  ERROR ibv_create_cq(cqe=256) failed: Connection timed out
[1737011766.390951] [ohm:110396:0]        ib_iface.c:1059 UCX  ERROR ibv_create_cq(cqe=256) failed: Connection timed out
[1737011766.391011] [ohm:110362:0]        ib_iface.c:1059 UCX  ERROR ibv_create_cq(cqe=256) failed: Connection timed out
[1737011766.391010] [ohm:110374:0]        ib_iface.c:1059 UCX  ERROR ibv_create_cq(cqe=256) failed: Connection timed out
[1737011766.391961] [ohm:110365:0]        ib_iface.c:1059 UCX  ERROR ibv_create_cq(cqe=256) failed: Connection timed out
[1737011766.391994] [ohm:110354:0]        ib_iface.c:1059 UCX  ERROR ibv_create_cq(cqe=256) failed: Connection timed out
[1737011766.393020] [ohm:110398:0]        ib_iface.c:1059 UCX  ERROR ibv_create_cq(cqe=256) failed: Connection timed out
[1737011766.394404] [ohm:110373:0]        ib_iface.c:1059 UCX  ERROR ibv_create_cq(cqe=256) failed: Connection timed out
[1737011766.396819] [ohm:110366:0]        ib_iface.c:1059 UCX  ERROR ibv_create_cq(cqe=256) failed: Connection timed out
[1737011766.397363] [ohm:110371:0]        ib_iface.c:1059 UCX  ERROR ibv_create_cq(cqe=256) failed: Connection timed out
[1737011766.397690] [ohm:110355:0]        ib_iface.c:1059 UCX  ERROR ibv_create_cq(cqe=256) failed: Connection timed out
[1737011766.397802] [ohm:110375:0]        ib_iface.c:1059 UCX  ERROR ibv_create_cq(cqe=256) failed: Connection timed out
[1737011766.397811] [ohm:110363:0]        ib_iface.c:1059 UCX  ERROR ibv_create_cq(cqe=256) failed: Connection timed out
[1737011766.398212] [ohm:110357:0]        ib_iface.c:1059 UCX  ERROR ibv_create_cq(cqe=256) failed: Connection timed out
[1737011766.398782] [ohm:110356:0]        ib_iface.c:1059 UCX  ERROR ibv_create_cq(cqe=256) failed: Connection timed out
[1737011766.400170] [ohm:110360:0]        ib_iface.c:1059 UCX  ERROR ibv_create_cq(cqe=256) failed: Connection timed out
[1737011766.400277] [ohm:110353:0]        ib_iface.c:1059 UCX  ERROR ibv_create_cq(cqe=256) failed: Connection timed out
[1737011766.400465] [ohm:110368:0]        ib_iface.c:1059 UCX  ERROR ibv_create_cq(cqe=256) failed: Connection timed out
[1737011766.401233] [ohm:110367:0]        ib_iface.c:1059 UCX  ERROR ibv_create_cq(cqe=256) failed: Connection timed out
[1737011766.401364] [ohm:110364:0]        ib_iface.c:1059 UCX  ERROR ibv_create_cq(cqe=256) failed: Connection timed out
[1737011766.402582] [ohm:110378:0]        ib_iface.c:1059 UCX  ERROR ibv_create_cq(cqe=256) failed: Connection timed out
[1737011766.402675] [ohm:110359:0]        ib_iface.c:1059 UCX  ERROR ibv_create_cq(cqe=256) failed: Connection timed out
[1737011766.402714] [ohm:110389:0]        ib_iface.c:1059 UCX  ERROR ibv_create_cq(cqe=256) failed: Connection timed out
[1737011766.402857] [ohm:110372:0]        ib_iface.c:1059 UCX  ERROR ibv_create_cq(cqe=256) failed: Connection timed out
[1737011766.402886] [ohm:110358:0]        ib_iface.c:1059 UCX  ERROR ibv_create_cq(cqe=256) failed: Connection timed out
[1737011766.423272] [ohm:110399:0]        ib_iface.c:1059 UCX  ERROR ibv_create_cq(cqe=256) failed: Connection timed out


           ************************************************************
           *        Program running with 32 parallel MPI-processes    *
           *              working on a common directory               *
           ************************************************************

-------------------------------------------------------------------------------------------
                                      ORCA LEAN-SCF
                              memory conserving SCF solver
-------------------------------------------------------------------------------------------

----------------------------------------D-I-I-S--------------------------------------------
Iteration    Energy (Eh)           Delta-E    RMSDP     MaxDP     DIISErr   Damp  Time(sec)
-------------------------------------------------------------------------------------------
               ***  Starting incremental Fock matrix formation  ***
    1    -908.0405164503190463     0.00e+00  2.33e-03  6.62e-01  1.48e-01  0.700  11.7
    2    -908.3024407270349911    -2.62e-01  1.84e-03  5.17e-01  7.06e-02  0.700   8.0
                               ***Turning on AO-DIIS***
    3    -908.4185725140027898    -1.16e-01  1.37e-03  4.01e-01  2.81e-02  0.700   7.2
    4    -908.4899379210687584    -7.14e-02  3.22e-03  9.49e-01  1.84e-02  0.000   7.1
    5    -908.6500124344647702    -1.60e-01  2.08e-04  3.98e-02  4.89e-03  0.000   7.2
                              *** Initializing SOSCF ***
---------------------------------------S-O-S-C-F--------------------------------------
Iteration    Energy (Eh)           Delta-E    RMSDP     MaxDP     MaxGrad    Time(sec)
--------------------------------------------------------------------------------------
    6    -908.6511463232131973    -1.13e-03  8.75e-05  1.36e-02  3.07e-03     7.6
               *** Restarting incremental Fock matrix formation ***
    7    -908.6515971797348357    -4.51e-04  3.89e-04  5.70e-02  2.46e-03    11.2
    8    -908.6518316196875276    -2.34e-04  3.13e-04  6.47e-02  1.81e-03     9.6
    9    -908.6518966042367538    -6.50e-05  2.66e-04  5.77e-02  7.12e-04     9.7
   10    -908.6519513066832587    -5.47e-05  1.67e-05  2.88e-03  3.92e-04     9.4
   11    -908.6519560805795663    -4.77e-06  1.03e-05  1.68e-03  3.39e-04     8.9
   12    -908.6519584643747294    -2.38e-06  6.66e-06  8.28e-04  1.68e-04     8.7
   13    -908.6519591570058765    -6.93e-07  1.87e-06  2.65e-04  3.65e-05     8.5
   14    -908.6519592067593294    -4.98e-08  1.52e-06  3.41e-04  1.64e-05     8.1
   15    -908.6519592305908191    -2.38e-08  1.58e-06  3.62e-04  6.91e-06     7.9
   16    -908.6519592603085584    -2.97e-08  1.42e-06  3.30e-04  3.61e-06     7.6
   17    -908.6519592659929003    -5.68e-09  3.09e-06  9.67e-04  1.66e-06     7.4
                 **** Energy Check signals convergence ****

               *****************************************************
               *                     SUCCESS                       *
               *           SCF CONVERGED AFTER  17 CYCLES          *
               *****************************************************

Recomputing exchange energy using gridx3       ... done (   14.530 sec)
Old exchange energy                            :    -35.052951712 Eh
New exchange energy                            :    -35.052958638 Eh
Exchange energy change after final integration :     -0.000006925 Eh
Total energy after final integration           :   -908.651966191 Eh
             **** ENERGY FILE WAS UPDATED (orca.en.tmp) ****

----------------
TOTAL SCF ENERGY
----------------

Total Energy       :       -908.65196619102755 Eh          -24725.67703 eV

Components:
Nuclear Repulsion  :       1460.66284878039914 Eh           39746.65680 eV
Electronic Energy  :      -2369.31480804639205 Eh          -64472.33364 eV
One Electron Energy:      -4138.25217232360319 Eh         -112607.56647 eV
Two Electron Energy:       1768.93736427721115 Eh           48135.23283 eV

Virial components:
Potential Energy   :      -1814.69848129134562 Eh          -49380.45613 eV
Kinetic Energy     :        906.04651510031795 Eh           24654.77910 eV
Virial Ratio       :          2.00287562619279

DFT components:
N(Alpha)           :       67.000002676794 electrons
N(Beta)            :       65.000012249645 electrons
N(Total)           :      132.000014926439 electrons
E(XC)              :      -86.309440172328 Eh       

---------------
SCF CONVERGENCE
---------------

  Last Energy change         ...    5.6843e-09  Tolerance :   1.0000e-08
  Last MAX-Density change    ...    9.6733e-04  Tolerance :   1.0000e-07
  Last RMS-Density change    ...    3.0925e-06  Tolerance :   5.0000e-09
  Last DIIS Error            ...    3.0681e-03  Tolerance :   5.0000e-07
  Last Orbital Gradient      ...    1.6626e-06  Tolerance :   1.0000e-05
  Last Orbital Rotation      ...    7.8569e-06  Tolerance :   1.0000e-05


----------------------
UHF SPIN CONTAMINATION
----------------------

Warning: in a DFT calculation there is little theoretical justification to 
         calculate <S**2> as in Hartree-Fock theory. We will do it anyways
         but you should keep in mind that the values have only limited relevance

Expectation value of <S**2>     :     2.010686
Ideal value S*(S+1) for S=1.0   :     2.000000
Deviation                       :     0.010686

----------------
ORBITAL ENERGIES
----------------
                 SPIN UP ORBITALS
  NO   OCC          E(Eh)            E(eV) 
   0   1.0000     -19.338931      -526.2391 
   1   1.0000     -19.334117      -526.1081 
   2   1.0000     -19.321647      -525.7687 
   3   1.0000     -19.320469      -525.7367 
   4   1.0000     -14.568487      -396.4287 
   5   1.0000     -14.567335      -396.3973 
   6   1.0000     -14.566664      -396.3791 
   7   1.0000     -14.563813      -396.3015 
   8   1.0000     -10.510712      -286.0110 
   9   1.0000     -10.508181      -285.9422 
  10   1.0000     -10.493633      -285.5463 
  11   1.0000     -10.480594      -285.1915 
  12   1.0000     -10.437102      -284.0080 
  13   1.0000     -10.434675      -283.9419 
  14   1.0000     -10.417570      -283.4765 
  15   1.0000     -10.395158      -282.8666 
  16   1.0000     -10.373078      -282.2658 
  17   1.0000     -10.369780      -282.1761 
  18   1.0000      -1.227758       -33.4090 
  19   1.0000      -1.220236       -33.2043 
  20   1.0000      -1.205062       -32.7914 
  21   1.0000      -1.199201       -32.6319 
  22   1.0000      -1.130603       -30.7653 
  23   1.0000      -1.090627       -29.6775 
  24   1.0000      -1.074941       -29.2506 
  25   1.0000      -1.063394       -28.9364 
  26   1.0000      -1.016003       -27.6468 
  27   1.0000      -0.937397       -25.5079 
  28   1.0000      -0.881989       -24.0001 
  29   1.0000      -0.823251       -22.4018 
  30   1.0000      -0.819380       -22.2965 
  31   1.0000      -0.810270       -22.0486 
  32   1.0000      -0.792264       -21.5586 
  33   1.0000      -0.774638       -21.0790 
  34   1.0000      -0.729090       -19.8396 
  35   1.0000      -0.702498       -19.1159 
  36   1.0000      -0.695645       -18.9295 
  37   1.0000      -0.666825       -18.1452 
  38   1.0000      -0.641953       -17.4684 
  39   1.0000      -0.630833       -17.1658 
  40   1.0000      -0.614280       -16.7154 
  41   1.0000      -0.611117       -16.6293 
  42   1.0000      -0.598772       -16.2934 
  43   1.0000      -0.590710       -16.0740 
  44   1.0000      -0.580409       -15.7937 
  45   1.0000      -0.569870       -15.5070 
  46   1.0000      -0.564912       -15.3721 
  47   1.0000      -0.563034       -15.3209 
  48   1.0000      -0.555257       -15.1093 
  49   1.0000      -0.552568       -15.0361 
  50   1.0000      -0.546145       -14.8614 
  51   1.0000      -0.542371       -14.7587 
  52   1.0000      -0.535259       -14.5651 
  53   1.0000      -0.513737       -13.9795 
  54   1.0000      -0.504907       -13.7392 
  55   1.0000      -0.481288       -13.0965 
  56   1.0000      -0.453271       -12.3341 
  57   1.0000      -0.428562       -11.6618 
  58   1.0000      -0.419805       -11.4235 
  59   1.0000      -0.409804       -11.1513 
  60   1.0000      -0.405006       -11.0208 
  61   1.0000      -0.400151       -10.8887 
  62   1.0000      -0.394760       -10.7420 
  63   1.0000      -0.390651       -10.6301 
  64   1.0000      -0.381559       -10.3828 
  65   1.0000      -0.369302       -10.0492 
  66   1.0000      -0.296699        -8.0736 
  67   0.0000       0.009140         0.2487 
  68   0.0000       0.029527         0.8035 
  69   0.0000       0.031875         0.8674 
  70   0.0000       0.036678         0.9981 
  71   0.0000       0.045862         1.2480 
  72   0.0000       0.057064         1.5528 
  73   0.0000       0.058245         1.5849 
  74   0.0000       0.060531         1.6471 
  75   0.0000       0.062458         1.6996 
  76   0.0000       0.065066         1.7705 
  77   0.0000       0.070829         1.9274 

                 SPIN DOWN ORBITALS
  NO   OCC          E(Eh)            E(eV) 
   0   1.0000     -19.338863      -526.2372 
   1   1.0000     -19.328395      -525.9524 
   2   1.0000     -19.321700      -525.7702 
   3   1.0000     -19.320467      -525.7366 
   4   1.0000     -14.568453      -396.4278 
   5   1.0000     -14.567245      -396.3949 
   6   1.0000     -14.566582      -396.3769 
   7   1.0000     -14.563796      -396.3010 
   8   1.0000     -10.510729      -286.0115 
   9   1.0000     -10.508184      -285.9422 
  10   1.0000     -10.493635      -285.5463 
  11   1.0000     -10.481206      -285.2081 
  12   1.0000     -10.436682      -283.9966 
  13   1.0000     -10.434330      -283.9325 
  14   1.0000     -10.416974      -283.4603 
  15   1.0000     -10.373398      -282.2745 
  16   1.0000     -10.369475      -282.1677 
  17   1.0000     -10.367448      -282.1126 
  18   1.0000      -1.227443       -33.4004 
  19   1.0000      -1.219103       -33.1735 
  20   1.0000      -1.204914       -32.7874 
  21   1.0000      -1.191035       -32.4097 
  22   1.0000      -1.130015       -30.7493 
  23   1.0000      -1.089827       -29.6557 
  24   1.0000      -1.073702       -29.2169 
  25   1.0000      -1.062772       -28.9195 
  26   1.0000      -1.014646       -27.6099 
  27   1.0000      -0.908928       -24.7332 
  28   1.0000      -0.880827       -23.9685 
  29   1.0000      -0.822714       -22.3872 
  30   1.0000      -0.815055       -22.1788 
  31   1.0000      -0.804742       -21.8981 
  32   1.0000      -0.788751       -21.4630 
  33   1.0000      -0.769655       -20.9434 
  34   1.0000      -0.724174       -19.7058 
  35   1.0000      -0.700491       -19.0613 
  36   1.0000      -0.687089       -18.6966 
  37   1.0000      -0.666014       -18.1232 
  38   1.0000      -0.635152       -17.2834 
  39   1.0000      -0.626790       -17.0558 
  40   1.0000      -0.611968       -16.6525 
  41   1.0000      -0.607425       -16.5289 
  42   1.0000      -0.589432       -16.0393 
  43   1.0000      -0.580785       -15.8040 
  44   1.0000      -0.576777       -15.6949 
  45   1.0000      -0.563726       -15.3398 
  46   1.0000      -0.560494       -15.2518 
  47   1.0000      -0.555008       -15.1025 
  48   1.0000      -0.551661       -15.0115 
  49   1.0000      -0.550239       -14.9728 
  50   1.0000      -0.541079       -14.7235 
  51   1.0000      -0.531002       -14.4493 
  52   1.0000      -0.526828       -14.3357 
  53   1.0000      -0.511992       -13.9320 
  54   1.0000      -0.493069       -13.4171 
  55   1.0000      -0.480052       -13.0629 
  56   1.0000      -0.445056       -12.1106 
  57   1.0000      -0.422091       -11.4857 
  58   1.0000      -0.418502       -11.3880 
  59   1.0000      -0.406213       -11.0536 
  60   1.0000      -0.400498       -10.8981 
  61   1.0000      -0.392836       -10.6896 
  62   1.0000      -0.388763       -10.5788 
  63   1.0000      -0.381516       -10.3816 
  64   1.0000      -0.368395       -10.0245 
  65   0.0000      -0.051302        -1.3960 
  66   0.0000       0.008720         0.2373 
  67   0.0000       0.026541         0.7222 
  68   0.0000       0.031524         0.8578 
  69   0.0000       0.036079         0.9818 
  70   0.0000       0.039731         1.0811 
  71   0.0000       0.047330         1.2879 
  72   0.0000       0.058098         1.5809 
  73   0.0000       0.059813         1.6276 
  74   0.0000       0.060625         1.6497 
  75   0.0000       0.064935         1.7670 
*Only the first 10 virtual orbitals were printed.

                    ********************************
                    * MULLIKEN POPULATION ANALYSIS *
                    ********************************

--------------------------------------------
MULLIKEN ATOMIC CHARGES AND SPIN POPULATIONS
--------------------------------------------
   0 O :   -0.631014    0.003528
   1 O :   -0.614566    0.191009
   2 O :   -0.650565    0.000055
   3 O :   -0.665736   -0.001465
   4 N :   -0.128166    0.003165
   5 N :   -0.112494   -0.000252
   6 N :    0.011869   -0.000212
   7 N :    0.076496    0.002922
   8 C :    1.835456    0.072106
   9 C :    0.362373    1.528788
  10 C :   -0.468715    0.004999
  11 C :   -0.495888    0.014187
  12 C :   -1.672852    0.012968
  13 C :   -1.439518    0.075190
  14 C :   -0.025762   -0.005208
  15 C :    0.541635    0.030815
  16 C :    0.450410    0.001154
  17 C :    0.552116    0.004185
  18 H :    0.239567   -0.000509
  19 H :    0.389391   -0.002606
  20 H :    0.361747    0.001396
  21 H :    0.356482    0.001832
  22 H :    0.456424    0.000329
  23 H :    0.322606    0.016666
  24 H :    0.313323    0.014986
  25 H :    0.456576    0.030061
  26 H :    0.037775    0.000360
  27 H :    0.085035   -0.000137
  28 H :    0.039030   -0.000172
  29 H :    0.016966   -0.000141
Sum of atomic charges         :    0.0000000
Sum of atomic spin populations:    2.0000000

-----------------------------------------------------
MULLIKEN REDUCED ORBITAL CHARGES AND SPIN POPULATIONS
-----------------------------------------------------
CHARGE
  0 O s       :     4.083938  s :     4.083938
      pz      :     1.452143  p :     4.515899
      px      :     1.359340
      py      :     1.704416
      dz2     :     0.009576  d :     0.029204
      dxz     :     0.005783
      dyz     :     0.005432
      dx2y2   :     0.005693
      dxy     :     0.002719
      f0      :     0.000304  f :     0.001974
      f+1     :     0.000301
      f-1     :     0.000328
      f+2     :     0.000399
      f-2     :     0.000361
      f+3     :     0.000143
      f-3     :     0.000138

  1 O s       :     4.086384  s :     4.086384
      pz      :     1.469460  p :     4.499896
      px      :     1.474902
      py      :     1.555533
      dz2     :     0.002691  d :     0.026379
      dxz     :     0.009253
      dyz     :     0.008030
      dx2y2   :     0.002811
      dxy     :     0.003594
      f0      :     0.000347  f :     0.001907
      f+1     :     0.000193
      f-1     :     0.000507
      f+2     :     0.000361
      f-2     :     0.000369
      f+3     :     0.000069
      f-3     :     0.000061

  2 O s       :     4.075773  s :     4.075773
      pz      :     1.767636  p :     4.542620
      px      :     1.497333
      py      :     1.277651
      dz2     :     0.003061  d :     0.030206
      dxz     :    -0.000908
      dyz     :     0.004716
      dx2y2   :     0.008884
      dxy     :     0.014453
      f0      :     0.000221  f :     0.001966
      f+1     :     0.000054
      f-1     :     0.000330
      f+2     :     0.000304
      f-2     :     0.000087
      f+3     :     0.000533
      f-3     :     0.000437

  3 O s       :     4.087406  s :     4.087406
      pz      :     1.755987  p :     4.548039
      px      :     1.398953
      py      :     1.393099
      dz2     :     0.002534  d :     0.028308
      dxz     :     0.001889
      dyz     :     0.003506
      dx2y2   :     0.013684
      dxy     :     0.006694
      f0      :     0.000193  f :     0.001982
      f+1     :     0.000181
      f-1     :     0.000251
      f+2     :     0.000187
      f-2     :     0.000357
      f+3     :     0.000362
      f-3     :     0.000452

  4 N s       :     3.549858  s :     3.549858
      pz      :     1.017586  p :     3.509496
      px      :     1.592029
      py      :     0.899880
      dz2     :     0.025309  d :     0.065087
      dxz     :     0.011199
      dyz     :     0.006389
      dx2y2   :     0.009642
      dxy     :     0.012548
      f0      :     0.000634  f :     0.003726
      f+1     :     0.000438
      f-1     :     0.000543
      f+2     :     0.000637
      f-2     :     0.000263
      f+3     :     0.000616
      f-3     :     0.000595

  5 N s       :     3.630014  s :     3.630014
      pz      :     0.925393  p :     3.437540
      px      :     1.177823
      py      :     1.334324
      dz2     :     0.010901  d :     0.041420
      dxz     :     0.010136
      dyz     :     0.015338
      dx2y2   :     0.006000
      dxy     :    -0.000954
      f0      :     0.000724  f :     0.003520
      f+1     :     0.000768
      f-1     :     0.000539
      f+2     :     0.000316
      f-2     :     0.000419
      f+3     :     0.000340
      f-3     :     0.000415

  6 N s       :     3.483815  s :     3.483815
      pz      :     1.027706  p :     3.424258
      px      :     1.504300
      py      :     0.892252
      dz2     :     0.012752  d :     0.076384
      dxz     :     0.011003
      dyz     :     0.020371
      dx2y2   :     0.023701
      dxy     :     0.008557
      f0      :     0.000408  f :     0.003674
      f+1     :     0.000323
      f-1     :     0.000453
      f+2     :     0.000640
      f-2     :     0.000403
      f+3     :     0.000726
      f-3     :     0.000721

  7 N s       :     3.429453  s :     3.429453
      pz      :     0.969125  p :     3.418626
      px      :     1.451910
      py      :     0.997591
      dz2     :     0.007171  d :     0.071842
      dxz     :     0.004731
      dyz     :     0.018276
      dx2y2   :     0.023585
      dxy     :     0.018079
      f0      :     0.000328  f :     0.003584
      f+1     :     0.000239
      f-1     :     0.000421
      f+2     :     0.000418
      f-2     :     0.000545
      f+3     :     0.000792
      f-3     :     0.000841

  8 C s       :     2.583782  s :     2.583782
      pz      :     0.470711  p :     1.541551
      px      :     0.428303
      py      :     0.642537
      dz2     :    -0.000591  d :     0.028370
      dxz     :     0.043589
      dyz     :    -0.010092
      dx2y2   :     0.005247
      dxy     :    -0.009784
      f0      :     0.001462  f :     0.010841
      f+1     :     0.001470
      f-1     :     0.001378
      f+2     :     0.001800
      f-2     :     0.001862
      f+3     :     0.001284
      f-3     :     0.001584

  9 C s       :     3.330027  s :     3.330027
      pz      :     0.798931  p :     2.356477
      px      :     0.710251
      py      :     0.847294
      dz2     :    -0.029128  d :    -0.054861
      dxz     :     0.003062
      dyz     :    -0.010701
      dx2y2   :     0.000383
      dxy     :    -0.018476
      f0      :     0.001161  f :     0.005984
      f+1     :     0.000829
      f-1     :     0.001247
      f+2     :     0.000856
      f-2     :     0.000905
      f+3     :     0.000562
      f-3     :     0.000424

 10 C s       :     3.784226  s :     3.784226
      pz      :     1.014394  p :     2.608772
      px      :     0.993486
      py      :     0.600892
      dz2     :     0.016582  d :     0.063447
      dxz     :     0.004866
      dyz     :     0.033532
      dx2y2   :    -0.025059
      dxy     :     0.033525
      f0      :     0.001355  f :     0.012270
      f+1     :     0.001147
      f-1     :     0.001893
      f+2     :     0.002152
      f-2     :     0.001267
      f+3     :     0.002499
      f-3     :     0.001958

 11 C s       :     3.694828  s :     3.694828
      pz      :     1.144960  p :     2.744003
      px      :     0.573435
      py      :     1.025607
      dz2     :     0.014930  d :     0.044882
      dxz     :    -0.057636
      dyz     :     0.068731
      dx2y2   :     0.016152
      dxy     :     0.002705
      f0      :     0.000932  f :     0.012175
      f+1     :     0.001949
      f-1     :     0.000740
      f+2     :     0.002182
      f-2     :     0.001764
      f+3     :     0.002364
      f-3     :     0.002244

 12 C s       :     3.873914  s :     3.873914
      pz      :     1.353950  p :     3.712354
      px      :     1.226525
      py      :     1.131880
      dz2     :     0.006114  d :     0.083776
      dxz     :     0.017940
      dyz     :     0.035089
      dx2y2   :     0.003857
      dxy     :     0.020775
      f0      :     0.000185  f :     0.002809
      f+1     :     0.000192
      f-1     :     0.000356
      f+2     :     0.000148
      f-2     :     0.000818
      f+3     :     0.000533
      f-3     :     0.000577

 13 C s       :     3.697780  s :     3.697780
      pz      :     1.325025  p :     3.596867
      px      :     1.118499
      py      :     1.153343
      dz2     :     0.025132  d :     0.141597
      dxz     :     0.025039
      dyz     :     0.051423
      dx2y2   :     0.023222
      dxy     :     0.016781
      f0      :     0.000150  f :     0.003274
      f+1     :     0.000416
      f-1     :     0.000656
      f+2     :     0.000481
      f-2     :     0.000556
      f+3     :     0.000447
      f-3     :     0.000568

 14 C s       :     3.822647  s :     3.822647
      pz      :     0.623063  p :     1.973063
      px      :     0.657750
      py      :     0.692249
      dz2     :     0.057098  d :     0.208030
      dxz     :     0.006922
      dyz     :     0.033121
      dx2y2   :     0.052889
      dxy     :     0.058001
      f0      :     0.004126  f :     0.022022
      f+1     :     0.002943
      f-1     :     0.002428
      f+2     :     0.004382
      f-2     :     0.002705
      f+3     :     0.002766
      f-3     :     0.002672

 15 C s       :     3.265201  s :     3.265201
      pz      :     0.736842  p :     1.987047
      px      :     0.639532
      py      :     0.610672
      dz2     :     0.073126  d :     0.183615
      dxz     :     0.057235
      dyz     :    -0.023362
      dx2y2   :     0.028586
      dxy     :     0.048029
      f0      :     0.005312  f :     0.022503
      f+1     :     0.001998
      f-1     :     0.003412
      f+2     :     0.003233
      f-2     :     0.003884
      f+3     :     0.002000
      f-3     :     0.002663

 16 C s       :     3.296948  s :     3.296948
      pz      :     0.697181  p :     1.986762
      px      :     0.715174
      py      :     0.574408
      dz2     :     0.019999  d :     0.240289
      dxz     :     0.061978
      dyz     :     0.090555
      dx2y2   :    -0.004366
      dxy     :     0.072124
      f0      :     0.004701  f :     0.025591
      f+1     :     0.002269
      f-1     :     0.004095
      f+2     :     0.005084
      f-2     :     0.002858
      f+3     :     0.003793
      f-3     :     0.002790

 17 C s       :     3.253660  s :     3.253660
      pz      :     0.678542  p :     1.919049
      px      :     0.620848
      py      :     0.619658
      dz2     :     0.038494  d :     0.249597
      dxz     :     0.058876
      dyz     :     0.073623
      dx2y2   :     0.071109
      dxy     :     0.007495
      f0      :     0.003523  f :     0.025578
      f+1     :     0.004194
      f-1     :     0.005701
      f+2     :     0.002803
      f-2     :     0.003417
      f+3     :     0.002530
      f-3     :     0.003409

 18 H s       :     0.715404  s :     0.715404
      pz      :     0.021231  p :     0.042203
      px      :     0.010867
      py      :     0.010105
      dz2     :     0.000847  d :     0.002826
      dxz     :     0.000838
      dyz     :     0.000786
      dx2y2   :     0.000232
      dxy     :     0.000123

 19 H s       :     0.529584  s :     0.529584
      pz      :     0.049356  p :     0.078027
      px      :     0.006613
      py      :     0.022057
      dz2     :     0.000572  d :     0.002999
      dxz     :     0.000407
      dyz     :     0.000763
      dx2y2   :     0.000593
      dxy     :     0.000664

 20 H s       :     0.565294  s :     0.565294
      pz      :     0.023596  p :     0.070586
      px      :     0.017901
      py      :     0.029089
      dz2     :     0.000706  d :     0.002373
      dxz     :     0.000521
      dyz     :     0.000558
      dx2y2   :     0.000256
      dxy     :     0.000332

 21 H s       :     0.582308  s :     0.582308
      pz      :     0.031453  p :     0.058868
      px      :     0.001642
      py      :     0.025772
      dz2     :     0.000576  d :     0.002342
      dxz     :     0.000434
      dyz     :     0.000482
      dx2y2   :     0.000452
      dxy     :     0.000397

 22 H s       :     0.489747  s :     0.489747
      pz      :     0.031270  p :     0.051605
      px      :     0.022032
      py      :    -0.001697
      dz2     :     0.000342  d :     0.002224
      dxz     :     0.000487
      dyz     :     0.000287
      dx2y2   :     0.000536
      dxy     :     0.000572

 23 H s       :     0.614898  s :     0.614898
      pz      :     0.030695  p :     0.060300
      px      :     0.022854
      py      :     0.006751
      dz2     :     0.000165  d :     0.002195
      dxz     :     0.000637
      dyz     :     0.000129
      dx2y2   :     0.000553
      dxy     :     0.000711

 24 H s       :     0.616757  s :     0.616757
      pz      :     0.040578  p :     0.067674
      px      :     0.009048
      py      :     0.018047
[...]
=> NOW LEAVING ORCA_CIS


-------------------------------------------------------------------------------
                          DFT DISPERSION CORRECTION                            
                                                                               
                              DFTD3 V3.1  Rev 1                                
                          USING Becke-Johnson damping                          
-------------------------------------------------------------------------------
The WB97M functional is recognized
Active option DFTDOPT                   ...         4   

molecular C6(AA) [au] = 9548.303908 


            DFT-D V3
 parameters
 s6 scaling factor         :     1.0000 
 a1 scaling factor         :     0.5660 
 s8 scaling factor         :     0.3908 
 a2 scaling factor         :     3.1280 
 ad hoc parameters k1-k3   :    16.0000     1.3333    -4.0000 

 Edisp/kcal,au: -37.516783572973  -0.059786793860 
 E6   /kcal   : -30.063813255 
 E8   /kcal   :  -7.452970318 
 % E8         :  19.865696385 

-------------------------   ----------------
Dispersion correction           -0.059786794
-------------------------   ----------------


-------------------------   --------------------
FINAL SINGLE POINT ENERGY      -908.732359583895
-------------------------   --------------------

[1737012121.571585] [ohm:111003:0]        ib_iface.c:1059 UCX  ERROR ibv_create_cq(cqe=256) failed: Connection timed out
[1737012121.571588] [ohm:111013:0]        ib_iface.c:1059 UCX  ERROR ibv_create_cq(cqe=256) failed: Connection timed out
[1737012121.571691] [ohm:111009:0]        ib_iface.c:1059 UCX  ERROR ibv_create_cq(cqe=256) failed: Connection timed out
[1737012121.571860] [ohm:111010:0]        ib_iface.c:1059 UCX  ERROR ibv_create_cq(cqe=256) failed: Connection timed out
[1737012121.571908] [ohm:111006:0]        ib_iface.c:1059 UCX  ERROR ibv_create_cq(cqe=256) failed: Connection timed out
[1737012121.571970] [ohm:111014:0]        ib_iface.c:1059 UCX  ERROR ibv_create_cq(cqe=256) failed: Connection timed out
[1737012121.573156] [ohm:111000:0]        ib_iface.c:1059 UCX  ERROR ibv_create_cq(cqe=256) failed: Connection timed out
[1737012121.576966] [ohm:111042:0]        ib_iface.c:1059 UCX  ERROR ibv_create_cq(cqe=256) failed: Connection timed out
[1737012121.576965] [ohm:111026:0]        ib_iface.c:1059 UCX  ERROR ibv_create_cq(cqe=256) failed: Connection timed out
[1737012121.577167] [ohm:111044:0]        ib_iface.c:1059 UCX  ERROR ibv_create_cq(cqe=256) failed: Connection timed out
[1737012121.577201] [ohm:111030:0]        ib_iface.c:1059 UCX  ERROR ibv_create_cq(cqe=256) failed: Connection timed out
[1737012121.580802] [ohm:111025:0]        ib_iface.c:1059 UCX  ERROR ibv_create_cq(cqe=256) failed: Connection timed out
[1737012121.582228] [ohm:111017:0]        ib_iface.c:1059 UCX  ERROR ibv_create_cq(cqe=256) failed: Connection timed out
[1737012121.584049] [ohm:111018:0]        ib_iface.c:1059 UCX  ERROR ibv_create_cq(cqe=256) failed: Connection timed out
[1737012121.586723] [ohm:111022:0]        ib_iface.c:1059 UCX  ERROR ibv_create_cq(cqe=256) failed: Connection timed out
[1737012121.588628] [ohm:111021:0]        ib_iface.c:1059 UCX  ERROR ibv_create_cq(cqe=256) failed: Connection timed out
[1737012121.596220] [ohm:111008:0]        ib_iface.c:1059 UCX  ERROR ibv_create_cq(cqe=256) failed: Connection timed out
[1737012121.596220] [ohm:111024:0]        ib_iface.c:1059 UCX  ERROR ibv_create_cq(cqe=256) failed: Connection timed out
[1737012121.596738] [ohm:111029:0]        ib_iface.c:1059 UCX  ERROR ibv_create_cq(cqe=256) failed: Connection timed out
[1737012121.601497] [ohm:111005:0]        ib_iface.c:1059 UCX  ERROR ibv_create_cq(cqe=256) failed: Connection timed out
[1737012121.602132] [ohm:111016:0]        ib_iface.c:1059 UCX  ERROR ibv_create_cq(cqe=256) failed: Connection timed out
[1737012121.603575] [ohm:111004:0]        ib_iface.c:1059 UCX  ERROR ibv_create_cq(cqe=256) failed: Connection timed out
[1737012121.604095] [ohm:111020:0]        ib_iface.c:1059 UCX  ERROR ibv_create_cq(cqe=256) failed: Connection timed out
[1737012121.604588] [ohm:111023:0]        ib_iface.c:1059 UCX  ERROR ibv_create_cq(cqe=256) failed: Connection timed out
[1737012121.604824] [ohm:111002:0]        ib_iface.c:1059 UCX  ERROR ibv_create_cq(cqe=256) failed: Connection timed out
[1737012121.604864] [ohm:111015:0]        ib_iface.c:1059 UCX  ERROR ibv_create_cq(cqe=256) failed: Connection timed out
[1737012121.604885] [ohm:111007:0]        ib_iface.c:1059 UCX  ERROR ibv_create_cq(cqe=256) failed: Connection timed out
[1737012121.604955] [ohm:111011:0]        ib_iface.c:1059 UCX  ERROR ibv_create_cq(cqe=256) failed: Connection timed out
[1737012121.605093] [ohm:111039:0]        ib_iface.c:1059 UCX  ERROR ibv_create_cq(cqe=256) failed: Connection timed out
[1737012121.605121] [ohm:111019:0]        ib_iface.c:1059 UCX  ERROR ibv_create_cq(cqe=256) failed: Connection timed out
[1737012121.605104] [ohm:111001:0]        ib_iface.c:1059 UCX  ERROR ibv_create_cq(cqe=256) failed: Connection timed out
[1737012121.605158] [ohm:111012:0]        ib_iface.c:1059 UCX  ERROR ibv_create_cq(cqe=256) failed: Connection timed out


           ************************************************************
           *        Program running with 32 parallel MPI-processes    *
           *              working on a common directory               *
           ************************************************************

------------------------------------------------------------------------------
                              ORCA PROPERTY CALCULATIONS
------------------------------------------------------------------------------

GBWName                                 ... orca.gbw
Number of atoms                         ...     30
Number of basis functions               ...    882
Max core memory                         ...   1024 MB

Electric properties:
Dipole moment                           ... YES
Quadrupole moment                       ...  NO
Static polarizability (Dipole/Dipole)   ...  NO
Static polarizability (Dipole/Quad.)    ...  NO
Static polarizability (Quad./Quad.)     ...  NO
Static polarizability (Velocity)        ...  NO

Atomic electric properties:
Dipole moment                           ...  NO
Quadrupole moment                       ...  NO
Static polarizability                   ...  NO

Choice of electric origin               ... Center of mass
Position of electric origin             ...     0.063146    -0.009214    -0.036560

General magnetic properties:
Magnetizability                         ...  NO

EPR properties:
g-Tensor (aka g-matrix)                 ...  NO
Zero-Field splitting spin-orbit         ...  NO
Zero-field splitting spin-spin          ...  NO
Hyperfine couplings                     ...  NO (   0 nuclei)
Quadrupole couplings                    ...  NO (   0 nuclei)
Contact density                         ...  NO (   0 nuclei)

NMR properties:
Chemical shifts                         ...  NO (   0 nuclei)
Spin-rotation constants                 ...  NO (   0 nuclei)
Spin-spin couplings                     ...  NO (   0 nuclei,    0 pairs)

Choice of magnetic origin               ... GIAO
Position of magnetic origin             ...     0.000000     0.000000     0.000000

Properties with geometric perturbations:
SCF Hessian                             ...  NO
IR spectrum                             ...  NO
VCD spectrum                            ...  NO
X-ray spectroscopy properties:
SCF XES/XAS/RIXS spectra                ...  NO


-------------
DIPOLE MOMENT
-------------

Method             : SCF
Type of density    : Electron Density
Multiplicity       :   3
Irrep              :   0
Energy             :  -908.6519661910275545 Eh
Relativity type    : 
Basis              : AO
                                X                 Y                 Z
Electronic contribution:     -1.025623597      -9.982936657      -7.458210843
Nuclear contribution   :      1.136844406      10.951971229      10.161941241
                        -----------------------------------------
Total Dipole Moment    :      0.111220809       0.969034572       2.703730398
                        -----------------------------------------
Magnitude (a.u.)       :      2.874292284
Magnitude (Debye)      :      7.305870379



--------------------
Rotational spectrum 
--------------------
 
Rotational constants in cm-1:             0.022277             0.013884             0.012065 
Rotational constants in MHz :           667.856169           416.242673           361.712153 

Dipole components along the rotational axes: 
x,y,z [a.u.] :    -0.088866     1.916870     2.139923 
x,y,z [Debye]:    -0.225880     4.872296     5.439251 

 

-------------
DIPOLE MOMENT
-------------

Method             : TDA/CIS
Type of density    : Electron Density
Level              : Relaxed density
State              :   1
Multiplicity       :   3
Irrep              :   0
Energy             :     0.0000000000000000 Eh
Relativity type    : 
Basis              : AO
                                X                 Y                 Z
Electronic contribution:     -1.393971870      -9.916901291      -7.427635316
Nuclear contribution   :      1.136844406      10.951971229      10.161941241
                        -----------------------------------------
Total Dipole Moment    :     -0.257127464       1.035069938       2.734305926
                        -----------------------------------------
Magnitude (a.u.)       :      2.934946883
Magnitude (Debye)      :      7.460042117



--------------------
Rotational spectrum 
--------------------
 
Rotational constants in cm-1:             0.022277             0.013884             0.012065 
Rotational constants in MHz :           667.856169           416.242673           361.712153 

Dipole components along the rotational axes: 
x,y,z [a.u.] :     0.038917     1.682834     2.404261 
x,y,z [Debye]:     0.098920     4.277424     6.111145 

 

Dipole moment calculation done in   0.1 sec 

Maximum memory used throughout the entire PROP-calculation: 83.1 MB
[1737012122.894967] [ohm:111180:0]        ib_iface.c:1059 UCX  ERROR ibv_create_cq(cqe=256) failed: Connection timed out
[1737012122.894961] [ohm:111183:0]        ib_iface.c:1059 UCX  ERROR ibv_create_cq(cqe=256) failed: Connection timed out
[1737012122.895054] [ohm:111187:0]        ib_iface.c:1059 UCX  ERROR ibv_create_cq(cqe=256) failed: Connection timed out
[1737012122.895056] [ohm:111173:0]        ib_iface.c:1059 UCX  ERROR ibv_create_cq(cqe=256) failed: Connection timed out
[1737012122.896022] [ohm:111170:0]        ib_iface.c:1059 UCX  ERROR ibv_create_cq(cqe=256) failed: Connection timed out
[1737012122.896885] [ohm:111169:0]        ib_iface.c:1059 UCX  ERROR ibv_create_cq(cqe=256) failed: Connection timed out
[1737012122.896859] [ohm:111174:0]        ib_iface.c:1059 UCX  ERROR ibv_create_cq(cqe=256) failed: Connection timed out
[1737012122.897370] [ohm:111177:0]        ib_iface.c:1059 UCX  ERROR ibv_create_cq(cqe=256) failed: Connection timed out
[1737012122.897721] [ohm:111178:0]        ib_iface.c:1059 UCX  ERROR ibv_create_cq(cqe=256) failed: Connection timed out
[1737012122.898295] [ohm:111182:0]        ib_iface.c:1059 UCX  ERROR ibv_create_cq(cqe=256) failed: Connection timed out
[1737012122.978895] [ohm:111191:0]        ib_iface.c:1059 UCX  ERROR ibv_create_cq(cqe=256) failed: Connection timed out
[1737012122.978902] [ohm:111210:0]        ib_iface.c:1059 UCX  ERROR ibv_create_cq(cqe=256) failed: Connection timed out
[1737012122.978895] [ohm:111200:0]        ib_iface.c:1059 UCX  ERROR ibv_create_cq(cqe=256) failed: Connection timed out
[1737012122.978895] [ohm:111186:0]        ib_iface.c:1059 UCX  ERROR ibv_create_cq(cqe=256) failed: Connection timed out
[1737012122.983271] [ohm:111190:0]        ib_iface.c:1059 UCX  ERROR ibv_create_cq(cqe=256) failed: Connection timed out
[1737012122.983331] [ohm:111188:0]        ib_iface.c:1059 UCX  ERROR ibv_create_cq(cqe=256) failed: Connection timed out
[1737012122.983337] [ohm:111192:0]        ib_iface.c:1059 UCX  ERROR ibv_create_cq(cqe=256) failed: Connection timed out
[1737012122.984906] [ohm:111189:0]        ib_iface.c:1059 UCX  ERROR ibv_create_cq(cqe=256) failed: Connection timed out
[1737012122.984991] [ohm:111172:0]        ib_iface.c:1059 UCX  ERROR ibv_create_cq(cqe=256) failed: Connection timed out
[1737012122.985953] [ohm:111212:0]        ib_iface.c:1059 UCX  ERROR ibv_create_cq(cqe=256) failed: Connection timed out
[1737012122.985920] [ohm:111175:0]        ib_iface.c:1059 UCX  ERROR ibv_create_cq(cqe=256) failed: Connection timed out
[1737012122.985924] [ohm:111184:0]        ib_iface.c:1059 UCX  ERROR ibv_create_cq(cqe=256) failed: Connection timed out
[1737012122.986749] [ohm:111218:0]        ib_iface.c:1059 UCX  ERROR ibv_create_cq(cqe=256) failed: Connection timed out
[1737012122.986745] [ohm:111179:0]        ib_iface.c:1059 UCX  ERROR ibv_create_cq(cqe=256) failed: Connection timed out
[1737012122.986932] [ohm:111194:0]        ib_iface.c:1059 UCX  ERROR ibv_create_cq(cqe=256) failed: Connection timed out
[1737012122.987202] [ohm:111176:0]        ib_iface.c:1059 UCX  ERROR ibv_create_cq(cqe=256) failed: Connection timed out
[1737012122.987782] [ohm:111205:0]        ib_iface.c:1059 UCX  ERROR ibv_create_cq(cqe=256) failed: Connection timed out
[1737012122.988066] [ohm:111171:0]        ib_iface.c:1059 UCX  ERROR ibv_create_cq(cqe=256) failed: Connection timed out
[1737012122.988238] [ohm:111185:0]        ib_iface.c:1059 UCX  ERROR ibv_create_cq(cqe=256) failed: Connection timed out
[1737012122.988265] [ohm:111193:0]        ib_iface.c:1059 UCX  ERROR ibv_create_cq(cqe=256) failed: Connection timed out
[1737012122.988322] [ohm:111221:0]        ib_iface.c:1059 UCX  ERROR ibv_create_cq(cqe=256) failed: Connection timed out
[1737012122.988626] [ohm:111181:0]        ib_iface.c:1059 UCX  ERROR ibv_create_cq(cqe=256) failed: Connection timed out

--------------------------------
SUGGESTED CITATIONS FOR THIS RUN
--------------------------------

Below you find a list of papers that are relevant to this ORCA run
We neither can nor want to force you to cite these papers, but we appreciate if you do
You receive ORCA, which is the product of decades of hard work by many enthusiastic individuals, for free
The only thing we kindly ask in return is that you cite our papers,
We deeply appreciate it, if you show your appreciation for ORCA by not just citing the generic ORCA reference.

Please note that relegating all ORCA citations to the supporting information does *not* help us.
SI sections are not indexed - citations you put there will not count into any citation statistics
But we need these citations in order to attract the funding resources that allow us to do what we are doing

Therefore, if you are a happy ORCA user, please consider citing a few of the papers listed below in the main body of your paper

In addition to the list printed below, the program has created the file orca.bibtex that contains the list in bibtex format
You can import this file easily into all common literature databanks and citation aid programs


List of essential papers. We consider these as the minimum necessary citations

  1. Neese,F.
     Software update: the ORCA program system, version 5.0
     WIRES Comput. Molec. Sci., 2022 12(1)e1606
     doi.org/10.1002/wcms.1606

List of papers to cite with high priority. The work reported in these papers was absolutely
necessary for this run to complete.
Our perspective: the developers of density functionals and basis sets usually get cited in chemistry papers
Good! But without the algorithms to do something with them, the functionals or basis sets would not do anything.
Hence, in our opinion, the algorithm design and method developments papers are equally worthy of getting cited

  1. Neese,F.; Olbrich,G.
     Efficient use of the resolution of the identity approximation in time-dependent density functional calculations with hybrid density functionals
     Chem. Phys. Lett., 2002 362 170-178
     doi.org/10.1016/s0009-2614(02)01053-9
  2. Neese,F.
     An improvement of the resolution of the identity approximation for the formation of the Coulomb matrix
     J. Comp. Chem., 2003 24(14)1740-1747
     doi.org/10.1002/jcc.10318
  3. Neese,F.; Wennmohs,F.; Hansen,A.; Becker,U.
     Efficient, approximate and parallel Hartree-Fock and hybrid DFT calculations. A 'chain-of-spheres' algorithm for the Hartree-Fock exchange
     Chem. Phys., 2009 356(1-3)98-109
     doi.org/10.1016/j.chemphys.2008.10.036
  4. Petrenko,T.; Kossmann,S.; Neese,F.
     Efficient time-dependent density functional theory approximations for hybrid density functionals: Analytical gradients and parallelization
     J. Chem. Phys., 2011 134 054116
     doi.org/10.1063/1.3533441
  5. Helmich-Paris,B.; de Souza,B.; Neese,F.; Izsák,R.
     An improved chain of spheres for exchange algorithm
     J. Chem. Phys., 2021 155 104109
     doi.org/doi: 10.1063/5.0058766.
  6. Neese,F.
     The SHARK Integral Generation and Digestion System
     J. Comp. Chem., 2022  1-16
     doi.org/10.1002/jcc.26942
  7. Lehtola,S.; Steigemann,C.; Oliveira,M.; Marques,M.
     Recent developments in Libxc - A comprehensive library of functionals for density functional theory
     Software X, 2018 7 
     doi.org/10.1016/j.softx.2017.11.002
  8. Grimme,S.; Antony,J.; Ehrlich,S.; Krieg,H.
     A consistent and accurate ab initio parametrization of density functional dispersion correction (DFT-D) for the 94 elements H-Pu
     J. Chem. Phys., 2010 132 154104-XXXX
     doi.org/10.1063/1.3382344
  9. Grimme,S.; Ehrlich,S.; Goerigk,L.
     Effect of the damping function in dispersion corrected density functional theory
     J. Comput. Chem., 2011 32(7)1456-1465
     doi.org/10.1002/jcc.21759

List of suggested additional citations. These are papers that are important in the 'surrounding' of 
of this run, or papers that preceded the highly important papers. If you like your results we are grateful for a citation.

  1. Izsak,R.; Neese,F.
     An overlap fitted chain of spheres exchange method
     J. Chem. Phys., 2011 135 144105
     doi.org/10.1063/1.3646921
  2. Izsak,R.; Hansen,A.; Neese,F.
     The resolution of identity and chain of spheres approximations for the LPNO-CCSD singles Fock term
     Molec. Phys., 2012 110 2413-2417
     doi.org/10.1080/00268976.2012.687466
  3. Neese,F.
     The ORCA program system
     WIRES Comput. Molec. Sci., 2012 2(1)73-78
     doi.org/10.1002/wcms.81
  4. Izsak,R.; Neese,F.; Klopper,W.
     Robust fitting techniques in the chain of spheres approximation to the Fock exchange: The role of the complementary space
     J. Chem. Phys., 2013 139 
     doi.org/10.1063/1.4819264
  5. Neese,F.
     Software update: the ORCA program system, version 4.0
     WIRES Comput. Molec. Sci., 2018 8(1)1-6
     doi.org/10.1002/wcms.1327
  6. Neese,F.; Wennmohs,F.; Becker,U.; Riplinger,C.
     The ORCA quantum chemistry program package
     J. Chem. Phys., 2020 152 Art. No. L224108
     doi.org/10.1063/5.0004608

List of optional additional citations

  1. Neese,F.
     Approximate second-order SCF convergence for spin unrestricted wavefunctions
     Chem. Phys. Lett., 2000 325(1-3)93-98
     doi.org/10.1016/s0009-2614(00)00662-x

Timings for individual modules:

Sum of individual times          ...      363.322 sec (=   6.055 min)
Startup calculation              ...        4.276 sec (=   0.071 min)   1.2 %
SCF iterations                   ...      166.598 sec (=   2.777 min)  45.9 %
Property integrals               ...        2.164 sec (=   0.036 min)   0.6 %
Property calculations            ...        1.403 sec (=   0.023 min)   0.4 %
CIS module                       ...      188.881 sec (=   3.148 min)  52.0 %
                             ****ORCA TERMINATED NORMALLY****
TOTAL RUN TIME: 0 days 0 hours 6 minutes 4 seconds 296 msec
