30
Properties=species:S:1:pos:R:3:momenta:R:3:forces:R:3 Coordinates=T from=T ORCA-job=T orca=T E=T -908.930441998733=T energy=-24728.687751461897 free_energy=-24728.687751461897 stress="-5.646397516501185e-07 1.1103038340174083e-06 -1.7637656549023352e-06 1.1103038340174083e-06 3.196620260396971e-06 1.0401074381236233e-06 -1.7637656549023352e-06 1.0401074381236233e-06 5.518658092230271e-06" pbc="F F F"
O        2.29630822       1.30424031      -0.43711494       0.51874957      -0.41965915       1.22070432      -0.07010758      -0.28264653      -0.08381315
O       -0.62088353       1.00440464      -2.46036718       0.44289997       0.30397979      -0.57730420      -0.78278220      -0.60295581       0.70177321
O        0.57728639      -2.81014922      -1.38220102       0.35929310      -0.04563321       0.62717650       0.36704255      -0.09991648       0.56804843
O       -2.64278405      -1.59320798       0.87567036      -0.03717386      -0.06421904      -0.78303428       0.48113669      -0.24499301      -0.27104004
N        0.48328250      -2.03173446       0.78734094       0.21229511      -0.60744720       0.53965047       0.43939902      -0.64629103      -1.05609195
N       -1.64523571       0.38258644       1.33370371       0.34641246       0.07983474      -0.89658769      -0.40015135      -0.01809500       2.37369344
N        1.70790073      -0.89606422      -0.84821026       0.77150313      -0.79274203      -0.45348454       0.34478449      -0.75302522      -1.13890608
N       -1.56125829      -0.41459533      -0.81109000       0.02057275      -0.19725773       0.50018083       0.10778280       0.61673664      -1.01249339
C        1.57973160      -0.02433091       1.39807123      -0.43092913       1.74474970      -0.56164838       1.31002648       2.62850085      -1.52317760
C       -0.81971984       1.92434762      -0.32928244      -0.63939519      -0.47606471      -0.77044716      -1.09204840       0.33525201       1.02217295
C        0.86389976      -1.13977794       1.73446363       0.95599623       0.45511211      -0.55153422      -1.17376439      -2.83757958       2.45288650
C       -1.17718553       1.67552118       1.01861286      -1.14144070       0.45274777       0.37576726      -0.25559771      -0.41562453       0.06728054
C        1.93330145       0.97964482       2.45220135      -0.12820716      -1.43659384      -0.94063149      -1.42650773      -0.10837955       0.55726113
C       -0.54939841       3.31403342      -0.83371113       0.72026938      -0.02746299       0.68506958       0.67496204       0.13929405       0.50076505
C        1.87980917       0.21701284      -0.01307330      -0.83395237      -0.45151055       0.25770060       0.35671164       0.41787122       1.20466105
C       -1.01760815       0.84812935      -1.30142338      -0.81743291       0.12280952       0.70973209       0.75726316      -0.29637200      -0.21354385
C        0.95259909      -2.01943114      -0.53865922      -0.56280122      -0.56347127       0.28172575      -0.53204214       1.01469953      -0.19829769
C       -1.98101441      -0.64893581       0.48969786       0.50696091       0.31700008      -0.06745258      -0.48212108       1.01388688      -0.42782528
H        0.64711432      -1.38249469       2.79765731       0.05444486       0.23272454      -0.00794951       0.02532750       0.10917771      -0.93440851
H       -1.18600661       2.39214644       1.89199827      -0.21578532      -0.00569089      -0.02875451       0.12016401      -0.60935104      -1.18850731
H        1.62362652       2.03462415       2.30048213       0.13865365      -0.01079179      -0.24494014      -0.24525035      -0.57707887      -0.48755612
H        1.50839170       0.66761599       3.43735788       0.07571484       0.07309203       0.00476179       0.31755100       0.09398326      -0.66462318
H        2.97049079       1.07411469       2.55748461       0.17734567       0.27032066       0.12190868       1.42407823      -0.13925592       0.08062748
H        0.38570509       3.31353811      -1.44967765      -0.13041610       0.23352063       0.14557563      -0.59781771       0.07306991       0.52305306
H       -1.35990605       3.59916323      -1.48992785      -0.01335104      -0.22568313      -0.00450794      -0.12945692       0.03822634      -0.26497773
H       -0.52019771       4.10532855      -0.01611741      -0.15369413       0.24731083      -0.14409068       0.18754997      -1.04445834      -0.74489455
H       -0.06173015      -2.87430767       0.94202646      -0.00925095       0.35153552       0.05021997       0.01612275       0.34965418       0.43745178
H       -1.91063314       0.08934115       2.35667177       0.18825849      -0.02194876       0.20852385       0.55459299       0.90069937      -2.04549186
H        2.11525921      -0.92949370      -1.81470569      -0.09909839       0.13693202       0.22458900      -0.60024445       0.40630268       1.12680774
H       -1.83332804      -1.10500934      -1.53512147      -0.27644165       0.32450634       0.07908097       0.30339671       0.53866828       0.63916594
