7
Properties=species:S:1:pos:R:3:momenta:R:3:forces:R:3 Coordinates=T from=T ORCA-job=T orca=T E=T -153.930674962412=T energy=-4183.87840324011 free_energy=-4183.87840324011 stress="-2.6237104606090745e-06 1.8936669416059541e-07 -2.8699106665442756e-06 1.8936669416059541e-07 -2.8331237643792686e-06 -5.885494549166867e-07 -2.8699106665442756e-06 -5.885494549166867e-07 -3.864673996222593e-06" pbc="F F F"
O        0.42622166       1.41313651      -0.03310847       0.03638963      -0.34217540      -0.58635085       0.85126205      -0.67677249      -0.39829148
C        0.79309923       0.14308468      -0.15672196      -0.35424250       0.93969614       0.64127136      -2.39769640       0.24524595       1.33044918
C       -0.37212705      -0.85800638       0.23993707       0.14460321      -0.33626178      -0.56456777       1.53306994       3.58014997       0.15522827
H       -0.89474212      -0.51121960       1.11739281      -0.06721673       0.26154867      -0.18126009       0.08346366      -0.02611081       0.45541203
H        1.65684237      -0.26584204      -0.58329684       0.09190638      -0.30572946       0.09359720       1.05299578       0.38220331      -0.41182503
H        0.15775056      -1.72315062       0.40700830       0.02881845      -0.00349134       0.27501873       0.08546744      -2.44811010      -0.00460949
H       -1.03733001      -0.71624755      -0.55956114       0.11974157      -0.21358684       0.32229142      -1.20856249      -1.05660582      -1.12636350
