7
Properties=species:S:1:pos:R:3:momenta:R:3:forces:R:3 Coordinates=T from=T ORCA-job=T orca=T E=T -153.922068275156=T energy=-4183.990612069386 free_energy=-4183.990612069386 stress="3.730844291110678e-06 3.5337772701864017e-06 2.5317688191951442e-06 3.5337772701864017e-06 1.519629128210027e-05 -6.225552611510593e-06 2.5317688191951442e-06 -6.225552611510593e-06 4.917859886784859e-06" pbc="F F F"
O        0.69771923       1.44347206      -0.08318823      -1.50289298      -2.27311385      -0.10604515       0.20029832      -2.28561272       1.37440302
C        0.61147669       0.15140824       0.43911488       0.41643847       0.78224450       0.26359928      -1.69350632       0.77392446      -2.41223828
C       -0.41438590      -0.81382750      -0.31650929       1.04832265       1.07010216       0.31577161      -0.08753875       1.61547019       0.49830488
H        1.31401157      -0.33064376       1.07151389      -0.18673416       0.20035259      -0.03631566       0.52754890       0.58912782       0.41414931
H        0.16026320      -1.60232074      -0.75721235       0.24682005       0.08512076      -0.10458468       0.19639124      -0.49236198      -0.38630827
H       -0.94765276      -0.22913084      -1.10109489      -0.02638429      -0.03645847      -0.22955918       0.47450950      -0.52056636       0.64477453
H       -1.15832888      -1.25343088       0.36977223       0.00443025       0.17175231      -0.10286623       0.38229710       0.32001858      -0.13308521
