
                                 *****************
                                 * O   R   C   A *
                                 *****************

                                            #,                                       
                                            ###                                      
                                            ####                                     
                                            #####                                    
                                            ######                                   
                                           ########,                                 
                                     ,,################,,,,,                         
                               ,,#################################,,                 
                          ,,##########################################,,             
                       ,#########################################, ''#####,          
                    ,#############################################,,   '####,        
                  ,##################################################,,,,####,       
                ,###########''''           ''''###############################       
              ,#####''   ,,,,##########,,,,          '''####'''          '####       
            ,##' ,,,,###########################,,,                        '##       
           ' ,,###''''                  '''############,,,                           
         ,,##''                                '''############,,,,        ,,,,,,###''
      ,#''                                            '''#######################'''  
     '                                                          ''''####''''         
             ,#######,   #######,   ,#######,      ##                                
            ,#'     '#,  ##    ##  ,#'     '#,    #''#        ,####,   ,####,        
            ##       ##  ##   ,#'  ##            #'  '#       #'       #'  '#        
            ##       ##  #######   ##           ,######,      #####,   #    #        
            '#,     ,#'  ##    ##  '#,     ,#' ,#      #,     #,   #   #,  ,#        
             '#######'   ##     ##  '#######'  #'      '#     '####' # '####'        



                #########################################################
                #                        -***-                          #
                #          Department of theory and spectroscopy        #
                #                                                       #
                #                      Frank Neese                      #
                #                                                       #
                #     Directorship, Architecture, Infrastructure        #
                #                    SHARK, DRIVERS                     #
                #        Core code/Algorithms in most modules           #
                #                                                       #
                #        Max Planck Institute fuer Kohlenforschung      #
                #                Kaiser Wilhelm Platz 1                 #
                #                 D-45470 Muelheim/Ruhr                 #
                #                      Germany                          #
                #                                                       #
                #                  All rights reserved                  #
                #                        -***-                          #
                #########################################################


                         Program Version 6.0.0  -   RELEASE  -


 With contributions from (in alphabetic order):
   Daniel Aravena         : Magnetic Suceptibility
   Michael Atanasov       : Ab Initio Ligand Field Theory (pilot matlab implementation)
   Alexander A. Auer      : GIAO ZORA, VPT2 properties, NMR spectrum
   Ute Becker             : All parallelization in ORCA, NUMFREQ, NUMCALC
   Giovanni Bistoni       : ED, misc. LED, open-shell LED, HFLD
   Martin Brehm           : Molecular dynamics
   Dmytro Bykov           : pre 5.0 version of the SCF Hessian
   Marcos Casanova-Páez   : Triplet and SCS-CIS(D). UHF-(DLPNO)-IP/EA/STEOM-CCSD. UHF-CVS-IP/STEOM-CCSD
   Vijay G. Chilkuri      : MRCI spin determinant printing, contributions to CSF-ICE
   Pauline Colinet        : FMM embedding
   Dipayan Datta          : RHF DLPNO-CCSD density
   Achintya Kumar Dutta   : EOM-CC, STEOM-CC
   Nicolas Foglia         : Exact transition moments, OPA infrastructure, MCD improvements
   Dmitry Ganyushin       : Spin-Orbit,Spin-Spin,Magnetic field MRCI
   Miquel Garcia          : C-PCM and meta-GGA Hessian, CCSD/C-PCM, Gaussian charge scheme
   Tiago L. C. Gouveia    : GS-ROHF, GS-ROCIS
   Yang Guo               : DLPNO-NEVPT2, F12-NEVPT2, CIM, IAO-localization
   Andreas Hansen         : Spin unrestricted coupled pair/coupled cluster methods
   Ingolf Harden          : AUTO-CI MPn and infrastructure 
   Benjamin Helmich-Paris : MC-RPA, TRAH-(SCF,CASSCF), AVAS, COSX integrals, SCF dyn. polar.
   Lee Huntington         : MR-EOM, pCC
   Robert Izsak           : Overlap fitted RIJCOSX, COSX-SCS-MP3, EOM
   Riya Kayal             : Wick's Theorem for AUTO-CI, AUTO-CI UHF-CCSDT
   Emily Kempfer          : AUTO-CI, RHF CISDT and CCSDT
   Christian Kollmar      : KDIIS, OOCD, Brueckner-CCSD(T), CCSD density, CASPT2, CASPT2-K, improved NEVPT2
   Axel Koslowski         : Symmetry handling
   Simone Kossmann        : Meta GGA functionals, TD-DFT gradient, OOMP2, (MP2 Hessian; deprecated post 5.0)
   Lucas Lang             : DCDCAS
   Marvin Lechner         : AUTO-CI (C++ implementation), FIC-MRCC
   Spencer Leger          : CASSCF response
   Dagmar Lenk            : GEPOL surface, SMD, ORCA-2-JSON
   Dimitrios Liakos       : Extrapolation schemes; Compound Job, initial MDCI parallelization
   Dimitrios Manganas     : Further ROCIS development; embedding schemes. LFT, Crystal Embedding
   Dimitrios Pantazis     : SARC Basis sets
   Anastasios Papadopoulos: AUTO-CI, single reference methods and gradients
   Taras Petrenko         : pre 6.0 DFT Hessian and TD-DFT gradient, (ASA, deprecated), ECA, 1-Electron XAS/XES, NRVS
   Peter Pinski           : DLPNO-MP2, DLPNO-MP2 Gradient
   Christoph Reimann      : Effective Core Potentials
   Marius Retegan         : Local ZFS, SOC
   Christoph Riplinger    : Optimizer, TS searches, QM/MM, DLPNO-CCSD(T), (RO)-DLPNO pert. Triples
   Michael Roemelt        : Original ROCIS implementation
   Masaaki Saitow         : Open-shell DLPNO-CCSD energy and density
   Barbara Sandhoefer     : DKH picture change effects
   Kantharuban Sivalingam : CASSCF convergence/infrastructure, NEVPT2 and variants, FIC-MRCI
   Bernardo de Souza      : ESD, SOC TD-DFT
   Georgi Stoychev        : AutoAux, RI-MP2 NMR, DLPNO-MP2 response, X2C
   Van Anh Tran           : RI-MP2 g-tensors
   Willem Van den Heuvel  : Paramagnetic NMR
   Zikuan Wang            : NOTCH, Electric field optimization 
   Frank Wennmohs         : Technical directorship and infrastructure
   Hang Xu                : AUTO-CI-Response properties 


 We gratefully acknowledge several colleagues who have allowed us to
 interface, adapt or use parts of their codes:
   Stefan Grimme, W. Hujo, H. Kruse, P. Pracht,  : VdW corrections, initial TS optimization,
                  C. Bannwarth, S. Ehlert,         DFT functionals, gCP, sTDA/sTD-DF
                  L. Wittmann, M. Mueller
   Ed Valeev, F. Pavosevic, A. Kumar             : LibInt (2-el integral package), F12 methods
   Garnet Chan, S. Sharma, J. Yang, R. Olivares  : DMRG
   Ulf Ekstrom                                   : XCFun DFT Library
   Mihaly Kallay                                 : mrcc  (arbitrary order and MRCC methods)
   Frank Weinhold                                : gennbo (NPA and NBO analysis)
   Simon Mueller                                 : openCOSMO-RS
   Christopher J. Cramer and Donald G. Truhlar   : smd solvation model
   Lars Goerigk                                  : TD-DFT with DH, B97 family of functionals
   V. Asgeirsson, H. Jonsson                     : NEB implementation
   FAccTs GmbH                                   : IRC, NEB, NEB-TS, DLPNO-Multilevel, CI-OPT
                                                   MM, QMMM, 2- and 3-layer-ONIOM, Crystal-QMMM,
                                                   LR-CPCM, SF, NACMEs, symmetry and pop. for TD-DFT,
                                                   nearIR, NL-DFT gradient (VV10), updates on ESD,
                                                   ML-optimized integration grids, MBIS, APM,
                                                   GOAT, DOCKER, SOLVATOR, interface openCOSMO-RS
   S Lehtola, MJT Oliveira, MAL Marques          : LibXC Library
   Liviu Ungur et al                             : ANISO software


 Your calculation uses the libint2 library for the computation of 2-el integrals
 For citations please refer to: http://libint.valeyev.net

 Your ORCA version has been built with support for libXC version: 6.2.2
 For citations please refer to: https://libxc.gitlab.io

 This ORCA versions uses:
   CBLAS   interface :  Fast vector & matrix operations
   LAPACKE interface :  Fast linear algebra routines
   SCALAPACK package :  Parallel linear algebra routines
   Shared memory     :  Shared parallel matrices
   BLAS/LAPACK       :  OpenBLAS 0.3.27  USE64BITINT DYNAMIC_ARCH NO_AFFINITY Zen SINGLE_THREADED
        Core in use  :  Zen
   Copyright (c) 2011-2014, The OpenBLAS Project


Your calculation utilizes the atom-pairwise dispersion correction
with the Becke-Johnson damping scheme (D3BJ)


Warning: RI is on but no J-basis has been assigned. Assigning Def2/J (nothing to worry about!)
================================================================================

----- Orbital basis set information -----
Your calculation utilizes the basis: def2-TZVPPD
   F. Weigend and R. Ahlrichs, Phys. Chem. Chem. Phys. 7, 3297 (2005).
   D. Rappoport and F. Furche, J. Chem. Phys. 133, 134105 (2010)
   D. Rappoport, J. Chem. Phys. 155, 124102 (2021).

----- AuxJ basis set information -----
Your calculation utilizes the auxiliary basis: def2/J
   F. Weigend, Phys. Chem. Chem. Phys. 8, 1057 (2006).

================================================================================
                                        WARNINGS
                       Please study these warnings very carefully!
================================================================================

Using LibXC functional ID 531 : wB97M-V exchange-correlation functional
[ 1]  N. Mardirossian and M. Head-Gordon.,  J. Chem. Phys. 144, 214110 (2016)
Using LibXC functional ID 531 : wB97M-V exchange-correlation functional
[ 1]  N. Mardirossian and M. Head-Gordon.,  J. Chem. Phys. 144, 214110 (2016)

WARNING: B97M-V or wB97M-V functional requested.
  ===> : libXC variant has now been activated.
         Any manually given DFX/HFX/RangeSep scaling parameters are IGNORED!

Your calculation utilizes LibXC
 by S Lehtola, C Steigemann, MJT Oliveira & MAL Marques
Please cite in your paper:
 S Lehtola, C Steigemann, MJT Oliveira & MAL Marques, SoftwareX, 7, (2018), 1.
   


WARNING: your system is open-shell and RHF/RKS was chosen
  ===> : WILL SWITCH to UHF/UKS

INFO   : Checking CIS options ...

WARNING: CIS/ROCIS methods need fully converged wavefunctions
  ===> : Setting SCFConvForced true
         You can overwrite this default with %scf ConvForced false 


================================================================================
                                       INPUT FILE
================================================================================
NAME = orca.inp
|  1> ! Engrad def2-TZVPPD wB97M-D3BJ 
|  2> %pal nprocs 8 end%pal nprocs 64 end 
|  3> %tddft Nroots 2 Iroot 1 
|  4> sf true 
|  5> end 
|  6> *xyz 0 3 
|  7> O   2.3676533 -0.35847259 -1.13356164
|  8> O   -0.15837197 2.86351495 -2.22324092
|  9> O   0.19996649 -3.80386016 0.81201455
| 10> O   -2.07861178 -1.05698304 -1.47008416
| 11> N   0.40011915 -1.89236276 2.02213605
| 12> N   -1.36966694 -0.21682588 0.50009754
| 13> N   1.08226506 -1.96686558 -0.20151889
| 14> N   -0.75709215 0.76646176 -1.59374102
| 15> C   1.43456911 0.10934055 0.99067148
| 16> C   -0.39404733 2.76629538 -0.07684491
| 17> C   0.59080812 -0.48003662 2.0704233
| 18> C   -0.40554495 0.38446394 1.31825813
| 19> C   2.30880714 1.30041327 1.23463304
| 20> C   -1.65511653 3.42249653 0.29862115
| 21> C   1.67898788 -0.71638816 -0.20673447
| 22> C   -0.44306455 2.08256626 -1.32662802
| 23> C   0.52775274 -2.64254683 0.88456876
| 24> C   -1.45217603 -0.215302 -0.88055337
| 25> H   0.81879535 -0.14680538 3.07159063
| 26> H   -0.53443722 1.39462186 1.65332586
| 27> H   2.43339218 1.86856775 0.31991169
| 28> H   1.86441308 1.95851914 1.98491829
| 29> H   3.28156216 0.97875051 1.59029098
| 30> H   -2.53680538 2.78426733 0.17927313
| 31> H   -1.63496864 3.87935742 1.28003043
| 32> H   -1.75893411 4.22573253 -0.44000872
| 33> H   -0.03604995 -2.36605433 2.79063169
| 34> H   -1.81466123 -1.04994321 0.86745086
| 35> H   1.22862807 -2.5362645 -1.02423971
| 36> H   -0.758386 0.5771053 -2.58329294
| 37> *
| 38> 
| 39>                          ****END OF INPUT****
================================================================================

                     *******************************
                     * Energy+Gradient Calculation *
                     *******************************

---------------------------------
CARTESIAN COORDINATES (ANGSTROEM)
---------------------------------
  O      2.367653   -0.358473   -1.133562
  O     -0.158372    2.863515   -2.223241
  O      0.199966   -3.803860    0.812015
  O     -2.078612   -1.056983   -1.470084
  N      0.400119   -1.892363    2.022136
  N     -1.369667   -0.216826    0.500098
  N      1.082265   -1.966866   -0.201519
  N     -0.757092    0.766462   -1.593741
  C      1.434569    0.109341    0.990671
  C     -0.394047    2.766295   -0.076845
  C      0.590808   -0.480037    2.070423
  C     -0.405545    0.384464    1.318258
  C      2.308807    1.300413    1.234633
  C     -1.655117    3.422497    0.298621
  C      1.678988   -0.716388   -0.206734
  C     -0.443065    2.082566   -1.326628
  C      0.527753   -2.642547    0.884569
  C     -1.452176   -0.215302   -0.880553
  H      0.818795   -0.146805    3.071591
  H     -0.534437    1.394622    1.653326
  H      2.433392    1.868568    0.319912
  H      1.864413    1.958519    1.984918
  H      3.281562    0.978751    1.590291
  H     -2.536805    2.784267    0.179273
  H     -1.634969    3.879357    1.280030
  H     -1.758934    4.225733   -0.440009
  H     -0.036050   -2.366054    2.790632
  H     -1.814661   -1.049943    0.867451
  H      1.228628   -2.536265   -1.024240
  H     -0.758386    0.577105   -2.583293

----------------------------
CARTESIAN COORDINATES (A.U.)
----------------------------
  NO LB      ZA    FRAG     MASS         X           Y           Z
   0 O     8.0000    0    15.999    4.474216   -0.677415   -2.142121
   1 O     8.0000    0    15.999   -0.299280    5.411259   -4.201316
   2 O     8.0000    0    15.999    0.377882   -7.188254    1.534485
   3 O     8.0000    0    15.999   -3.928007   -1.997408   -2.778056
   4 N     7.0000    0    14.007    0.756116   -3.576047    3.821283
   5 N     7.0000    0    14.007   -2.588295   -0.409742    0.945047
   6 N     7.0000    0    14.007    2.045185   -3.716837   -0.380816
   7 N     7.0000    0    14.007   -1.430697    1.448403   -3.011734
   8 C     6.0000    0    12.011    2.710943    0.206624    1.872098
   9 C     6.0000    0    12.011   -0.744642    5.227541   -0.145216
  10 C     6.0000    0    12.011    1.116466   -0.907138    3.912533
  11 C     6.0000    0    12.011   -0.766369    0.726532    2.491147
  12 C     6.0000    0    12.011    4.363013    2.457425    2.333118
  13 C     6.0000    0    12.011   -3.127717    6.467581    0.564312
  14 C     6.0000    0    12.011    3.172827   -1.353777   -0.390672
  15 C     6.0000    0    12.011   -0.837271    3.935480   -2.506964
  16 C     6.0000    0    12.011    0.997308   -4.993690    1.671593
  17 C     6.0000    0    12.011   -2.744215   -0.406862   -1.664005
  18 H     1.0000    0     1.008    1.547299   -0.277422    5.804465
  19 H     1.0000    0     1.008   -1.009940    2.635453    3.124333
  20 H     1.0000    0     1.008    4.598445    3.531081    0.604545
  21 H     1.0000    0     1.008    3.523230    3.701065    3.750952
  22 H     1.0000    0     1.008    6.201254    1.849570    3.005214
  23 H     1.0000    0     1.008   -4.793867    5.261503    0.338777
  24 H     1.0000    0     1.008   -3.089643    7.330923    2.418907
  25 H     1.0000    0     1.008   -3.323904    7.985477   -0.831496
  26 H     1.0000    0     1.008   -0.068125   -4.471195    5.273530
  27 H     1.0000    0     1.008   -3.429213   -1.984105    1.639245
  28 H     1.0000    0     1.008    2.321771   -4.792845   -1.935533
  29 H     1.0000    0     1.008   -1.433142    1.090571   -4.881716

--------------------------------
INTERNAL COORDINATES (ANGSTROEM)
--------------------------------
 O      0   0   0     0.000000000000     0.00000000     0.00000000
 O      1   0   0     4.236674203412     0.00000000     0.00000000
 O      1   2   0     4.511632556498   113.90463413     0.00000000
 O      3   1   2     4.236180752409    62.02639222    19.23774878
 N      3   1   2     2.271184149794    62.91582714   289.07287795
 N      4   3   1     2.256121178190    66.54740100   287.63565238
 N      1   2   3     2.260056332404   107.94999477     0.47914748
 N      4   3   1     2.255361631789   103.80501978   340.94619787
 C      1   2   3     2.366825212746    81.11043221   302.71214745
 C      2   1   3     2.161483368394    77.02046943    61.58301255
 C      5   3   1     1.425958999242   149.70181978    23.18351487
 C      6   4   3     1.400166922287   152.44477343    82.70945528
 C      9   1   2     1.497485759593    94.20187730   281.92393238
 C     10   2   1     1.470329976115   109.08811490   201.20022726
 C      1   2   3     1.208872292264    94.74379519   331.00864632
 C      2   1   3     1.222638709499    57.61904801    25.14617778
 C      3   1   2     1.208865827755    33.06786720   295.39147108
 C      4   3   1     1.203492947354    84.81476387   314.39408678
 H     11   5   3     1.079517141603   111.43108176   193.26918218
 H     12   6   4     1.072055327067   120.29755043   110.33176381
 H     13   9   1     1.083990817988   110.27389859    39.25072429
 H     13   9   1     1.092482207205   110.70411712   158.82321526
 H     13   9   1     1.084533001061   109.94733470   278.76763431
 H     14  10   2     1.094968351061   113.74396570    81.63126098
 H     14  10   2     1.082724334793   113.81738122   210.22171467
 H     14  10   2     1.096147912678   103.66206764   326.87172072
 H      5   3   1     1.002602980238    88.41995439   184.01832414
 H      6   4   3     1.013436167400    82.67099209   306.63292094
 H      7   1   2     1.011190787367    89.01900130   109.05558141
 H      8   4   3     1.007507094450    84.32679769   116.52242056

---------------------------
INTERNAL COORDINATES (A.U.)
---------------------------
 O      0   0   0     0.000000000000     0.00000000     0.00000000
 O      1   0   0     8.006153963097     0.00000000     0.00000000
 O      1   2   0     8.525749948664   113.90463413     0.00000000
 O      3   1   2     8.005221475841    62.02639222    19.23774878
 N      3   1   2     4.291916042813    62.91582714   289.07287795
 N      4   3   1     4.263451151719    66.54740100   287.63565238
 N      1   2   3     4.270887515478   107.94999477     0.47914748
 N      4   3   1     4.262015817036   103.80501978   340.94619787
 C      1   2   3     4.472651458950    81.11043221   302.71214745
 C      2   1   3     4.084611609291    77.02046943    61.58301255
 C      5   3   1     2.694671986768   149.70181978    23.18351487
 C      6   4   3     2.645932024898   152.44477343    82.70945528
 C      9   1   2     2.829837975078    94.20187730   281.92393238
 C     10   2   1     2.778520981352   109.08811490   201.20022726
 C      1   2   3     2.284437563264    94.74379519   331.00864632
 C      2   1   3     2.310452321685    57.61904801    25.14617778
 C      3   1   2     2.284425347113    33.06786720   295.39147108
 C      4   3   1     2.274272074605    84.81476387   314.39408678
 H     11   5   3     2.039991754503   111.43108176   193.26918218
 H     12   6   4     2.025890968567   120.29755043   110.33176381
 H     13   9   1     2.048445777682   110.27389859    39.25072429
 H     13   9   1     2.064492177799   110.70411712   158.82321526
 H     13   9   1     2.049470355206   109.94733470   278.76763431
 H     14  10   2     2.069190308816   113.74396570    81.63126098
 H     14  10   2     2.046052471291   113.81738122   210.22171467
 H     14  10   2     2.071419357232   103.66206764   326.87172072
 H      5   3   1     1.894645053704    88.41995439   184.01832414
 H      6   4   3     1.915116810596    82.67099209   306.63292094
 H      7   1   2     1.910873657267    89.01900130   109.05558141
 H      8   4   3     1.903912486493    84.32679769   116.52242056

---------------------
BASIS SET INFORMATION
---------------------
There are 4 groups of distinct atoms

 Group   1 Type O   : 12s7p3d1f contracted to 6s4p3d1f pattern {621111/4111/111/1}
 Group   2 Type N   : 12s6p3d1f contracted to 6s3p3d1f pattern {621111/411/111/1}
 Group   3 Type C   : 12s6p3d1f contracted to 6s3p3d1f pattern {621111/411/111/1}
 Group   4 Type H   : 5s3p1d contracted to 3s3p1d pattern {311/111/1}

Atom   0O    basis set group =>   1
Atom   1O    basis set group =>   1
Atom   2O    basis set group =>   1
Atom   3O    basis set group =>   1
Atom   4N    basis set group =>   2
Atom   5N    basis set group =>   2
Atom   6N    basis set group =>   2
Atom   7N    basis set group =>   2
Atom   8C    basis set group =>   3
Atom   9C    basis set group =>   3
Atom  10C    basis set group =>   3
Atom  11C    basis set group =>   3
Atom  12C    basis set group =>   3
Atom  13C    basis set group =>   3
Atom  14C    basis set group =>   3
Atom  15C    basis set group =>   3
Atom  16C    basis set group =>   3
Atom  17C    basis set group =>   3
Atom  18H    basis set group =>   4
Atom  19H    basis set group =>   4
Atom  20H    basis set group =>   4
Atom  21H    basis set group =>   4
Atom  22H    basis set group =>   4
Atom  23H    basis set group =>   4
Atom  24H    basis set group =>   4
Atom  25H    basis set group =>   4
Atom  26H    basis set group =>   4
Atom  27H    basis set group =>   4
Atom  28H    basis set group =>   4
Atom  29H    basis set group =>   4
---------------------------------
AUXILIARY/J BASIS SET INFORMATION
---------------------------------
There are 4 groups of distinct atoms

 Group   1 Type O   : 12s5p4d2f1g contracted to 6s4p3d1f1g pattern {711111/2111/211/2/1}
 Group   2 Type N   : 12s5p4d2f1g contracted to 6s4p3d1f1g pattern {711111/2111/211/2/1}
 Group   3 Type C   : 12s5p4d2f1g contracted to 6s4p3d1f1g pattern {711111/2111/211/2/1}
 Group   4 Type H   : 5s2p1d contracted to 3s1p1d pattern {311/2/1}

Atom   0O    basis set group =>   1
Atom   1O    basis set group =>   1
Atom   2O    basis set group =>   1
Atom   3O    basis set group =>   1
Atom   4N    basis set group =>   2
Atom   5N    basis set group =>   2
Atom   6N    basis set group =>   2
Atom   7N    basis set group =>   2
Atom   8C    basis set group =>   3
Atom   9C    basis set group =>   3
Atom  10C    basis set group =>   3
Atom  11C    basis set group =>   3
Atom  12C    basis set group =>   3
Atom  13C    basis set group =>   3
Atom  14C    basis set group =>   3
Atom  15C    basis set group =>   3
Atom  16C    basis set group =>   3
Atom  17C    basis set group =>   3
Atom  18H    basis set group =>   4
Atom  19H    basis set group =>   4
Atom  20H    basis set group =>   4
Atom  21H    basis set group =>   4
Atom  22H    basis set group =>   4
Atom  23H    basis set group =>   4
Atom  24H    basis set group =>   4
Atom  25H    basis set group =>   4
Atom  26H    basis set group =>   4
Atom  27H    basis set group =>   4
Atom  28H    basis set group =>   4
Atom  29H    basis set group =>   4
[1739890631.312652] [ohm:178504:0]        ib_iface.c:1059 UCX  ERROR ibv_create_cq(cqe=256) failed: Connection timed out
[1739890631.313755] [ohm:178502:0]        ib_iface.c:1059 UCX  ERROR ibv_create_cq(cqe=256) failed: Connection timed out
[1739890631.322254] [ohm:178503:0]        ib_iface.c:1059 UCX  ERROR ibv_create_cq(cqe=256) failed: Connection timed out
[1739890631.328032] [ohm:178505:0]        ib_iface.c:1059 UCX  ERROR ibv_create_cq(cqe=256) failed: Connection timed out
[1739890631.335530] [ohm:178507:0]        ib_iface.c:1059 UCX  ERROR ibv_create_cq(cqe=256) failed: Connection timed out
[1739890631.348730] [ohm:178501:0]        ib_iface.c:1059 UCX  ERROR ibv_create_cq(cqe=256) failed: Connection timed out
[1739890631.359629] [ohm:178506:0]        ib_iface.c:1059 UCX  ERROR ibv_create_cq(cqe=256) failed: Connection timed out
[1739890631.365898] [ohm:178510:0]        ib_iface.c:1059 UCX  ERROR ibv_create_cq(cqe=256) failed: Connection timed out
[1739890631.375814] [ohm:178508:0]        ib_iface.c:1059 UCX  ERROR ibv_create_cq(cqe=256) failed: Connection timed out
[1739890631.379444] [ohm:178561:0]        ib_iface.c:1059 UCX  ERROR ibv_create_cq(cqe=256) failed: Connection timed out
[1739890631.385222] [ohm:178519:0]        ib_iface.c:1059 UCX  ERROR ibv_create_cq(cqe=256) failed: Connection timed out
[1739890631.388308] [ohm:178521:0]        ib_iface.c:1059 UCX  ERROR ibv_create_cq(cqe=256) failed: Connection timed out
[1739890631.389618] [ohm:178516:0]        ib_iface.c:1059 UCX  ERROR ibv_create_cq(cqe=256) failed: Connection timed out
[1739890631.390734] [ohm:178528:0]        ib_iface.c:1059 UCX  ERROR ibv_create_cq(cqe=256) failed: Connection timed out
[1739890631.391766] [ohm:178520:0]        ib_iface.c:1059 UCX  ERROR ibv_create_cq(cqe=256) failed: Connection timed out
[1739890631.392408] [ohm:178515:0]        ib_iface.c:1059 UCX  ERROR ibv_create_cq(cqe=256) failed: Connection timed out
[1739890631.447373] [ohm:178514:0]        ib_iface.c:1059 UCX  ERROR ibv_create_cq(cqe=256) failed: Connection timed out
[1739890631.450233] [ohm:178617:0]        ib_iface.c:1059 UCX  ERROR ibv_create_cq(cqe=256) failed: Connection timed out
[1739890631.471657] [ohm:178584:0]        ib_iface.c:1059 UCX  ERROR ibv_create_cq(cqe=256) failed: Connection timed out
[1739890631.476568] [ohm:178511:0]        ib_iface.c:1059 UCX  ERROR ibv_create_cq(cqe=256) failed: Connection timed out
[1739890631.488906] [ohm:178557:0]        ib_iface.c:1059 UCX  ERROR ibv_create_cq(cqe=256) failed: Connection timed out
[1739890631.488963] [ohm:178534:0]        ib_iface.c:1059 UCX  ERROR ibv_create_cq(cqe=256) failed: Connection timed out
[1739890631.492507] [ohm:178579:0]        ib_iface.c:1059 UCX  ERROR ibv_create_cq(cqe=256) failed: Connection timed out
[1739890631.498593] [ohm:178572:0]        ib_iface.c:1059 UCX  ERROR ibv_create_cq(cqe=256) failed: Connection timed out
[1739890631.501551] [ohm:178529:0]        ib_iface.c:1059 UCX  ERROR ibv_create_cq(cqe=256) failed: Connection timed out
[1739890631.513944] [ohm:178632:0]        ib_iface.c:1059 UCX  ERROR ibv_create_cq(cqe=256) failed: Connection timed out
[1739890631.517571] [ohm:178598:0]        ib_iface.c:1059 UCX  ERROR ibv_create_cq(cqe=256) failed: Connection timed out
[1739890631.524789] [ohm:178517:0]        ib_iface.c:1059 UCX  ERROR ibv_create_cq(cqe=256) failed: Connection timed out
[1739890631.529541] [ohm:178523:0]        ib_iface.c:1059 UCX  ERROR ibv_create_cq(cqe=256) failed: Connection timed out
[1739890631.531404] [ohm:178637:0]        ib_iface.c:1059 UCX  ERROR ibv_create_cq(cqe=256) failed: Connection timed out
[1739890631.533965] [ohm:178629:0]        ib_iface.c:1059 UCX  ERROR ibv_create_cq(cqe=256) failed: Connection timed out
[1739890631.540002] [ohm:178553:0]        ib_iface.c:1059 UCX  ERROR ibv_create_cq(cqe=256) failed: Connection timed out
[1739890631.540689] [ohm:178620:0]        ib_iface.c:1059 UCX  ERROR ibv_create_cq(cqe=256) failed: Connection timed out
[1739890631.556755] [ohm:178549:0]        ib_iface.c:1059 UCX  ERROR ibv_create_cq(cqe=256) failed: Connection timed out
[1739890631.562043] [ohm:178600:0]        ib_iface.c:1059 UCX  ERROR ibv_create_cq(cqe=256) failed: Connection timed out
[1739890631.564929] [ohm:178636:0]        ib_iface.c:1059 UCX  ERROR ibv_create_cq(cqe=256) failed: Connection timed out
[1739890631.565640] [ohm:178551:0]        ib_iface.c:1059 UCX  ERROR ibv_create_cq(cqe=256) failed: Connection timed out
[1739890631.566290] [ohm:178605:0]        ib_iface.c:1059 UCX  ERROR ibv_create_cq(cqe=256) failed: Connection timed out
[1739890631.567246] [ohm:178642:0]        ib_iface.c:1059 UCX  ERROR ibv_create_cq(cqe=256) failed: Connection timed out
[1739890631.567884] [ohm:178545:0]        ib_iface.c:1059 UCX  ERROR ibv_create_cq(cqe=256) failed: Connection timed out
[1739890631.569801] [ohm:178623:0]        ib_iface.c:1059 UCX  ERROR ibv_create_cq(cqe=256) failed: Connection timed out
[1739890631.570922] [ohm:178574:0]        ib_iface.c:1059 UCX  ERROR ibv_create_cq(cqe=256) failed: Connection timed out
[1739890631.572821] [ohm:178537:0]        ib_iface.c:1059 UCX  ERROR ibv_create_cq(cqe=256) failed: Connection timed out
[1739890631.574754] [ohm:178594:0]        ib_iface.c:1059 UCX  ERROR ibv_create_cq(cqe=256) failed: Connection timed out
[1739890631.582060] [ohm:178614:0]        ib_iface.c:1059 UCX  ERROR ibv_create_cq(cqe=256) failed: Connection timed out
[1739890631.583013] [ohm:178581:0]        ib_iface.c:1059 UCX  ERROR ibv_create_cq(cqe=256) failed: Connection timed out
[1739890631.592392] [ohm:178613:0]        ib_iface.c:1059 UCX  ERROR ibv_create_cq(cqe=256) failed: Connection timed out
[1739890631.599769] [ohm:178644:0]        ib_iface.c:1059 UCX  ERROR ibv_create_cq(cqe=256) failed: Connection timed out
[1739890631.602713] [ohm:178522:0]        ib_iface.c:1059 UCX  ERROR ibv_create_cq(cqe=256) failed: Connection timed out
[1739890631.603491] [ohm:178592:0]        ib_iface.c:1059 UCX  ERROR ibv_create_cq(cqe=256) failed: Connection timed out
[1739890631.607082] [ohm:178526:0]        ib_iface.c:1059 UCX  ERROR ibv_create_cq(cqe=256) failed: Connection timed out
[1739890631.607088] [ohm:178541:0]        ib_iface.c:1059 UCX  ERROR ibv_create_cq(cqe=256) failed: Connection timed out
[1739890631.607399] [ohm:178524:0]        ib_iface.c:1059 UCX  ERROR ibv_create_cq(cqe=256) failed: Connection timed out
[1739890631.607983] [ohm:178512:0]        ib_iface.c:1059 UCX  ERROR ibv_create_cq(cqe=256) failed: Connection timed out
[1739890631.609863] [ohm:178589:0]        ib_iface.c:1059 UCX  ERROR ibv_create_cq(cqe=256) failed: Connection timed out
[1739890631.610219] [ohm:178607:0]        ib_iface.c:1059 UCX  ERROR ibv_create_cq(cqe=256) failed: Connection timed out
[1739890631.616725] [ohm:178628:0]        ib_iface.c:1059 UCX  ERROR ibv_create_cq(cqe=256) failed: Connection timed out
[1739890631.618600] [ohm:178525:0]        ib_iface.c:1059 UCX  ERROR ibv_create_cq(cqe=256) failed: Connection timed out
[1739890631.618693] [ohm:178509:0]        ib_iface.c:1059 UCX  ERROR ibv_create_cq(cqe=256) failed: Connection timed out
[1739890631.619859] [ohm:178527:0]        ib_iface.c:1059 UCX  ERROR ibv_create_cq(cqe=256) failed: Connection timed out
[1739890631.620240] [ohm:178587:0]        ib_iface.c:1059 UCX  ERROR ibv_create_cq(cqe=256) failed: Connection timed out
[1739890631.621143] [ohm:178513:0]        ib_iface.c:1059 UCX  ERROR ibv_create_cq(cqe=256) failed: Connection timed out
[1739890631.622378] [ohm:178518:0]        ib_iface.c:1059 UCX  ERROR ibv_create_cq(cqe=256) failed: Connection timed out
[1739890631.623231] [ohm:178567:0]        ib_iface.c:1059 UCX  ERROR ibv_create_cq(cqe=256) failed: Connection timed out


           ************************************************************
           *        Program running with 64 parallel MPI-processes    *
           *              working on a common directory               *
           ************************************************************
------------------------------------------------------------------------------
                             ORCA STARTUP CALCULATIONS
                           -- RI-GTO INTEGRALS CHOSEN --
------------------------------------------------------------------------------
------------------------------------------------------------------------------
                   ___                                                        
                  /   \      - P O W E R E D   B Y -                         
                 /     \                                                     
                 |  |  |   _    _      __       _____    __    __             
                 |  |  |  | |  | |    /  \     |  _  \  |  |  /  |          
                  \  \/   | |  | |   /    \    | | | |  |  | /  /          
                 / \  \   | |__| |  /  /\  \   | |_| |  |  |/  /          
                |  |  |   |  __  | /  /__\  \  |    /   |      \           
                |  |  |   | |  | | |   __   |  |    \   |  |\   \          
                \     /   | |  | | |  |  |  |  | |\  \  |  | \   \       
                 \___/    |_|  |_| |__|  |__|  |_| \__\ |__|  \__/        
                                                                              
                      - O R C A' S   B I G   F R I E N D -                    
                                      &                                       
                       - I N T E G R A L  F E E D E R -                       
                                                                              
 v1 FN, 2020, v2 2021, v3 2022-2024                                           
------------------------------------------------------------------------------


----------------------
SHARK INTEGRAL PACKAGE
----------------------

Number of atoms                             ...     30
Number of basis functions                   ...    882
Number of shells                            ...    322
Maximum angular momentum                    ...      3
Integral batch strategy                     ... SHARK/LIBINT Hybrid
RI-J (if used) integral strategy            ... SPLIT-RIJ (Revised 2003 algorithm where possible)
Printlevel                                  ...      1
Contraction scheme used                     ... SEGMENTED contraction
Prescreening option                         ... SCHWARTZ
   Thresh                                   ... 2.500e-11
   Tcut                                     ... 2.500e-12
   Tpresel                                  ... 2.500e-12 
Coulomb Range Separation                    ... NOT USED
Exchange Range Separation                   ... Long Range
   Mu parameter                             ... 3.000e-01
   Scaling (regular/separated)              ... 1.500e-01 8.500e-01
Multipole approximations                    ... NOT USED
Finite Nucleus Model                        ... NOT USED
CABS basis                                  ... NOT available
Auxiliary Coulomb fitting basis             ... AVAILABLE
   # of basis functions in Aux-J            ...   1014
   # of shells in Aux-J                     ...    330
   Maximum angular momentum in Aux-J        ...      4
Auxiliary J/K fitting basis                 ... NOT available
Auxiliary Correlation fitting basis         ... NOT available
Auxiliary 'external' fitting basis          ... NOT available

Checking pre-screening integrals            ... done (  0.0 sec) Dimension = 322
Check shell pair data                       ... done (  0.0 sec)
Shell pair information
Shell pair cut-off parameter TPreSel        ...   2.5e-12
Total number of shell pairs                 ...     52003
Shell pairs after pre-screening             ...     44518
Total number of primitive shell pairs       ...    129718
Primitive shell pairs kept                  ...     82895
          la=0 lb=0:   8621 shell pairs
          la=1 lb=0:  11785 shell pairs
          la=1 lb=1:   4073 shell pairs
          la=2 lb=0:   7995 shell pairs
          la=2 lb=1:   5527 shell pairs
          la=2 lb=2:   1909 shell pairs
          la=3 lb=0:   2038 shell pairs
          la=3 lb=1:   1444 shell pairs
          la=3 lb=2:    989 shell pairs
          la=3 lb=3:    137 shell pairs

Calculating one electron integrals          ... done (  0.2 sec)
Calculating RI/J V-Matrix + Cholesky decomp.... done (  0.1 sec)
Calculating Nuclear repulsion               ... done (  0.0 sec) ENN=   1426.420426217989 Eh

Diagonalization of the overlap matrix:
Smallest eigenvalue                        ... 4.507e-07
Time for diagonalization                   ...    0.131 sec
Threshold for overlap eigenvalues          ... 1.000e-07
Number of eigenvalues below threshold      ... 0

IMPORTANT:
Smallest eigenvalue of S below the DiffSThresh (1.000e-06) while
Thresh>1e-12 and/or TCut>1e-13! In order to avoid SCF convergence issues,
Thresh will be set to at least 1e-12 and TCut to at least 1e-13.
This can be turned off by adding %SCF DiffSThresh -1 END to the input.

Time for construction of square roots      ...    0.129 sec
Total time needed                          ...    0.274 sec

-------------------
DFT GRID GENERATION
-------------------

General Integration Accuracy     IntAcc      ... 4.388
Radial Grid Type                 RadialGrid  ... OptM3 with GC (2021)
Angular Grid (max. ang.)         AngularGrid ... 4 (Lebedev-302)
Angular grid pruning method      GridPruning ... 4 (adaptive)
Weight generation scheme         WeightScheme... mBecke (2022)
Basis function cutoff            BFCut       ... 1.0000e-11
Integration weight cutoff        WCut        ... 1.0000e-14
Partially contracted basis set               ... off
Rotationally invariant grid construction     ... off
Angular grids for H and He will be reduced by one unit
Diffuse basis detected: some atoms will have their outermost
                        angular grid increased by 1.

Total number of grid points                  ...   152253
Total number of batches                      ...     2390
Average number of points per batch           ...       63
Average number of grid points per atom       ...     5075

--------------------
COSX GRID GENERATION
--------------------

GRIDX 1
-------
General Integration Accuracy     IntAcc      ... 3.816
Radial Grid Type                 RadialGrid  ... OptM3 with GC (2021)
Angular Grid (max. ang.)         AngularGrid ... 1 (Lebedev-50)
Angular grid pruning method      GridPruning ... 4 (adaptive)
Weight generation scheme         WeightScheme... mBecke (2022)
Basis function cutoff            BFCut       ... 1.0000e-11
Integration weight cutoff        WCut        ... 1.0000e-14
Partially contracted basis set               ... on
Rotationally invariant grid construction     ... off
Angular grids for H and He will be reduced by one unit
Diffuse basis detected: some atoms will have their outermost
                        angular grid increased by 1.

Total number of grid points                  ...    19053
Total number of batches                      ...      164
Average number of points per batch           ...      116
Average number of grid points per atom       ...      635
UseSFitting                                  ... on

GRIDX 2
-------
General Integration Accuracy     IntAcc      ... 4.020
Radial Grid Type                 RadialGrid  ... OptM3 with GC (2021)
Angular Grid (max. ang.)         AngularGrid ... 2 (Lebedev-110)
Angular grid pruning method      GridPruning ... 4 (adaptive)
Weight generation scheme         WeightScheme... mBecke (2022)
Basis function cutoff            BFCut       ... 1.0000e-11
Integration weight cutoff        WCut        ... 1.0000e-14
Partially contracted basis set               ... on
Rotationally invariant grid construction     ... off
Angular grids for H and He will be reduced by one unit
Diffuse basis detected: some atoms will have their outermost
                        angular grid increased by 1.

Total number of grid points                  ...    46028
Total number of batches                      ...      376
Average number of points per batch           ...      122
Average number of grid points per atom       ...     1534
UseSFitting                                  ... on

GRIDX 3
-------
General Integration Accuracy     IntAcc      ... 4.338
Radial Grid Type                 RadialGrid  ... OptM3 with GC (2021)
Angular Grid (max. ang.)         AngularGrid ... 3 (Lebedev-194)
Angular grid pruning method      GridPruning ... 4 (adaptive)
Weight generation scheme         WeightScheme... mBecke (2022)
Basis function cutoff            BFCut       ... 1.0000e-11
Integration weight cutoff        WCut        ... 1.0000e-14
Partially contracted basis set               ... on
Rotationally invariant grid construction     ... off
Angular grids for H and He will be reduced by one unit
Diffuse basis detected: some atoms will have their outermost
                        angular grid increased by 1.

Total number of grid points                  ...   101263
Total number of batches                      ...      807
Average number of points per batch           ...      125
Average number of grid points per atom       ...     3375
UseSFitting                                  ... on
Initializing property integral containers    ... done (  0.0 sec)

SHARK setup successfully completed in   4.1 seconds

Maximum memory used throughout the entire STARTUP-calculation: 79.4 MB
[1739890637.520982] [ohm:178875:0]        ib_iface.c:1059 UCX  ERROR ibv_create_cq(cqe=256) failed: Connection timed out
[1739890637.529003] [ohm:178882:0]        ib_iface.c:1059 UCX  ERROR ibv_create_cq(cqe=256) failed: Connection timed out
[1739890637.545446] [ohm:178871:0]        ib_iface.c:1059 UCX  ERROR ibv_create_cq(cqe=256) failed: Connection timed out
[1739890637.545741] [ohm:178872:0]        ib_iface.c:1059 UCX  ERROR ibv_create_cq(cqe=256) failed: Connection timed out
[1739890637.578606] [ohm:178868:0]        ib_iface.c:1059 UCX  ERROR ibv_create_cq(cqe=256) failed: Connection timed out
[1739890637.588242] [ohm:178869:0]        ib_iface.c:1059 UCX  ERROR ibv_create_cq(cqe=256) failed: Connection timed out
[1739890637.589529] [ohm:178874:0]        ib_iface.c:1059 UCX  ERROR ibv_create_cq(cqe=256) failed: Connection timed out
[1739890637.594476] [ohm:178879:0]        ib_iface.c:1059 UCX  ERROR ibv_create_cq(cqe=256) failed: Connection timed out
[1739890637.637645] [ohm:178897:0]        ib_iface.c:1059 UCX  ERROR ibv_create_cq(cqe=256) failed: Connection timed out
[1739890637.638512] [ohm:178886:0]        ib_iface.c:1059 UCX  ERROR ibv_create_cq(cqe=256) failed: Connection timed out
[1739890637.638654] [ohm:178884:0]        ib_iface.c:1059 UCX  ERROR ibv_create_cq(cqe=256) failed: Connection timed out
[1739890637.640165] [ohm:178922:0]        ib_iface.c:1059 UCX  ERROR ibv_create_cq(cqe=256) failed: Connection timed out
[1739890637.646981] [ohm:178883:0]        ib_iface.c:1059 UCX  ERROR ibv_create_cq(cqe=256) failed: Connection timed out
[1739890637.652065] [ohm:178907:0]        ib_iface.c:1059 UCX  ERROR ibv_create_cq(cqe=256) failed: Connection timed out
[1739890637.656735] [ohm:178870:0]        ib_iface.c:1059 UCX  ERROR ibv_create_cq(cqe=256) failed: Connection timed out
[1739890637.661689] [ohm:178998:0]        ib_iface.c:1059 UCX  ERROR ibv_create_cq(cqe=256) failed: Connection timed out
[1739890637.665100] [ohm:179005:0]        ib_iface.c:1059 UCX  ERROR ibv_create_cq(cqe=256) failed: Connection timed out
[1739890637.668339] [ohm:178937:0]        ib_iface.c:1059 UCX  ERROR ibv_create_cq(cqe=256) failed: Connection timed out
[1739890637.671324] [ohm:178989:0]        ib_iface.c:1059 UCX  ERROR ibv_create_cq(cqe=256) failed: Connection timed out
[1739890637.689580] [ohm:178876:0]        ib_iface.c:1059 UCX  ERROR ibv_create_cq(cqe=256) failed: Connection timed out
[1739890637.729562] [ohm:178949:0]        ib_iface.c:1059 UCX  ERROR ibv_create_cq(cqe=256) failed: Connection timed out
[1739890637.736414] [ohm:179018:0]        ib_iface.c:1059 UCX  ERROR ibv_create_cq(cqe=256) failed: Connection timed out
[1739890637.746803] [ohm:178954:0]        ib_iface.c:1059 UCX  ERROR ibv_create_cq(cqe=256) failed: Connection timed out
[1739890637.752510] [ohm:178926:0]        ib_iface.c:1059 UCX  ERROR ibv_create_cq(cqe=256) failed: Connection timed out
[1739890637.753854] [ohm:178972:0]        ib_iface.c:1059 UCX  ERROR ibv_create_cq(cqe=256) failed: Connection timed out
[1739890637.765012] [ohm:178881:0]        ib_iface.c:1059 UCX  ERROR ibv_create_cq(cqe=256) failed: Connection timed out
[1739890637.765816] [ohm:178938:0]        ib_iface.c:1059 UCX  ERROR ibv_create_cq(cqe=256) failed: Connection timed out
[1739890637.768249] [ohm:178915:0]        ib_iface.c:1059 UCX  ERROR ibv_create_cq(cqe=256) failed: Connection timed out
[1739890637.769888] [ohm:178965:0]        ib_iface.c:1059 UCX  ERROR ibv_create_cq(cqe=256) failed: Connection timed out
[1739890637.772036] [ohm:178873:0]        ib_iface.c:1059 UCX  ERROR ibv_create_cq(cqe=256) failed: Connection timed out
[1739890637.774934] [ohm:178967:0]        ib_iface.c:1059 UCX  ERROR ibv_create_cq(cqe=256) failed: Connection timed out
[1739890637.775236] [ohm:178990:0]        ib_iface.c:1059 UCX  ERROR ibv_create_cq(cqe=256) failed: Connection timed out
[1739890637.775386] [ohm:178929:0]        ib_iface.c:1059 UCX  ERROR ibv_create_cq(cqe=256) failed: Connection timed out
[1739890637.780879] [ohm:178928:0]        ib_iface.c:1059 UCX  ERROR ibv_create_cq(cqe=256) failed: Connection timed out
[1739890637.789716] [ohm:178958:0]        ib_iface.c:1059 UCX  ERROR ibv_create_cq(cqe=256) failed: Connection timed out
[1739890637.790846] [ohm:178912:0]        ib_iface.c:1059 UCX  ERROR ibv_create_cq(cqe=256) failed: Connection timed out
[1739890637.792607] [ohm:178887:0]        ib_iface.c:1059 UCX  ERROR ibv_create_cq(cqe=256) failed: Connection timed out
[1739890637.794674] [ohm:178978:0]        ib_iface.c:1059 UCX  ERROR ibv_create_cq(cqe=256) failed: Connection timed out
[1739890637.802232] [ohm:178911:0]        ib_iface.c:1059 UCX  ERROR ibv_create_cq(cqe=256) failed: Connection timed out
[1739890637.807558] [ohm:178981:0]        ib_iface.c:1059 UCX  ERROR ibv_create_cq(cqe=256) failed: Connection timed out
[1739890637.816421] [ohm:179003:0]        ib_iface.c:1059 UCX  ERROR ibv_create_cq(cqe=256) failed: Connection timed out
[1739890637.817852] [ohm:178921:0]        ib_iface.c:1059 UCX  ERROR ibv_create_cq(cqe=256) failed: Connection timed out
[1739890637.820415] [ohm:178892:0]        ib_iface.c:1059 UCX  ERROR ibv_create_cq(cqe=256) failed: Connection timed out
[1739890637.828410] [ohm:178934:0]        ib_iface.c:1059 UCX  ERROR ibv_create_cq(cqe=256) failed: Connection timed out
[1739890637.830339] [ohm:178894:0]        ib_iface.c:1059 UCX  ERROR ibv_create_cq(cqe=256) failed: Connection timed out
[1739890637.832309] [ohm:178962:0]        ib_iface.c:1059 UCX  ERROR ibv_create_cq(cqe=256) failed: Connection timed out
[1739890637.832445] [ohm:178901:0]        ib_iface.c:1059 UCX  ERROR ibv_create_cq(cqe=256) failed: Connection timed out
[1739890637.833177] [ohm:179024:0]        ib_iface.c:1059 UCX  ERROR ibv_create_cq(cqe=256) failed: Connection timed out
[1739890637.843784] [ohm:178971:0]        ib_iface.c:1059 UCX  ERROR ibv_create_cq(cqe=256) failed: Connection timed out
[1739890637.845961] [ohm:178941:0]        ib_iface.c:1059 UCX  ERROR ibv_create_cq(cqe=256) failed: Connection timed out
[1739890637.846655] [ohm:178984:0]        ib_iface.c:1059 UCX  ERROR ibv_create_cq(cqe=256) failed: Connection timed out
[1739890637.848296] [ohm:178889:0]        ib_iface.c:1059 UCX  ERROR ibv_create_cq(cqe=256) failed: Connection timed out
[1739890637.848706] [ohm:179012:0]        ib_iface.c:1059 UCX  ERROR ibv_create_cq(cqe=256) failed: Connection timed out
[1739890637.849084] [ohm:178880:0]        ib_iface.c:1059 UCX  ERROR ibv_create_cq(cqe=256) failed: Connection timed out
[1739890637.851719] [ohm:178946:0]        ib_iface.c:1059 UCX  ERROR ibv_create_cq(cqe=256) failed: Connection timed out
[1739890637.856191] [ohm:178888:0]        ib_iface.c:1059 UCX  ERROR ibv_create_cq(cqe=256) failed: Connection timed out
[1739890637.856834] [ohm:178917:0]        ib_iface.c:1059 UCX  ERROR ibv_create_cq(cqe=256) failed: Connection timed out
[1739890637.857045] [ohm:178919:0]        ib_iface.c:1059 UCX  ERROR ibv_create_cq(cqe=256) failed: Connection timed out
[1739890637.858033] [ohm:178885:0]        ib_iface.c:1059 UCX  ERROR ibv_create_cq(cqe=256) failed: Connection timed out
[1739890637.858313] [ohm:178890:0]        ib_iface.c:1059 UCX  ERROR ibv_create_cq(cqe=256) failed: Connection timed out
[1739890637.859652] [ohm:178877:0]        ib_iface.c:1059 UCX  ERROR ibv_create_cq(cqe=256) failed: Connection timed out
[1739890637.862859] [ohm:178905:0]        ib_iface.c:1059 UCX  ERROR ibv_create_cq(cqe=256) failed: Connection timed out
[1739890637.864878] [ohm:178878:0]        ib_iface.c:1059 UCX  ERROR ibv_create_cq(cqe=256) failed: Connection timed out
[1739890637.868622] [ohm:179007:0]        ib_iface.c:1059 UCX  ERROR ibv_create_cq(cqe=256) failed: Connection timed out


           ************************************************************
           *        Program running with 64 parallel MPI-processes    *
           *              working on a common directory               *
           ************************************************************
-------------------------------------------------------------------------------
                                 ORCA GUESS
                   Start orbitals & Density for SCF / CASSCF
-------------------------------------------------------------------------------

------------
SCF SETTINGS
------------
Hamiltonian:
 Density Functional     Method          .... DFT(GTOs)
  Functional kind                       .... Exchange-Correlation
  Functional name                       .... wB97M-V exchange-correlation functional
  Functional family                     .... Hybrid MGGA
  Functional refs                              
    [ 0] N. Mardirossian and M. Head-Gordon.,  J. Chem. Phys. 144, 214110 (2016), doi: 10.1063/1.4952647
  Fraction of HF Exchange (short range) .... 0.1500
  Fraction of HF Exchange (long range)  .... 1.0000
  Range separation parameter mu         .... 0.3000
  Functional external parameters        .... 17
    Parameter  0 _cx00      =  8.500000e-01 : u^00 coefficient for exchange
    Parameter  1 _cx01      =  1.007000e+00 : u^01 coefficient for exchange
    Parameter  2 _cx10      =  2.590000e-01 : u^10 coefficient for exchange
    Parameter  3 _css00     =  4.430000e-01 : u^00 coefficient for same-spin correlation
    Parameter  4 _css04     = -1.437000e+00 : u^04 coefficient for same-spin correlation
    Parameter  5 _css10     = -4.535000e+00 : u^10 coefficient for same-spin correlation
    Parameter  6 _css20     = -3.390000e+00 : u^20 coefficient for same-spin correlation
    Parameter  7 _css43     =  4.278000e+00 : u^43 coefficient for same-spin correlation
    Parameter  8 _cos00     =  1.000000e+00 : u^00 coefficient for opposite-spin correlation
    Parameter  9 _cos10     =  1.358000e+00 : u^10 coefficient for opposite-spin correlation
    Parameter 10 _cos20     =  2.924000e+00 : u^20 coefficient for opposite-spin correlation
    Parameter 11 _cos21     = -8.812000e+00 : u^21 coefficient for opposite-spin correlation
    Parameter 12 _cos60     = -1.390000e+00 : u^60 coefficient for opposite-spin correlation
    Parameter 13 _cos61     =  9.142000e+00 : u^61 coefficient for opposite-spin correlation
    Parameter 14 _alpha     =  1.000000e+00 : fraction of HF exchange
    Parameter 15 _beta      = -8.500000e-01 : fraction of short-range exchange
    Parameter 16 _omega     =  3.000000e-01 : range-separation constant
 Long-range corrected/Screened/Range-Separated Hybrid DFT is turned on
   Amount of maximum screened exact exchange              ....  0.850000
   Range separation parameter mu (erf(mu*r12)/r12)        ....  0.300000
 RI-approximation to the Coulomb term is turned on
   Number of AuxJ basis functions       .... 1014
   RIJ-COSX (HFX calculated with COS-X)).... on


General Settings:
 Integral files         IntName         .... orca
 Hartree-Fock type      HFTyp           .... UHF
 Total Charge           Charge          ....    0
 Multiplicity           Mult            ....    3
 Number of Electrons    NEL             ....  132
 Basis Dimension        Dim             ....  882
 Nuclear Repulsion      ENuc            ....   1426.4204262180 Eh

Convergence Acceleration:
 AO-DIIS                CNVDIIS         .... on
   Start iteration      DIISMaxIt       ....    12
   Startup error        DIISStart       ....  0.200000
   # of expansion vecs  DIISMaxEq       ....     5
   Bias factor          DIISBfac        ....   1.050
   Max. coefficient     DIISMaxC        ....  10.000
 MO-DIIS                CNVKDIIS        .... off
 Trust-Rad. Augm. Hess. CNVTRAH         .... auto
   Auto Start mean grad. ratio tolernc. ....  1.125000
   Auto Start start iteration           ....    50
   Auto Start num. interpolation iter.  ....    10
   Max. Number of Micro iterations      ....    24
   Max. Number of Macro iterations      .... Maxiter - #DIIS iter
   Number of Davidson start vectors     ....     2
   Converg. threshold    (grad. norm)   ....   1.000e-05
   Grad. Scal. Fac. for Micro threshold ....   0.100
   Minimum threshold for Micro iter.    ....   1.000e-02
   NR start threshold (gradient norm)   ....   1.000e-04
   Initial trust radius                 ....   0.400
   Minimum AH scaling param. (alpha)    ....   1.000
   Maximum AH scaling param. (alpha)    .... 1000.000
   Quad. conv. algorithm                .... NR
   White noise on init. David. guess    .... on
   Maximum white noise                  ....   0.010
   Pseudo random numbers                .... off
   Inactive MOs                         .... canonical
   Orbital update algorithm             .... Taylor
   Preconditioner                       .... Diag
   Full preconditioner red. dimension   ....   250
 SOSCF                  CNVSOSCF        .... on
   Start iteration      SOSCFMaxIt      ....   150
   Startup grad/error   SOSCFStart      ....  0.003300
   Hessian update       SOSCFHessUp     .... L-BFGS
 Level Shifting         CNVShift        .... on
   Level shift para.    LevelShift      ....    0.2500
   Turn off err/grad.   ShiftErr        ....    0.0010
 Zerner damping         CNVZerner       .... off
 Static damping         CNVDamp         .... on
   Fraction old density DampFac         ....    0.7000
   Max. Damping (<1)    DampMax         ....    0.9800
   Min. Damping (>=0)   DampMin         ....    0.0000
   Turn off err/grad.   DampErr         ....    0.1000

SCF Procedure:
 Maximum # iterations   MaxIter         ....   125
 SCF integral mode      SCFMode         .... Direct
   Integral package                     .... SHARK and LIBINT hybrid scheme
 Reset frequency        DirectResetFreq ....    20
 Integral Threshold     Thresh          ....  1.000e-12 Eh
 Primitive CutOff       TCut            ....  1.000e-13 Eh

Convergence Tolerance:
 Convergence Check Mode ConvCheckMode   .... Total+1el-Energy
 Convergence forced     ConvForced      .... 1
 Energy Change          TolE            ....  1.000e-08 Eh
 1-El. energy change                    ....  1.000e-05 Eh
 Orbital Gradient       TolG            ....  1.000e-05
 Orbital Rotation angle TolX            ....  1.000e-05
 DIIS Error             TolErr          ....  5.000e-07

------------------------------
INITIAL GUESS: MODEL POTENTIAL
------------------------------
Loading Hartree-Fock densities                     ... done
Calculating cut-offs                               ... done
Initializing the effective Hamiltonian             ... done
Setting up the integral package (SHARK)            ... done
Starting the Coulomb interaction                   ... done (   0.1 sec)
Making the grid                                    ... done (   0.3 sec)
Mapping shells                                     ... done
Starting the XC term evaluation                    ... done (   0.1 sec)
  promolecular density results
     # of electrons  =    131.994103757
     EX              =   -113.520983938
     EC              =     -4.477684199
     EX+EC           =   -117.998668137
Transforming the Hamiltonian                       ... done (   0.1 sec)
Diagonalizing the Hamiltonian                      ... done (   0.1 sec)
Back transforming the eigenvectors                 ... done (   0.1 sec)
Now organizing SCF variables                       ... done
                      ------------------
                      INITIAL GUESS DONE (   1.1 sec)
                      ------------------
             **** ENERGY FILE WAS UPDATED (orca.en.tmp) ****
Finished Guess after   3.5 sec
Maximum memory used throughout the entire GUESS-calculation: 71.7 MB
[1739890641.804110] [ohm:179232:0]        ib_iface.c:1059 UCX  ERROR ibv_create_cq(cqe=256) failed: Connection timed out
[1739890641.814641] [ohm:179228:0]        ib_iface.c:1059 UCX  ERROR ibv_create_cq(cqe=256) failed: Connection timed out
[1739890641.819786] [ohm:179233:0]        ib_iface.c:1059 UCX  ERROR ibv_create_cq(cqe=256) failed: Connection timed out
[1739890641.827367] [ohm:179236:0]        ib_iface.c:1059 UCX  ERROR ibv_create_cq(cqe=256) failed: Connection timed out
[1739890641.829072] [ohm:179226:0]        ib_iface.c:1059 UCX  ERROR ibv_create_cq(cqe=256) failed: Connection timed out
[1739890641.834272] [ohm:179243:0]        ib_iface.c:1059 UCX  ERROR ibv_create_cq(cqe=256) failed: Connection timed out
[1739890641.839884] [ohm:179230:0]        ib_iface.c:1059 UCX  ERROR ibv_create_cq(cqe=256) failed: Connection timed out
[1739890641.845526] [ohm:179246:0]        ib_iface.c:1059 UCX  ERROR ibv_create_cq(cqe=256) failed: Connection timed out
[1739890641.845730] [ohm:179229:0]        ib_iface.c:1059 UCX  ERROR ibv_create_cq(cqe=256) failed: Connection timed out
[1739890641.855430] [ohm:179242:0]        ib_iface.c:1059 UCX  ERROR ibv_create_cq(cqe=256) failed: Connection timed out
[1739890641.855990] [ohm:179312:0]        ib_iface.c:1059 UCX  ERROR ibv_create_cq(cqe=256) failed: Connection timed out
[1739890641.860691] [ohm:179283:0]        ib_iface.c:1059 UCX  ERROR ibv_create_cq(cqe=256) failed: Connection timed out
[1739890641.860758] [ohm:179225:0]        ib_iface.c:1059 UCX  ERROR ibv_create_cq(cqe=256) failed: Connection timed out
[1739890641.889184] [ohm:179299:0]        ib_iface.c:1059 UCX  ERROR ibv_create_cq(cqe=256) failed: Connection timed out
[1739890641.894437] [ohm:179267:0]        ib_iface.c:1059 UCX  ERROR ibv_create_cq(cqe=256) failed: Connection timed out
[1739890641.895452] [ohm:179279:0]        ib_iface.c:1059 UCX  ERROR ibv_create_cq(cqe=256) failed: Connection timed out
[1739890641.914928] [ohm:179341:0]        ib_iface.c:1059 UCX  ERROR ibv_create_cq(cqe=256) failed: Connection timed out
[1739890641.925087] [ohm:179347:0]        ib_iface.c:1059 UCX  ERROR ibv_create_cq(cqe=256) failed: Connection timed out
[1739890641.925544] [ohm:179310:0]        ib_iface.c:1059 UCX  ERROR ibv_create_cq(cqe=256) failed: Connection timed out
[1739890641.930228] [ohm:179239:0]        ib_iface.c:1059 UCX  ERROR ibv_create_cq(cqe=256) failed: Connection timed out
[1739890641.930321] [ohm:179231:0]        ib_iface.c:1059 UCX  ERROR ibv_create_cq(cqe=256) failed: Connection timed out
[1739890641.932618] [ohm:179295:0]        ib_iface.c:1059 UCX  ERROR ibv_create_cq(cqe=256) failed: Connection timed out
[1739890641.933610] [ohm:179344:0]        ib_iface.c:1059 UCX  ERROR ibv_create_cq(cqe=256) failed: Connection timed out
[1739890641.944073] [ohm:179255:0]        ib_iface.c:1059 UCX  ERROR ibv_create_cq(cqe=256) failed: Connection timed out
[1739890641.976480] [ohm:179364:0]        ib_iface.c:1059 UCX  ERROR ibv_create_cq(cqe=256) failed: Connection timed out
[1739890641.994753] [ohm:179338:0]        ib_iface.c:1059 UCX  ERROR ibv_create_cq(cqe=256) failed: Connection timed out
[1739890641.995561] [ohm:179315:0]        ib_iface.c:1059 UCX  ERROR ibv_create_cq(cqe=256) failed: Connection timed out
[1739890641.997542] [ohm:179307:0]        ib_iface.c:1059 UCX  ERROR ibv_create_cq(cqe=256) failed: Connection timed out
[1739890642.002076] [ohm:179250:0]        ib_iface.c:1059 UCX  ERROR ibv_create_cq(cqe=256) failed: Connection timed out
[1739890642.008450] [ohm:179234:0]        ib_iface.c:1059 UCX  ERROR ibv_create_cq(cqe=256) failed: Connection timed out
[1739890642.018819] [ohm:179271:0]        ib_iface.c:1059 UCX  ERROR ibv_create_cq(cqe=256) failed: Connection timed out
[1739890642.025595] [ohm:179249:0]        ib_iface.c:1059 UCX  ERROR ibv_create_cq(cqe=256) failed: Connection timed out
[1739890642.030506] [ohm:179247:0]        ib_iface.c:1059 UCX  ERROR ibv_create_cq(cqe=256) failed: Connection timed out
[1739890642.036145] [ohm:179319:0]        ib_iface.c:1059 UCX  ERROR ibv_create_cq(cqe=256) failed: Connection timed out
[1739890642.036715] [ohm:179235:0]        ib_iface.c:1059 UCX  ERROR ibv_create_cq(cqe=256) failed: Connection timed out
[1739890642.041980] [ohm:179262:0]        ib_iface.c:1059 UCX  ERROR ibv_create_cq(cqe=256) failed: Connection timed out
[1739890642.049460] [ohm:179258:0]        ib_iface.c:1059 UCX  ERROR ibv_create_cq(cqe=256) failed: Connection timed out
[1739890642.052465] [ohm:179227:0]        ib_iface.c:1059 UCX  ERROR ibv_create_cq(cqe=256) failed: Connection timed out
[1739890642.053635] [ohm:179291:0]        ib_iface.c:1059 UCX  ERROR ibv_create_cq(cqe=256) failed: Connection timed out
[1739890642.054336] [ohm:179334:0]        ib_iface.c:1059 UCX  ERROR ibv_create_cq(cqe=256) failed: Connection timed out
[1739890642.055739] [ohm:179238:0]        ib_iface.c:1059 UCX  ERROR ibv_create_cq(cqe=256) failed: Connection timed out
[1739890642.057317] [ohm:179240:0]        ib_iface.c:1059 UCX  ERROR ibv_create_cq(cqe=256) failed: Connection timed out
[1739890642.062325] [ohm:179332:0]        ib_iface.c:1059 UCX  ERROR ibv_create_cq(cqe=256) failed: Connection timed out
[1739890642.080168] [ohm:179276:0]        ib_iface.c:1059 UCX  ERROR ibv_create_cq(cqe=256) failed: Connection timed out
[1739890642.080437] [ohm:179301:0]        ib_iface.c:1059 UCX  ERROR ibv_create_cq(cqe=256) failed: Connection timed out
[1739890642.081317] [ohm:179288:0]        ib_iface.c:1059 UCX  ERROR ibv_create_cq(cqe=256) failed: Connection timed out
[1739890642.091623] [ohm:179241:0]        ib_iface.c:1059 UCX  ERROR ibv_create_cq(cqe=256) failed: Connection timed out
[1739890642.092491] [ohm:179237:0]        ib_iface.c:1059 UCX  ERROR ibv_create_cq(cqe=256) failed: Connection timed out
[1739890642.096596] [ohm:179305:0]        ib_iface.c:1059 UCX  ERROR ibv_create_cq(cqe=256) failed: Connection timed out
[1739890642.098731] [ohm:179224:0]        ib_iface.c:1059 UCX  ERROR ibv_create_cq(cqe=256) failed: Connection timed out
[1739890642.101633] [ohm:179324:0]        ib_iface.c:1059 UCX  ERROR ibv_create_cq(cqe=256) failed: Connection timed out
[1739890642.105998] [ohm:179361:0]        ib_iface.c:1059 UCX  ERROR ibv_create_cq(cqe=256) failed: Connection timed out
[1739890642.112892] [ohm:179353:0]        ib_iface.c:1059 UCX  ERROR ibv_create_cq(cqe=256) failed: Connection timed out
[1739890642.113895] [ohm:179248:0]        ib_iface.c:1059 UCX  ERROR ibv_create_cq(cqe=256) failed: Connection timed out
[1739890642.114012] [ohm:179371:0]        ib_iface.c:1059 UCX  ERROR ibv_create_cq(cqe=256) failed: Connection timed out
[1739890642.115789] [ohm:179244:0]        ib_iface.c:1059 UCX  ERROR ibv_create_cq(cqe=256) failed: Connection timed out
[1739890642.116422] [ohm:179252:0]        ib_iface.c:1059 UCX  ERROR ibv_create_cq(cqe=256) failed: Connection timed out
[1739890642.117767] [ohm:179377:0]        ib_iface.c:1059 UCX  ERROR ibv_create_cq(cqe=256) failed: Connection timed out
[1739890642.119383] [ohm:179327:0]        ib_iface.c:1059 UCX  ERROR ibv_create_cq(cqe=256) failed: Connection timed out
[1739890642.119960] [ohm:179383:0]        ib_iface.c:1059 UCX  ERROR ibv_create_cq(cqe=256) failed: Connection timed out
[1739890642.120075] [ohm:179330:0]        ib_iface.c:1059 UCX  ERROR ibv_create_cq(cqe=256) failed: Connection timed out
[1739890642.120783] [ohm:179349:0]        ib_iface.c:1059 UCX  ERROR ibv_create_cq(cqe=256) failed: Connection timed out
[1739890642.121627] [ohm:179245:0]        ib_iface.c:1059 UCX  ERROR ibv_create_cq(cqe=256) failed: Connection timed out
[1739890642.123059] [ohm:179272:0]        ib_iface.c:1059 UCX  ERROR ibv_create_cq(cqe=256) failed: Connection timed out


           ************************************************************
           *        Program running with 64 parallel MPI-processes    *
           *              working on a common directory               *
           ************************************************************

-------------------------------------------------------------------------------------------
                                      ORCA LEAN-SCF
                              memory conserving SCF solver
-------------------------------------------------------------------------------------------

----------------------------------------D-I-I-S--------------------------------------------
Iteration    Energy (Eh)           Delta-E    RMSDP     MaxDP     DIISErr   Damp  Time(sec)
-------------------------------------------------------------------------------------------
               ***  Starting incremental Fock matrix formation  ***
    1    -908.0148325217339789     0.00e+00  1.35e-03  2.43e-01  1.46e-01  0.700   7.9
    2    -908.2804088833433980    -2.66e-01  1.07e-03  1.72e-01  7.00e-02  0.700   6.6
                               ***Turning on AO-DIIS***
    3    -908.3977389843364563    -1.17e-01  7.76e-04  1.30e-01  2.82e-02  0.700   5.9
    4    -908.4703431172613364    -7.26e-02  1.80e-03  3.00e-01  1.84e-02  0.000   5.7
    5    -908.6348199730366559    -1.64e-01  1.88e-04  5.39e-02  5.45e-03  0.000   5.9
                              *** Initializing SOSCF ***
---------------------------------------S-O-S-C-F--------------------------------------
Iteration    Energy (Eh)           Delta-E    RMSDP     MaxDP     MaxGrad    Time(sec)
--------------------------------------------------------------------------------------
    6    -908.6366159797410091    -1.80e-03  9.82e-05  1.57e-02  3.16e-03     6.5
               *** Restarting incremental Fock matrix formation ***
    7    -908.6375244988573741    -9.09e-04  1.70e-04  3.00e-02  5.98e-03     7.4
    8    -908.6380792742213544    -5.55e-04  1.76e-04  2.19e-02  3.15e-03     6.6
    9    -908.6382030030306396    -1.24e-04  1.01e-04  1.03e-02  1.15e-03     6.7
   10    -908.6383385334809191    -1.36e-04  1.23e-05  1.53e-03  3.34e-04     6.4
   11    -908.6383442392695997    -5.71e-06  7.40e-06  1.38e-03  2.94e-04     6.1
   12    -908.6383469447384869    -2.71e-06  7.12e-06  1.27e-03  1.75e-04     5.9
   13    -908.6383482275730330    -1.28e-06  2.46e-06  4.50e-04  4.05e-05     6.0
   14    -908.6383483595284360    -1.32e-07  1.27e-06  2.41e-04  2.87e-05     5.8
   15    -908.6383484152408982    -5.57e-08  1.18e-06  2.17e-04  1.45e-05     5.7
   16    -908.6383484058294471     9.41e-09  1.09e-06  2.42e-04  1.33e-05     5.6
                 **** Energy Check signals convergence ****

               *****************************************************
               *                     SUCCESS                       *
               *           SCF CONVERGED AFTER  16 CYCLES          *
               *****************************************************

Recomputing exchange energy using gridx3       ... done (    7.905 sec)
Old exchange energy                            :    -35.026094810 Eh
New exchange energy                            :    -35.026077704 Eh
Exchange energy change after final integration :      0.000017106 Eh
Total energy after final integration           :   -908.638331300 Eh
             **** ENERGY FILE WAS UPDATED (orca.en.tmp) ****

----------------
TOTAL SCF ENERGY
----------------

Total Energy       :       -908.63833129973148 Eh          -24725.30600 eV

Components:
Nuclear Repulsion  :       1426.42042621798896 Eh           38814.87311 eV
Electronic Energy  :      -2335.05877462381841 Eh          -63540.17958 eV
One Electron Energy:      -4069.84052581983906 Eh         -110745.99092 eV
Two Electron Energy:       1734.78175119602065 Eh           47205.81135 eV

Virial components:
Potential Energy   :      -1814.41133231259755 Eh          -49372.64241 eV
Kinetic Energy     :        905.77300101286619 Eh           24647.33640 eV
Virial Ratio       :          2.00316340880514

DFT components:
N(Alpha)           :       67.000030158683 electrons
N(Beta)            :       65.000046200581 electrons
N(Total)           :      132.000076359264 electrons
E(XC)              :      -86.235915982979 Eh       

---------------
SCF CONVERGENCE
---------------

  Last Energy change         ...   -9.4115e-09  Tolerance :   1.0000e-08
  Last MAX-Density change    ...    2.4172e-04  Tolerance :   1.0000e-07
  Last RMS-Density change    ...    1.0928e-06  Tolerance :   5.0000e-09
  Last DIIS Error            ...    3.1560e-03  Tolerance :   5.0000e-07
  Last Orbital Gradient      ...    1.3345e-05  Tolerance :   1.0000e-05
  Last Orbital Rotation      ...    4.4667e-05  Tolerance :   1.0000e-05


----------------------
UHF SPIN CONTAMINATION
----------------------

Warning: in a DFT calculation there is little theoretical justification to 
         calculate <S**2> as in Hartree-Fock theory. We will do it anyways
         but you should keep in mind that the values have only limited relevance

Expectation value of <S**2>     :     2.010978
Ideal value S*(S+1) for S=1.0   :     2.000000
Deviation                       :     0.010978

----------------
ORBITAL ENERGIES
----------------
                 SPIN UP ORBITALS
  NO   OCC          E(Eh)            E(eV) 
   0   1.0000     -19.337556      -526.2017 
   1   1.0000     -19.329594      -525.9850 
   2   1.0000     -19.328524      -525.9559 
   3   1.0000     -19.321249      -525.7579 
   4   1.0000     -14.572367      -396.5343 
   5   1.0000     -14.570697      -396.4888 
   6   1.0000     -14.565773      -396.3548 
   7   1.0000     -14.564304      -396.3149 
   8   1.0000     -10.515943      -286.1533 
   9   1.0000     -10.508252      -285.9441 
  10   1.0000     -10.485235      -285.3177 
  11   1.0000     -10.484438      -285.2960 
  12   1.0000     -10.446194      -284.2554 
  13   1.0000     -10.442804      -284.1631 
  14   1.0000     -10.415706      -283.4258 
  15   1.0000     -10.403357      -283.0897 
  16   1.0000     -10.375521      -282.3323 
  17   1.0000     -10.366639      -282.0906 
  18   1.0000      -1.228882       -33.4396 
  19   1.0000      -1.220901       -33.2224 
  20   1.0000      -1.206647       -32.8345 
  21   1.0000      -1.197208       -32.5777 
  22   1.0000      -1.123530       -30.5728 
  23   1.0000      -1.094482       -29.7824 
  24   1.0000      -1.072799       -29.1923 
  25   1.0000      -1.062889       -28.9227 
  26   1.0000      -0.984973       -26.8025 
  27   1.0000      -0.941000       -25.6059 
  28   1.0000      -0.881359       -23.9830 
  29   1.0000      -0.826018       -22.4771 
  30   1.0000      -0.815442       -22.1893 
  31   1.0000      -0.806767       -21.9532 
  32   1.0000      -0.790081       -21.4992 
  33   1.0000      -0.779983       -21.2244 
  34   1.0000      -0.722056       -19.6482 
  35   1.0000      -0.698439       -19.0055 
  36   1.0000      -0.691915       -18.8280 
  37   1.0000      -0.660144       -17.9634 
  38   1.0000      -0.641315       -17.4511 
  39   1.0000      -0.634337       -17.2612 
  40   1.0000      -0.615579       -16.7507 
  41   1.0000      -0.606517       -16.5042 
  42   1.0000      -0.600386       -16.3373 
  43   1.0000      -0.591397       -16.0927 
  44   1.0000      -0.579221       -15.7614 
  45   1.0000      -0.570429       -15.5222 
  46   1.0000      -0.566486       -15.4149 
  47   1.0000      -0.560921       -15.2634 
  48   1.0000      -0.557033       -15.1576 
  49   1.0000      -0.554615       -15.0918 
  50   1.0000      -0.546977       -14.8840 
  51   1.0000      -0.544873       -14.8267 
  52   1.0000      -0.532224       -14.4826 
  53   1.0000      -0.514277       -13.9942 
  54   1.0000      -0.511652       -13.9228 
  55   1.0000      -0.495033       -13.4705 
  56   1.0000      -0.441407       -12.0113 
  57   1.0000      -0.427154       -11.6235 
  58   1.0000      -0.417226       -11.3533 
  59   1.0000      -0.409697       -11.1484 
  60   1.0000      -0.405100       -11.0233 
  61   1.0000      -0.397140       -10.8067 
  62   1.0000      -0.394881       -10.7453 
  63   1.0000      -0.390504       -10.6262 
  64   1.0000      -0.382769       -10.4157 
  65   1.0000      -0.355282        -9.6677 
  66   1.0000      -0.303184        -8.2500 
  67   0.0000       0.007745         0.2108 
  68   0.0000       0.015288         0.4160 
  69   0.0000       0.030846         0.8394 
  70   0.0000       0.034887         0.9493 
  71   0.0000       0.040801         1.1103 
  72   0.0000       0.053386         1.4527 
  73   0.0000       0.058419         1.5897 
  74   0.0000       0.060456         1.6451 
  75   0.0000       0.064113         1.7446 
  76   0.0000       0.064813         1.7636 
  77   0.0000       0.070349         1.9143 

                 SPIN DOWN ORBITALS
  NO   OCC          E(Eh)            E(eV) 
   0   1.0000     -19.331863      -526.0467 
   1   1.0000     -19.329590      -525.9849 
   2   1.0000     -19.328433      -525.9534 
   3   1.0000     -19.321245      -525.7578 
   4   1.0000     -14.572396      -396.5351 
   5   1.0000     -14.570643      -396.4874 
   6   1.0000     -14.565677      -396.3522 
   7   1.0000     -14.564271      -396.3140 
   8   1.0000     -10.515974      -286.1542 
   9   1.0000     -10.508255      -285.9442 
  10   1.0000     -10.485755      -285.3319 
  11   1.0000     -10.484466      -285.2968 
  12   1.0000     -10.445987      -284.2498 
  13   1.0000     -10.442375      -284.1515 
  14   1.0000     -10.415343      -283.4159 
  15   1.0000     -10.376122      -282.3486 
  16   1.0000     -10.375701      -282.3372 
  17   1.0000     -10.366555      -282.0883 
  18   1.0000      -1.227888       -33.4125 
  19   1.0000      -1.220663       -33.2159 
  20   1.0000      -1.198165       -32.6037 
  21   1.0000      -1.197026       -32.5727 
  22   1.0000      -1.123270       -30.5657 
  23   1.0000      -1.093823       -29.7644 
  24   1.0000      -1.071390       -29.1540 
  25   1.0000      -1.062602       -28.9149 
  26   1.0000      -0.984294       -26.7840 
  27   1.0000      -0.912234       -24.8231 
  28   1.0000      -0.880821       -23.9684 
  29   1.0000      -0.824470       -22.4350 
  30   1.0000      -0.811311       -22.0769 
  31   1.0000      -0.802000       -21.8235 
  32   1.0000      -0.786725       -21.4079 
  33   1.0000      -0.774798       -21.0833 
  34   1.0000      -0.714410       -19.4401 
  35   1.0000      -0.696133       -18.9427 
  36   1.0000      -0.688423       -18.7329 
  37   1.0000      -0.657835       -17.9006 
  38   1.0000      -0.637488       -17.3469 
  39   1.0000      -0.629610       -17.1326 
  40   1.0000      -0.612962       -16.6796 
  41   1.0000      -0.600040       -16.3279 
  42   1.0000      -0.588863       -16.0238 
  43   1.0000      -0.584150       -15.8955 
  44   1.0000      -0.573978       -15.6187 
  45   1.0000      -0.563596       -15.3362 
  46   1.0000      -0.557944       -15.1824 
  47   1.0000      -0.556261       -15.1366 
  48   1.0000      -0.555093       -15.1048 
  49   1.0000      -0.551953       -15.0194 
  50   1.0000      -0.538774       -14.6608 
  51   1.0000      -0.532759       -14.4971 
  52   1.0000      -0.530907       -14.4467 
  53   1.0000      -0.513801       -13.9812 
  54   1.0000      -0.499825       -13.6009 
  55   1.0000      -0.494314       -13.4510 
  56   1.0000      -0.429572       -11.6893 
  57   1.0000      -0.425526       -11.5791 
  58   1.0000      -0.416848       -11.3430 
  59   1.0000      -0.401995       -10.9388 
  60   1.0000      -0.394818       -10.7435 
  61   1.0000      -0.392369       -10.6769 
  62   1.0000      -0.385695       -10.4953 
  63   1.0000      -0.382289       -10.4026 
  64   1.0000      -0.352045        -9.5796 
  65   0.0000      -0.061012        -1.6602 
  66   0.0000       0.004940         0.1344 
  67   0.0000       0.013496         0.3673 
  68   0.0000       0.029471         0.8019 
  69   0.0000       0.032975         0.8973 
  70   0.0000       0.036459         0.9921 
  71   0.0000       0.043336         1.1792 
  72   0.0000       0.056345         1.5332 
  73   0.0000       0.058120         1.5815 
  74   0.0000       0.061360         1.6697 
  75   0.0000       0.063651         1.7320 
*Only the first 10 virtual orbitals were printed.

                    ********************************
                    * MULLIKEN POPULATION ANALYSIS *
                    ********************************

--------------------------------------------
MULLIKEN ATOMIC CHARGES AND SPIN POPULATIONS
--------------------------------------------
   0 O :   -0.669864    0.003223
   1 O :   -0.603251    0.186513
   2 O :   -0.645583    0.000057
   3 O :   -0.637224    0.000412
   4 N :   -0.229921    0.002764
   5 N :   -0.149221    0.000754
   6 N :    0.012910    0.001389
   7 N :    0.063753    0.001910
   8 C :    1.087408    0.005959
   9 C :   -0.135106    1.523962
  10 C :    0.399401    0.008452
  11 C :   -0.731393    0.036954
  12 C :   -1.653157    0.004545
  13 C :   -1.137320    0.050420
  14 C :    0.255410   -0.003379
  15 C :    0.910038    0.073751
  16 C :    0.430574   -0.000436
  17 C :    0.450558   -0.003327
  18 H :    0.316494    0.001359
  19 H :    0.487640    0.009659
  20 H :    0.292078    0.000879
  21 H :    0.330326   -0.000406
  22 H :    0.410460    0.003445
  23 H :    0.267014    0.030774
  24 H :    0.313725    0.027138
  25 H :    0.374065    0.031798
  26 H :    0.037234    0.000166
  27 H :    0.106821    0.000026
  28 H :    0.037845    0.000023
  29 H :    0.008285    0.001214
Sum of atomic charges         :   -0.0000000
Sum of atomic spin populations:    2.0000000

-----------------------------------------------------
MULLIKEN REDUCED ORBITAL CHARGES AND SPIN POPULATIONS
-----------------------------------------------------
CHARGE
  0 O s       :     4.097097  s :     4.097097
      pz      :     1.426013  p :     4.541656
      px      :     1.382602
      py      :     1.733041
      dz2     :     0.008981  d :     0.029159
      dxz     :     0.007554
      dyz     :     0.006181
      dx2y2   :     0.005639
      dxy     :     0.000804
      f0      :     0.000360  f :     0.001951
      f+1     :     0.000374
      f-1     :     0.000278
      f+2     :     0.000393
      f-2     :     0.000334
      f+3     :     0.000119
      f-3     :     0.000092

  1 O s       :     4.083410  s :     4.083410
      pz      :     1.528703  p :     4.489305
      px      :     1.397973
      py      :     1.562628
[...]
[1739890914.225073] [ohm:181795:0]        ib_iface.c:1059 UCX  ERROR ibv_create_cq(cqe=256) failed: Connection timed out
[1739890914.226676] [ohm:181713:0]        ib_iface.c:1059 UCX  ERROR ibv_create_cq(cqe=256) failed: Connection timed out
[1739890914.227263] [ohm:181829:0]        ib_iface.c:1059 UCX  ERROR ibv_create_cq(cqe=256) failed: Connection timed out
[1739890914.227701] [ohm:181744:0]        ib_iface.c:1059 UCX  ERROR ibv_create_cq(cqe=256) failed: Connection timed out
[1739890914.232293] [ohm:181765:0]        ib_iface.c:1059 UCX  ERROR ibv_create_cq(cqe=256) failed: Connection timed out
[1739890914.232651] [ohm:181804:0]        ib_iface.c:1059 UCX  ERROR ibv_create_cq(cqe=256) failed: Connection timed out
[1739890914.233348] [ohm:181732:0]        ib_iface.c:1059 UCX  ERROR ibv_create_cq(cqe=256) failed: Connection timed out
[1739890914.236544] [ohm:181720:0]        ib_iface.c:1059 UCX  ERROR ibv_create_cq(cqe=256) failed: Connection timed out
[1739890914.237026] [ohm:181816:0]        ib_iface.c:1059 UCX  ERROR ibv_create_cq(cqe=256) failed: Connection timed out
[1739890914.237347] [ohm:181844:0]        ib_iface.c:1059 UCX  ERROR ibv_create_cq(cqe=256) failed: Connection timed out
[1739890914.238971] [ohm:181725:0]        ib_iface.c:1059 UCX  ERROR ibv_create_cq(cqe=256) failed: Connection timed out


           ************************************************************
           *        Program running with 64 parallel MPI-processes    *
           *              working on a common directory               *
           ************************************************************

------------------------------------------------------------------------------
                              ORCA PROPERTY CALCULATIONS
------------------------------------------------------------------------------

GBWName                                 ... orca.gbw
Number of atoms                         ...     30
Number of basis functions               ...    882
Max core memory                         ...   1024 MB

Electric properties:
Dipole moment                           ... YES
Quadrupole moment                       ...  NO
Static polarizability (Dipole/Dipole)   ...  NO
Static polarizability (Dipole/Quad.)    ...  NO
Static polarizability (Quad./Quad.)     ...  NO
Static polarizability (Velocity)        ...  NO

Atomic electric properties:
Dipole moment                           ...  NO
Quadrupole moment                       ...  NO
Static polarizability                   ...  NO

Choice of electric origin               ... Center of mass
Position of electric origin             ...     0.173343    -0.001392     0.055745

General magnetic properties:
Magnetizability                         ...  NO

EPR properties:
g-Tensor (aka g-matrix)                 ...  NO
Zero-Field splitting spin-orbit         ...  NO
Zero-field splitting spin-spin          ...  NO
Hyperfine couplings                     ...  NO (   0 nuclei)
Quadrupole couplings                    ...  NO (   0 nuclei)
Contact density                         ...  NO (   0 nuclei)

NMR properties:
Chemical shifts                         ...  NO (   0 nuclei)
Spin-rotation constants                 ...  NO (   0 nuclei)
Spin-spin couplings                     ...  NO (   0 nuclei,    0 pairs)

Choice of magnetic origin               ... GIAO
Position of magnetic origin             ...     0.000000     0.000000     0.000000

Properties with geometric perturbations:
SCF Hessian                             ...  NO
IR spectrum                             ...  NO
VCD spectrum                            ...  NO
X-ray spectroscopy properties:
SCF XES/XAS/RIXS spectra                ...  NO


-------------
DIPOLE MOMENT
-------------

Method             : SCF
Type of density    : Electron Density
Multiplicity       :   3
Irrep              :   0
Energy             :  -908.6383312997314761 Eh
Relativity type    : 
Basis              : AO
                                X                 Y                 Z
Electronic contribution:      0.190961467      -9.794815683      -6.102279008
Nuclear contribution   :     -0.520416012      10.807974289       8.700946938
                        -----------------------------------------
Total Dipole Moment    :     -0.329454545       1.013158606       2.598667929
                        -----------------------------------------
Magnitude (a.u.)       :      2.808577160
Magnitude (Debye)      :      7.138835809



--------------------
Rotational spectrum 
--------------------
 
Rotational constants in cm-1:             0.022609             0.012132             0.011086 
Rotational constants in MHz :           677.796741           363.703204           332.351569 

Dipole components along the rotational axes: 
x,y,z [a.u.] :     0.120157     1.301269     2.486034 
x,y,z [Debye]:     0.305415     3.307563     6.318997 

 

-------------
DIPOLE MOMENT
-------------

Method             : TDA/CIS
Type of density    : Electron Density
Level              : Relaxed density
State              :   1
Multiplicity       :   3
Irrep              :   0
Energy             :     0.0000000000000000 Eh
Relativity type    : 
Basis              : AO
                                X                 Y                 Z
Electronic contribution:     -0.178354054      -9.848759030      -6.233734866
Nuclear contribution   :     -0.520416012      10.807974289       8.700946938
                        -----------------------------------------
Total Dipole Moment    :     -0.698770066       0.959215258       2.467212072
                        -----------------------------------------
Magnitude (a.u.)       :      2.737792710
Magnitude (Debye)      :      6.958916035



--------------------
Rotational spectrum 
--------------------
 
Rotational constants in cm-1:             0.022609             0.012132             0.011086 
Rotational constants in MHz :           677.796741           363.703204           332.351569 

Dipole components along the rotational axes: 
x,y,z [a.u.] :     0.212546     0.925309     2.567905 
x,y,z [Debye]:     0.540248     2.351948     6.527096 

 

Dipole moment calculation done in   0.2 sec 

Maximum memory used throughout the entire PROP-calculation: 81.0 MB
[1739890916.646785] [ohm:182041:0]        ib_iface.c:1059 UCX  ERROR ibv_create_cq(cqe=256) failed: Connection timed out
[1739890916.648629] [ohm:182040:0]        ib_iface.c:1059 UCX  ERROR ibv_create_cq(cqe=256) failed: Connection timed out
[1739890916.663155] [ohm:182046:0]        ib_iface.c:1059 UCX  ERROR ibv_create_cq(cqe=256) failed: Connection timed out
[1739890916.718055] [ohm:182047:0]        ib_iface.c:1059 UCX  ERROR ibv_create_cq(cqe=256) failed: Connection timed out
[1739890916.725272] [ohm:182045:0]        ib_iface.c:1059 UCX  ERROR ibv_create_cq(cqe=256) failed: Connection timed out
[1739890916.732982] [ohm:182043:0]        ib_iface.c:1059 UCX  ERROR ibv_create_cq(cqe=256) failed: Connection timed out
[1739890916.738418] [ohm:182049:0]        ib_iface.c:1059 UCX  ERROR ibv_create_cq(cqe=256) failed: Connection timed out
[1739890916.742416] [ohm:182048:0]        ib_iface.c:1059 UCX  ERROR ibv_create_cq(cqe=256) failed: Connection timed out
[1739890916.752983] [ohm:182055:0]        ib_iface.c:1059 UCX  ERROR ibv_create_cq(cqe=256) failed: Connection timed out
[1739890916.753846] [ohm:182071:0]        ib_iface.c:1059 UCX  ERROR ibv_create_cq(cqe=256) failed: Connection timed out
[1739890916.757741] [ohm:182051:0]        ib_iface.c:1059 UCX  ERROR ibv_create_cq(cqe=256) failed: Connection timed out
[1739890916.762219] [ohm:182050:0]        ib_iface.c:1059 UCX  ERROR ibv_create_cq(cqe=256) failed: Connection timed out
[1739890916.794209] [ohm:182064:0]        ib_iface.c:1059 UCX  ERROR ibv_create_cq(cqe=256) failed: Connection timed out
[1739890916.807421] [ohm:182057:0]        ib_iface.c:1059 UCX  ERROR ibv_create_cq(cqe=256) failed: Connection timed out
[1739890916.810666] [ohm:182059:0]        ib_iface.c:1059 UCX  ERROR ibv_create_cq(cqe=256) failed: Connection timed out
[1739890916.820405] [ohm:182056:0]        ib_iface.c:1059 UCX  ERROR ibv_create_cq(cqe=256) failed: Connection timed out
[1739890916.829707] [ohm:182062:0]        ib_iface.c:1059 UCX  ERROR ibv_create_cq(cqe=256) failed: Connection timed out
[1739890916.834989] [ohm:182081:0]        ib_iface.c:1059 UCX  ERROR ibv_create_cq(cqe=256) failed: Connection timed out
[1739890916.840142] [ohm:182076:0]        ib_iface.c:1059 UCX  ERROR ibv_create_cq(cqe=256) failed: Connection timed out
[1739890916.860695] [ohm:182066:0]        ib_iface.c:1059 UCX  ERROR ibv_create_cq(cqe=256) failed: Connection timed out
[1739890916.865317] [ohm:182053:0]        ib_iface.c:1059 UCX  ERROR ibv_create_cq(cqe=256) failed: Connection timed out
[1739890916.874303] [ohm:182094:0]        ib_iface.c:1059 UCX  ERROR ibv_create_cq(cqe=256) failed: Connection timed out
[1739890916.874886] [ohm:182116:0]        ib_iface.c:1059 UCX  ERROR ibv_create_cq(cqe=256) failed: Connection timed out
[1739890916.876131] [ohm:182060:0]        ib_iface.c:1059 UCX  ERROR ibv_create_cq(cqe=256) failed: Connection timed out
[1739890916.876852] [ohm:182107:0]        ib_iface.c:1059 UCX  ERROR ibv_create_cq(cqe=256) failed: Connection timed out
[1739890916.881652] [ohm:182135:0]        ib_iface.c:1059 UCX  ERROR ibv_create_cq(cqe=256) failed: Connection timed out
[1739890916.883274] [ohm:182061:0]        ib_iface.c:1059 UCX  ERROR ibv_create_cq(cqe=256) failed: Connection timed out
[1739890916.889208] [ohm:182100:0]        ib_iface.c:1059 UCX  ERROR ibv_create_cq(cqe=256) failed: Connection timed out
[1739890916.898252] [ohm:182139:0]        ib_iface.c:1059 UCX  ERROR ibv_create_cq(cqe=256) failed: Connection timed out
[1739890916.904223] [ohm:182130:0]        ib_iface.c:1059 UCX  ERROR ibv_create_cq(cqe=256) failed: Connection timed out
[1739890916.915092] [ohm:182118:0]        ib_iface.c:1059 UCX  ERROR ibv_create_cq(cqe=256) failed: Connection timed out
[1739890916.927544] [ohm:182167:0]        ib_iface.c:1059 UCX  ERROR ibv_create_cq(cqe=256) failed: Connection timed out
[1739890916.933888] [ohm:182164:0]        ib_iface.c:1059 UCX  ERROR ibv_create_cq(cqe=256) failed: Connection timed out
[1739890916.934455] [ohm:182069:0]        ib_iface.c:1059 UCX  ERROR ibv_create_cq(cqe=256) failed: Connection timed out
[1739890916.938700] [ohm:182065:0]        ib_iface.c:1059 UCX  ERROR ibv_create_cq(cqe=256) failed: Connection timed out
[1739890916.939432] [ohm:182042:0]        ib_iface.c:1059 UCX  ERROR ibv_create_cq(cqe=256) failed: Connection timed out
[1739890916.950450] [ohm:182063:0]        ib_iface.c:1059 UCX  ERROR ibv_create_cq(cqe=256) failed: Connection timed out
[1739890916.951277] [ohm:182052:0]        ib_iface.c:1059 UCX  ERROR ibv_create_cq(cqe=256) failed: Connection timed out
[1739890916.959304] [ohm:182054:0]        ib_iface.c:1059 UCX  ERROR ibv_create_cq(cqe=256) failed: Connection timed out
[1739890916.959965] [ohm:182123:0]        ib_iface.c:1059 UCX  ERROR ibv_create_cq(cqe=256) failed: Connection timed out
[1739890916.966230] [ohm:182153:0]        ib_iface.c:1059 UCX  ERROR ibv_create_cq(cqe=256) failed: Connection timed out
[1739890916.976374] [ohm:182128:0]        ib_iface.c:1059 UCX  ERROR ibv_create_cq(cqe=256) failed: Connection timed out
[1739890916.980427] [ohm:182180:0]        ib_iface.c:1059 UCX  ERROR ibv_create_cq(cqe=256) failed: Connection timed out
[1739890916.987858] [ohm:182185:0]        ib_iface.c:1059 UCX  ERROR ibv_create_cq(cqe=256) failed: Connection timed out
[1739890916.993099] [ohm:182058:0]        ib_iface.c:1059 UCX  ERROR ibv_create_cq(cqe=256) failed: Connection timed out
[1739890916.994611] [ohm:182143:0]        ib_iface.c:1059 UCX  ERROR ibv_create_cq(cqe=256) failed: Connection timed out
[1739890916.995381] [ohm:182172:0]        ib_iface.c:1059 UCX  ERROR ibv_create_cq(cqe=256) failed: Connection timed out
[1739890916.999874] [ohm:182152:0]        ib_iface.c:1059 UCX  ERROR ibv_create_cq(cqe=256) failed: Connection timed out
[1739890917.003260] [ohm:182109:0]        ib_iface.c:1059 UCX  ERROR ibv_create_cq(cqe=256) failed: Connection timed out
[1739890917.005419] [ohm:182157:0]        ib_iface.c:1059 UCX  ERROR ibv_create_cq(cqe=256) failed: Connection timed out
[1739890917.014131] [ohm:182097:0]        ib_iface.c:1059 UCX  ERROR ibv_create_cq(cqe=256) failed: Connection timed out
[1739890917.018499] [ohm:182159:0]        ib_iface.c:1059 UCX  ERROR ibv_create_cq(cqe=256) failed: Connection timed out
[1739890917.021176] [ohm:182174:0]        ib_iface.c:1059 UCX  ERROR ibv_create_cq(cqe=256) failed: Connection timed out
[1739890917.022087] [ohm:182044:0]        ib_iface.c:1059 UCX  ERROR ibv_create_cq(cqe=256) failed: Connection timed out
[1739890917.026017] [ohm:182125:0]        ib_iface.c:1059 UCX  ERROR ibv_create_cq(cqe=256) failed: Connection timed out
[1739890917.026259] [ohm:182146:0]        ib_iface.c:1059 UCX  ERROR ibv_create_cq(cqe=256) failed: Connection timed out
[1739890917.026650] [ohm:182179:0]        ib_iface.c:1059 UCX  ERROR ibv_create_cq(cqe=256) failed: Connection timed out
[1739890917.027824] [ohm:182101:0]        ib_iface.c:1059 UCX  ERROR ibv_create_cq(cqe=256) failed: Connection timed out
[1739890917.028227] [ohm:182190:0]        ib_iface.c:1059 UCX  ERROR ibv_create_cq(cqe=256) failed: Connection timed out
[1739890917.029021] [ohm:182133:0]        ib_iface.c:1059 UCX  ERROR ibv_create_cq(cqe=256) failed: Connection timed out
[1739890917.029425] [ohm:182084:0]        ib_iface.c:1059 UCX  ERROR ibv_create_cq(cqe=256) failed: Connection timed out
[1739890917.030348] [ohm:182073:0]        ib_iface.c:1059 UCX  ERROR ibv_create_cq(cqe=256) failed: Connection timed out
[1739890917.030435] [ohm:182092:0]        ib_iface.c:1059 UCX  ERROR ibv_create_cq(cqe=256) failed: Connection timed out
[1739890917.030515] [ohm:182091:0]        ib_iface.c:1059 UCX  ERROR ibv_create_cq(cqe=256) failed: Connection timed out

--------------------------------
SUGGESTED CITATIONS FOR THIS RUN
--------------------------------

Below you find a list of papers that are relevant to this ORCA run
We neither can nor want to force you to cite these papers, but we appreciate if you do
You receive ORCA, which is the product of decades of hard work by many enthusiastic individuals, for free
The only thing we kindly ask in return is that you cite our papers,
We deeply appreciate it, if you show your appreciation for ORCA by not just citing the generic ORCA reference.

Please note that relegating all ORCA citations to the supporting information does *not* help us.
SI sections are not indexed - citations you put there will not count into any citation statistics
But we need these citations in order to attract the funding resources that allow us to do what we are doing

Therefore, if you are a happy ORCA user, please consider citing a few of the papers listed below in the main body of your paper

In addition to the list printed below, the program has created the file orca.bibtex that contains the list in bibtex format
You can import this file easily into all common literature databanks and citation aid programs


List of essential papers. We consider these as the minimum necessary citations

  1. Neese,F.
     Software update: the ORCA program system, version 5.0
     WIRES Comput. Molec. Sci., 2022 12(1)e1606
     doi.org/10.1002/wcms.1606

List of papers to cite with high priority. The work reported in these papers was absolutely
necessary for this run to complete.
Our perspective: the developers of density functionals and basis sets usually get cited in chemistry papers
Good! But without the algorithms to do something with them, the functionals or basis sets would not do anything.
Hence, in our opinion, the algorithm design and method developments papers are equally worthy of getting cited

  1. Neese,F.; Olbrich,G.
     Efficient use of the resolution of the identity approximation in time-dependent density functional calculations with hybrid density functionals
     Chem. Phys. Lett., 2002 362 170-178
     doi.org/10.1016/s0009-2614(02)01053-9
  2. Neese,F.
     An improvement of the resolution of the identity approximation for the formation of the Coulomb matrix
     J. Comp. Chem., 2003 24(14)1740-1747
     doi.org/10.1002/jcc.10318
  3. Neese,F.; Wennmohs,F.; Hansen,A.; Becker,U.
     Efficient, approximate and parallel Hartree-Fock and hybrid DFT calculations. A 'chain-of-spheres' algorithm for the Hartree-Fock exchange
     Chem. Phys., 2009 356(1-3)98-109
     doi.org/10.1016/j.chemphys.2008.10.036
  4. Petrenko,T.; Kossmann,S.; Neese,F.
     Efficient time-dependent density functional theory approximations for hybrid density functionals: Analytical gradients and parallelization
     J. Chem. Phys., 2011 134 054116
     doi.org/10.1063/1.3533441
  5. Helmich-Paris,B.; de Souza,B.; Neese,F.; Izsák,R.
     An improved chain of spheres for exchange algorithm
     J. Chem. Phys., 2021 155 104109
     doi.org/doi: 10.1063/5.0058766.
  6. Neese,F.
     The SHARK Integral Generation and Digestion System
     J. Comp. Chem., 2022  1-16
     doi.org/10.1002/jcc.26942
  7. Lehtola,S.; Steigemann,C.; Oliveira,M.; Marques,M.
     Recent developments in Libxc - A comprehensive library of functionals for density functional theory
     Software X, 2018 7 
     doi.org/10.1016/j.softx.2017.11.002
  8. Grimme,S.; Antony,J.; Ehrlich,S.; Krieg,H.
     A consistent and accurate ab initio parametrization of density functional dispersion correction (DFT-D) for the 94 elements H-Pu
     J. Chem. Phys., 2010 132 154104-XXXX
     doi.org/10.1063/1.3382344
  9. Grimme,S.; Ehrlich,S.; Goerigk,L.
     Effect of the damping function in dispersion corrected density functional theory
     J. Comput. Chem., 2011 32(7)1456-1465
     doi.org/10.1002/jcc.21759

List of suggested additional citations. These are papers that are important in the 'surrounding' of 
of this run, or papers that preceded the highly important papers. If you like your results we are grateful for a citation.

  1. Izsak,R.; Neese,F.
     An overlap fitted chain of spheres exchange method
     J. Chem. Phys., 2011 135 144105
     doi.org/10.1063/1.3646921
  2. Izsak,R.; Hansen,A.; Neese,F.
     The resolution of identity and chain of spheres approximations for the LPNO-CCSD singles Fock term
     Molec. Phys., 2012 110 2413-2417
     doi.org/10.1080/00268976.2012.687466
  3. Neese,F.
     The ORCA program system
     WIRES Comput. Molec. Sci., 2012 2(1)73-78
     doi.org/10.1002/wcms.81
  4. Izsak,R.; Neese,F.; Klopper,W.
     Robust fitting techniques in the chain of spheres approximation to the Fock exchange: The role of the complementary space
     J. Chem. Phys., 2013 139 
     doi.org/10.1063/1.4819264
  5. Neese,F.
     Software update: the ORCA program system, version 4.0
     WIRES Comput. Molec. Sci., 2018 8(1)1-6
     doi.org/10.1002/wcms.1327
  6. Neese,F.; Wennmohs,F.; Becker,U.; Riplinger,C.
     The ORCA quantum chemistry program package
     J. Chem. Phys., 2020 152 Art. No. L224108
     doi.org/10.1063/5.0004608

List of optional additional citations

  1. Neese,F.
     Approximate second-order SCF convergence for spin unrestricted wavefunctions
     Chem. Phys. Lett., 2000 325(1-3)93-98
     doi.org/10.1016/s0009-2614(00)00662-x

Timings for individual modules:

Sum of individual times          ...      285.333 sec (=   4.756 min)
Startup calculation              ...        6.277 sec (=   0.105 min)   2.2 %
SCF iterations                   ...      118.365 sec (=   1.973 min)  41.5 %
Property integrals               ...        4.223 sec (=   0.070 min)   1.5 %
Property calculations            ...        2.896 sec (=   0.048 min)   1.0 %
CIS module                       ...      153.572 sec (=   2.560 min)  53.8 %
                             ****ORCA TERMINATED NORMALLY****
TOTAL RUN TIME: 0 days 0 hours 4 minutes 47 seconds 384 msec
