
                                 *****************
                                 * O   R   C   A *
                                 *****************

                                            #,                                       
                                            ###                                      
                                            ####                                     
                                            #####                                    
                                            ######                                   
                                           ########,                                 
                                     ,,################,,,,,                         
                               ,,#################################,,                 
                          ,,##########################################,,             
                       ,#########################################, ''#####,          
                    ,#############################################,,   '####,        
                  ,##################################################,,,,####,       
                ,###########''''           ''''###############################       
              ,#####''   ,,,,##########,,,,          '''####'''          '####       
            ,##' ,,,,###########################,,,                        '##       
           ' ,,###''''                  '''############,,,                           
         ,,##''                                '''############,,,,        ,,,,,,###''
      ,#''                                            '''#######################'''  
     '                                                          ''''####''''         
             ,#######,   #######,   ,#######,      ##                                
            ,#'     '#,  ##    ##  ,#'     '#,    #''#        ,####,   ,####,        
            ##       ##  ##   ,#'  ##            #'  '#       #'       #'  '#        
            ##       ##  #######   ##           ,######,      #####,   #    #        
            '#,     ,#'  ##    ##  '#,     ,#' ,#      #,     #,   #   #,  ,#        
             '#######'   ##     ##  '#######'  #'      '#     '####' # '####'        



                #########################################################
                #                        -***-                          #
                #          Department of theory and spectroscopy        #
                #                                                       #
                #                      Frank Neese                      #
                #                                                       #
                #     Directorship, Architecture, Infrastructure        #
                #                    SHARK, DRIVERS                     #
                #        Core code/Algorithms in most modules           #
                #                                                       #
                #        Max Planck Institute fuer Kohlenforschung      #
                #                Kaiser Wilhelm Platz 1                 #
                #                 D-45470 Muelheim/Ruhr                 #
                #                      Germany                          #
                #                                                       #
                #                  All rights reserved                  #
                #                        -***-                          #
                #########################################################


                         Program Version 6.0.0  -   RELEASE  -


 With contributions from (in alphabetic order):
   Daniel Aravena         : Magnetic Suceptibility
   Michael Atanasov       : Ab Initio Ligand Field Theory (pilot matlab implementation)
   Alexander A. Auer      : GIAO ZORA, VPT2 properties, NMR spectrum
   Ute Becker             : All parallelization in ORCA, NUMFREQ, NUMCALC
   Giovanni Bistoni       : ED, misc. LED, open-shell LED, HFLD
   Martin Brehm           : Molecular dynamics
   Dmytro Bykov           : pre 5.0 version of the SCF Hessian
   Marcos Casanova-Páez   : Triplet and SCS-CIS(D). UHF-(DLPNO)-IP/EA/STEOM-CCSD. UHF-CVS-IP/STEOM-CCSD
   Vijay G. Chilkuri      : MRCI spin determinant printing, contributions to CSF-ICE
   Pauline Colinet        : FMM embedding
   Dipayan Datta          : RHF DLPNO-CCSD density
   Achintya Kumar Dutta   : EOM-CC, STEOM-CC
   Nicolas Foglia         : Exact transition moments, OPA infrastructure, MCD improvements
   Dmitry Ganyushin       : Spin-Orbit,Spin-Spin,Magnetic field MRCI
   Miquel Garcia          : C-PCM and meta-GGA Hessian, CCSD/C-PCM, Gaussian charge scheme
   Tiago L. C. Gouveia    : GS-ROHF, GS-ROCIS
   Yang Guo               : DLPNO-NEVPT2, F12-NEVPT2, CIM, IAO-localization
   Andreas Hansen         : Spin unrestricted coupled pair/coupled cluster methods
   Ingolf Harden          : AUTO-CI MPn and infrastructure 
   Benjamin Helmich-Paris : MC-RPA, TRAH-(SCF,CASSCF), AVAS, COSX integrals, SCF dyn. polar.
   Lee Huntington         : MR-EOM, pCC
   Robert Izsak           : Overlap fitted RIJCOSX, COSX-SCS-MP3, EOM
   Riya Kayal             : Wick's Theorem for AUTO-CI, AUTO-CI UHF-CCSDT
   Emily Kempfer          : AUTO-CI, RHF CISDT and CCSDT
   Christian Kollmar      : KDIIS, OOCD, Brueckner-CCSD(T), CCSD density, CASPT2, CASPT2-K, improved NEVPT2
   Axel Koslowski         : Symmetry handling
   Simone Kossmann        : Meta GGA functionals, TD-DFT gradient, OOMP2, (MP2 Hessian; deprecated post 5.0)
   Lucas Lang             : DCDCAS
   Marvin Lechner         : AUTO-CI (C++ implementation), FIC-MRCC
   Spencer Leger          : CASSCF response
   Dagmar Lenk            : GEPOL surface, SMD, ORCA-2-JSON
   Dimitrios Liakos       : Extrapolation schemes; Compound Job, initial MDCI parallelization
   Dimitrios Manganas     : Further ROCIS development; embedding schemes. LFT, Crystal Embedding
   Dimitrios Pantazis     : SARC Basis sets
   Anastasios Papadopoulos: AUTO-CI, single reference methods and gradients
   Taras Petrenko         : pre 6.0 DFT Hessian and TD-DFT gradient, (ASA, deprecated), ECA, 1-Electron XAS/XES, NRVS
   Peter Pinski           : DLPNO-MP2, DLPNO-MP2 Gradient
   Christoph Reimann      : Effective Core Potentials
   Marius Retegan         : Local ZFS, SOC
   Christoph Riplinger    : Optimizer, TS searches, QM/MM, DLPNO-CCSD(T), (RO)-DLPNO pert. Triples
   Michael Roemelt        : Original ROCIS implementation
   Masaaki Saitow         : Open-shell DLPNO-CCSD energy and density
   Barbara Sandhoefer     : DKH picture change effects
   Kantharuban Sivalingam : CASSCF convergence/infrastructure, NEVPT2 and variants, FIC-MRCI
   Bernardo de Souza      : ESD, SOC TD-DFT
   Georgi Stoychev        : AutoAux, RI-MP2 NMR, DLPNO-MP2 response, X2C
   Van Anh Tran           : RI-MP2 g-tensors
   Willem Van den Heuvel  : Paramagnetic NMR
   Zikuan Wang            : NOTCH, Electric field optimization 
   Frank Wennmohs         : Technical directorship and infrastructure
   Hang Xu                : AUTO-CI-Response properties 


 We gratefully acknowledge several colleagues who have allowed us to
 interface, adapt or use parts of their codes:
   Stefan Grimme, W. Hujo, H. Kruse, P. Pracht,  : VdW corrections, initial TS optimization,
                  C. Bannwarth, S. Ehlert,         DFT functionals, gCP, sTDA/sTD-DF
                  L. Wittmann, M. Mueller
   Ed Valeev, F. Pavosevic, A. Kumar             : LibInt (2-el integral package), F12 methods
   Garnet Chan, S. Sharma, J. Yang, R. Olivares  : DMRG
   Ulf Ekstrom                                   : XCFun DFT Library
   Mihaly Kallay                                 : mrcc  (arbitrary order and MRCC methods)
   Frank Weinhold                                : gennbo (NPA and NBO analysis)
   Simon Mueller                                 : openCOSMO-RS
   Christopher J. Cramer and Donald G. Truhlar   : smd solvation model
   Lars Goerigk                                  : TD-DFT with DH, B97 family of functionals
   V. Asgeirsson, H. Jonsson                     : NEB implementation
   FAccTs GmbH                                   : IRC, NEB, NEB-TS, DLPNO-Multilevel, CI-OPT
                                                   MM, QMMM, 2- and 3-layer-ONIOM, Crystal-QMMM,
                                                   LR-CPCM, SF, NACMEs, symmetry and pop. for TD-DFT,
                                                   nearIR, NL-DFT gradient (VV10), updates on ESD,
                                                   ML-optimized integration grids, MBIS, APM,
                                                   GOAT, DOCKER, SOLVATOR, interface openCOSMO-RS
   S Lehtola, MJT Oliveira, MAL Marques          : LibXC Library
   Liviu Ungur et al                             : ANISO software


 Your calculation uses the libint2 library for the computation of 2-el integrals
 For citations please refer to: http://libint.valeyev.net

 Your ORCA version has been built with support for libXC version: 6.2.2
 For citations please refer to: https://libxc.gitlab.io

 This ORCA versions uses:
   CBLAS   interface :  Fast vector & matrix operations
   LAPACKE interface :  Fast linear algebra routines
   SCALAPACK package :  Parallel linear algebra routines
   Shared memory     :  Shared parallel matrices
   BLAS/LAPACK       :  OpenBLAS 0.3.27  USE64BITINT DYNAMIC_ARCH NO_AFFINITY Zen SINGLE_THREADED
        Core in use  :  Zen
   Copyright (c) 2011-2014, The OpenBLAS Project


Your calculation utilizes the atom-pairwise dispersion correction
with the Becke-Johnson damping scheme (D3BJ)


Warning: RI is on but no J-basis has been assigned. Assigning Def2/J (nothing to worry about!)
================================================================================

----- Orbital basis set information -----
Your calculation utilizes the basis: def2-TZVPPD
   F. Weigend and R. Ahlrichs, Phys. Chem. Chem. Phys. 7, 3297 (2005).
   D. Rappoport and F. Furche, J. Chem. Phys. 133, 134105 (2010)
   D. Rappoport, J. Chem. Phys. 155, 124102 (2021).

----- AuxJ basis set information -----
Your calculation utilizes the auxiliary basis: def2/J
   F. Weigend, Phys. Chem. Chem. Phys. 8, 1057 (2006).

================================================================================
                                        WARNINGS
                       Please study these warnings very carefully!
================================================================================

Using LibXC functional ID 531 : wB97M-V exchange-correlation functional
[ 1]  N. Mardirossian and M. Head-Gordon.,  J. Chem. Phys. 144, 214110 (2016)
Using LibXC functional ID 531 : wB97M-V exchange-correlation functional
[ 1]  N. Mardirossian and M. Head-Gordon.,  J. Chem. Phys. 144, 214110 (2016)

WARNING: B97M-V or wB97M-V functional requested.
  ===> : libXC variant has now been activated.
         Any manually given DFX/HFX/RangeSep scaling parameters are IGNORED!

Your calculation utilizes LibXC
 by S Lehtola, C Steigemann, MJT Oliveira & MAL Marques
Please cite in your paper:
 S Lehtola, C Steigemann, MJT Oliveira & MAL Marques, SoftwareX, 7, (2018), 1.
   


WARNING: your system is open-shell and RHF/RKS was chosen
  ===> : WILL SWITCH to UHF/UKS

INFO   : Checking CIS options ...

WARNING: CIS/ROCIS methods need fully converged wavefunctions
  ===> : Setting SCFConvForced true
         You can overwrite this default with %scf ConvForced false 


================================================================================
                                       INPUT FILE
================================================================================
NAME = orca.inp
|  1> ! EnGrad wB97M-D3BJ def2-TZVPPD 
|  2> %pal nprocs 8 end%pal nprocs 16 end 
|  3> %tddft 
|  4>  sf true 
|  5>  nroots 2 Iroot 1 end 
|  6> *xyz 0 3 
|  7> O   0.33188746754694 1.0064772067681 -0.0024243178826
|  8> C   0.63032270338385 -0.29914357259639 -0.0005027139249
|  9> C   -0.73979360881166 -0.70529276257257 0.00062273803367
| 10> H   1.1862343419082 -0.63544923470584 0.88536611742848
| 11> H   1.18646359391291 -0.63791736101917 -0.88522726961835
| 12> H   -1.29716077260798 -0.72535342847128 -0.92427135063431
| 13> H   -1.29575372533227 -0.72172084740285 0.926436796598
| 14> *
| 15> 
| 16>                          ****END OF INPUT****
================================================================================

                     *******************************
                     * Energy+Gradient Calculation *
                     *******************************

---------------------------------
CARTESIAN COORDINATES (ANGSTROEM)
---------------------------------
  O      0.331887    1.006477   -0.002424
  C      0.630323   -0.299144   -0.000503
  C     -0.739794   -0.705293    0.000623
  H      1.186234   -0.635449    0.885366
  H      1.186464   -0.637917   -0.885227
  H     -1.297161   -0.725353   -0.924271
  H     -1.295754   -0.721721    0.926437

----------------------------
CARTESIAN COORDINATES (A.U.)
----------------------------
  NO LB      ZA    FRAG     MASS         X           Y           Z
   0 O     8.0000    0    15.999    0.627176    1.901966   -0.004581
   1 C     6.0000    0    12.011    1.191137   -0.565299   -0.000950
   2 C     6.0000    0    12.011   -1.398007   -1.332810    0.001177
   3 H     1.0000    0     1.008    2.241658   -1.200825    1.673099
   4 H     1.0000    0     1.008    2.242091   -1.205489   -1.672837
   5 H     1.0000    0     1.008   -2.451279   -1.370719   -1.746620
   6 H     1.0000    0     1.008   -2.448620   -1.363855    1.750712

--------------------------------
INTERNAL COORDINATES (ANGSTROEM)
--------------------------------
 O      0   0   0     0.000000000000     0.00000000     0.00000000
 C      1   0   0     1.339295673875     0.00000000     0.00000000
 C      2   1   0     1.429047633952    93.63635949     0.00000000
 H      2   1   3     1.098591295513   114.35199295   242.22621673
 H      2   1   3     1.098543540005   114.34835307   117.83307847
 H      3   2   1     1.080041508854   119.95925046    81.36684435
 H      3   2   1     1.080043149216   119.90264456   278.66006029

---------------------------
INTERNAL COORDINATES (A.U.)
---------------------------
 O      0   0   0     0.000000000000     0.00000000     0.00000000
 C      1   0   0     2.530902035968     0.00000000     0.00000000
 C      2   1   0     2.700508660498    93.63635949     0.00000000
 H      2   1   3     2.076036681629   114.35199295   242.22621673
 H      2   1   3     2.075946436799   114.34835307   117.83307847
 H      3   2   1     2.040982665001   119.95925046    81.36684435
 H      3   2   1     2.040985764836   119.90264456   278.66006029

---------------------
BASIS SET INFORMATION
---------------------
There are 3 groups of distinct atoms

 Group   1 Type O   : 12s7p3d1f contracted to 6s4p3d1f pattern {621111/4111/111/1}
 Group   2 Type C   : 12s6p3d1f contracted to 6s3p3d1f pattern {621111/411/111/1}
 Group   3 Type H   : 5s3p1d contracted to 3s3p1d pattern {311/111/1}

Atom   0O    basis set group =>   1
Atom   1C    basis set group =>   2
Atom   2C    basis set group =>   2
Atom   3H    basis set group =>   3
Atom   4H    basis set group =>   3
Atom   5H    basis set group =>   3
Atom   6H    basis set group =>   3
---------------------------------
AUXILIARY/J BASIS SET INFORMATION
---------------------------------
There are 3 groups of distinct atoms

 Group   1 Type O   : 12s5p4d2f1g contracted to 6s4p3d1f1g pattern {711111/2111/211/2/1}
 Group   2 Type C   : 12s5p4d2f1g contracted to 6s4p3d1f1g pattern {711111/2111/211/2/1}
 Group   3 Type H   : 5s2p1d contracted to 3s1p1d pattern {311/2/1}

Atom   0O    basis set group =>   1
Atom   1C    basis set group =>   2
Atom   2C    basis set group =>   2
Atom   3H    basis set group =>   3
Atom   4H    basis set group =>   3
Atom   5H    basis set group =>   3
Atom   6H    basis set group =>   3
[1740996922.276121] [ohm:3147298:0]        ib_iface.c:1059 UCX  ERROR ibv_create_cq(cqe=256) failed: Connection timed out
[1740996922.277094] [ohm:3147300:0]        ib_iface.c:1059 UCX  ERROR ibv_create_cq(cqe=256) failed: Connection timed out
[1740996922.285090] [ohm:3147302:0]        ib_iface.c:1059 UCX  ERROR ibv_create_cq(cqe=256) failed: Connection timed out
[1740996922.293514] [ohm:3147310:0]        ib_iface.c:1059 UCX  ERROR ibv_create_cq(cqe=256) failed: Connection timed out
[1740996922.293740] [ohm:3147301:0]        ib_iface.c:1059 UCX  ERROR ibv_create_cq(cqe=256) failed: Connection timed out
[1740996922.293936] [ohm:3147297:0]        ib_iface.c:1059 UCX  ERROR ibv_create_cq(cqe=256) failed: Connection timed out
[1740996922.293982] [ohm:3147303:0]        ib_iface.c:1059 UCX  ERROR ibv_create_cq(cqe=256) failed: Connection timed out
[1740996922.294126] [ohm:3147299:0]        ib_iface.c:1059 UCX  ERROR ibv_create_cq(cqe=256) failed: Connection timed out
[1740996922.294195] [ohm:3147307:0]        ib_iface.c:1059 UCX  ERROR ibv_create_cq(cqe=256) failed: Connection timed out
[1740996922.294435] [ohm:3147304:0]        ib_iface.c:1059 UCX  ERROR ibv_create_cq(cqe=256) failed: Connection timed out
[1740996922.298185] [ohm:3147318:0]        ib_iface.c:1059 UCX  ERROR ibv_create_cq(cqe=256) failed: Connection timed out
[1740996922.299760] [ohm:3147305:0]        ib_iface.c:1059 UCX  ERROR ibv_create_cq(cqe=256) failed: Connection timed out
[1740996922.299761] [ohm:3147313:0]        ib_iface.c:1059 UCX  ERROR ibv_create_cq(cqe=256) failed: Connection timed out
[1740996922.300083] [ohm:3147309:0]        ib_iface.c:1059 UCX  ERROR ibv_create_cq(cqe=256) failed: Connection timed out
[1740996922.316123] [ohm:3147325:0]        ib_iface.c:1059 UCX  ERROR ibv_create_cq(cqe=256) failed: Connection timed out
[1740996922.316588] [ohm:3147322:0]        ib_iface.c:1059 UCX  ERROR ibv_create_cq(cqe=256) failed: Connection timed out


           ************************************************************
           *        Program running with 16 parallel MPI-processes    *
           *              working on a common directory               *
           ************************************************************
------------------------------------------------------------------------------
                             ORCA STARTUP CALCULATIONS
                           -- RI-GTO INTEGRALS CHOSEN --
------------------------------------------------------------------------------
------------------------------------------------------------------------------
                   ___                                                        
                  /   \      - P O W E R E D   B Y -                         
                 /     \                                                     
                 |  |  |   _    _      __       _____    __    __             
                 |  |  |  | |  | |    /  \     |  _  \  |  |  /  |          
                  \  \/   | |  | |   /    \    | | | |  |  | /  /          
                 / \  \   | |__| |  /  /\  \   | |_| |  |  |/  /          
                |  |  |   |  __  | /  /__\  \  |    /   |      \           
                |  |  |   | |  | | |   __   |  |    \   |  |\   \          
                \     /   | |  | | |  |  |  |  | |\  \  |  | \   \       
                 \___/    |_|  |_| |__|  |__|  |_| \__\ |__|  \__/        
                                                                              
                      - O R C A' S   B I G   F R I E N D -                    
                                      &                                       
                       - I N T E G R A L  F E E D E R -                       
                                                                              
 v1 FN, 2020, v2 2021, v3 2022-2024                                           
------------------------------------------------------------------------------


----------------------
SHARK INTEGRAL PACKAGE
----------------------

Number of atoms                             ...      7
Number of basis functions                   ...    182
Number of shells                            ...     68
Maximum angular momentum                    ...      3
Integral batch strategy                     ... SHARK/LIBINT Hybrid
RI-J (if used) integral strategy            ... SPLIT-RIJ (Revised 2003 algorithm where possible)
Printlevel                                  ...      1
Contraction scheme used                     ... SEGMENTED contraction
Prescreening option                         ... SCHWARTZ
   Thresh                                   ... 2.500e-11
   Tcut                                     ... 2.500e-12
   Tpresel                                  ... 2.500e-12 
Coulomb Range Separation                    ... NOT USED
Exchange Range Separation                   ... Long Range
   Mu parameter                             ... 3.000e-01
   Scaling (regular/separated)              ... 1.500e-01 8.500e-01
Multipole approximations                    ... NOT USED
Finite Nucleus Model                        ... NOT USED
CABS basis                                  ... NOT available
Auxiliary Coulomb fitting basis             ... AVAILABLE
   # of basis functions in Aux-J            ...    191
   # of shells in Aux-J                     ...     65
   Maximum angular momentum in Aux-J        ...      4
Auxiliary J/K fitting basis                 ... NOT available
Auxiliary Correlation fitting basis         ... NOT available
Auxiliary 'external' fitting basis          ... NOT available

Checking pre-screening integrals            ... done (  0.0 sec) Dimension = 68
Check shell pair data                       ... done (  0.0 sec)
Shell pair information
Shell pair cut-off parameter TPreSel        ...   2.5e-12
Total number of shell pairs                 ...      2346
Shell pairs after pre-screening             ...      2337
Total number of primitive shell pairs       ...      5434
Primitive shell pairs kept                  ...      4869
          la=0 lb=0:    458 shell pairs
          la=1 lb=0:    658 shell pairs
          la=1 lb=1:    253 shell pairs
          la=2 lb=0:    390 shell pairs
          la=2 lb=1:    286 shell pairs
          la=2 lb=2:     91 shell pairs
          la=3 lb=0:     90 shell pairs
          la=3 lb=1:     66 shell pairs
          la=3 lb=2:     39 shell pairs
          la=3 lb=3:      6 shell pairs

Calculating one electron integrals          ... done (  0.0 sec)
Calculating RI/J V-Matrix + Cholesky decomp.... done (  0.0 sec)
Calculating Nuclear repulsion               ... done (  0.0 sec) ENN=     71.241836486481 Eh

Diagonalization of the overlap matrix:
Smallest eigenvalue                        ... 1.424e-05
Time for diagonalization                   ...    0.003 sec
Threshold for overlap eigenvalues          ... 1.000e-07
Number of eigenvalues below threshold      ... 0
Time for construction of square roots      ...    0.002 sec
Total time needed                          ...    0.005 sec

-------------------
DFT GRID GENERATION
-------------------

General Integration Accuracy     IntAcc      ... 4.388
Radial Grid Type                 RadialGrid  ... OptM3 with GC (2021)
Angular Grid (max. ang.)         AngularGrid ... 4 (Lebedev-302)
Angular grid pruning method      GridPruning ... 4 (adaptive)
Weight generation scheme         WeightScheme... mBecke (2022)
Basis function cutoff            BFCut       ... 1.0000e-11
Integration weight cutoff        WCut        ... 1.0000e-14
Partially contracted basis set               ... off
Rotationally invariant grid construction     ... off
Angular grids for H and He will be reduced by one unit
Diffuse basis detected: some atoms will have their outermost
                        angular grid increased by 1.

Total number of grid points                  ...    33072
Total number of batches                      ...      521
Average number of points per batch           ...       63
Average number of grid points per atom       ...     4725

--------------------
COSX GRID GENERATION
--------------------

GRIDX 1
-------
General Integration Accuracy     IntAcc      ... 3.816
Radial Grid Type                 RadialGrid  ... OptM3 with GC (2021)
Angular Grid (max. ang.)         AngularGrid ... 1 (Lebedev-50)
Angular grid pruning method      GridPruning ... 4 (adaptive)
Weight generation scheme         WeightScheme... mBecke (2022)
Basis function cutoff            BFCut       ... 1.0000e-11
Integration weight cutoff        WCut        ... 1.0000e-14
Partially contracted basis set               ... on
Rotationally invariant grid construction     ... off
Angular grids for H and He will be reduced by one unit
Diffuse basis detected: some atoms will have their outermost
                        angular grid increased by 1.

Total number of grid points                  ...     4171
Total number of batches                      ...       36
Average number of points per batch           ...      115
Average number of grid points per atom       ...      596
UseSFitting                                  ... on

GRIDX 2
-------
General Integration Accuracy     IntAcc      ... 4.020
Radial Grid Type                 RadialGrid  ... OptM3 with GC (2021)
Angular Grid (max. ang.)         AngularGrid ... 2 (Lebedev-110)
Angular grid pruning method      GridPruning ... 4 (adaptive)
Weight generation scheme         WeightScheme... mBecke (2022)
Basis function cutoff            BFCut       ... 1.0000e-11
Integration weight cutoff        WCut        ... 1.0000e-14
Partially contracted basis set               ... on
Rotationally invariant grid construction     ... off
Angular grids for H and He will be reduced by one unit
Diffuse basis detected: some atoms will have their outermost
                        angular grid increased by 1.

Total number of grid points                  ...    10246
Total number of batches                      ...       84
Average number of points per batch           ...      121
Average number of grid points per atom       ...     1464
UseSFitting                                  ... on

GRIDX 3
-------
General Integration Accuracy     IntAcc      ... 4.338
Radial Grid Type                 RadialGrid  ... OptM3 with GC (2021)
Angular Grid (max. ang.)         AngularGrid ... 3 (Lebedev-194)
Angular grid pruning method      GridPruning ... 4 (adaptive)
Weight generation scheme         WeightScheme... mBecke (2022)
Basis function cutoff            BFCut       ... 1.0000e-11
Integration weight cutoff        WCut        ... 1.0000e-14
Partially contracted basis set               ... on
Rotationally invariant grid construction     ... off
Angular grids for H and He will be reduced by one unit
Diffuse basis detected: some atoms will have their outermost
                        angular grid increased by 1.

Total number of grid points                  ...    23089
Total number of batches                      ...      184
Average number of points per batch           ...      125
Average number of grid points per atom       ...     3298
UseSFitting                                  ... on
Initializing property integral containers    ... done (  0.0 sec)

SHARK setup successfully completed in   0.3 seconds

Maximum memory used throughout the entire STARTUP-calculation: 13.8 MB
[1740996923.276787] [ohm:3147397:0]        ib_iface.c:1059 UCX  ERROR ibv_create_cq(cqe=256) failed: Connection timed out
[1740996923.277534] [ohm:3147393:0]        ib_iface.c:1059 UCX  ERROR ibv_create_cq(cqe=256) failed: Connection timed out
[1740996923.279835] [ohm:3147395:0]        ib_iface.c:1059 UCX  ERROR ibv_create_cq(cqe=256) failed: Connection timed out
[1740996923.293014] [ohm:3147394:0]        ib_iface.c:1059 UCX  ERROR ibv_create_cq(cqe=256) failed: Connection timed out
[1740996923.293016] [ohm:3147392:0]        ib_iface.c:1059 UCX  ERROR ibv_create_cq(cqe=256) failed: Connection timed out
[1740996923.294073] [ohm:3147398:0]        ib_iface.c:1059 UCX  ERROR ibv_create_cq(cqe=256) failed: Connection timed out
[1740996923.294093] [ohm:3147396:0]        ib_iface.c:1059 UCX  ERROR ibv_create_cq(cqe=256) failed: Connection timed out
[1740996923.295128] [ohm:3147403:0]        ib_iface.c:1059 UCX  ERROR ibv_create_cq(cqe=256) failed: Connection timed out
[1740996923.295129] [ohm:3147399:0]        ib_iface.c:1059 UCX  ERROR ibv_create_cq(cqe=256) failed: Connection timed out
[1740996923.299123] [ohm:3147401:0]        ib_iface.c:1059 UCX  ERROR ibv_create_cq(cqe=256) failed: Connection timed out
[1740996923.314319] [ohm:3147404:0]        ib_iface.c:1059 UCX  ERROR ibv_create_cq(cqe=256) failed: Connection timed out
[1740996923.314600] [ohm:3147414:0]        ib_iface.c:1059 UCX  ERROR ibv_create_cq(cqe=256) failed: Connection timed out
[1740996923.314985] [ohm:3147420:0]        ib_iface.c:1059 UCX  ERROR ibv_create_cq(cqe=256) failed: Connection timed out
[1740996923.315390] [ohm:3147417:0]        ib_iface.c:1059 UCX  ERROR ibv_create_cq(cqe=256) failed: Connection timed out
[1740996923.315392] [ohm:3147422:0]        ib_iface.c:1059 UCX  ERROR ibv_create_cq(cqe=256) failed: Connection timed out
[1740996923.316030] [ohm:3147409:0]        ib_iface.c:1059 UCX  ERROR ibv_create_cq(cqe=256) failed: Connection timed out


           ************************************************************
           *        Program running with 16 parallel MPI-processes    *
           *              working on a common directory               *
           ************************************************************
-------------------------------------------------------------------------------
                                 ORCA GUESS
                   Start orbitals & Density for SCF / CASSCF
-------------------------------------------------------------------------------

------------
SCF SETTINGS
------------
Hamiltonian:
 Density Functional     Method          .... DFT(GTOs)
  Functional kind                       .... Exchange-Correlation
  Functional name                       .... wB97M-V exchange-correlation functional
  Functional family                     .... Hybrid MGGA
  Functional refs                              
    [ 0] N. Mardirossian and M. Head-Gordon.,  J. Chem. Phys. 144, 214110 (2016), doi: 10.1063/1.4952647
  Fraction of HF Exchange (short range) .... 0.1500
  Fraction of HF Exchange (long range)  .... 1.0000
  Range separation parameter mu         .... 0.3000
  Functional external parameters        .... 17
    Parameter  0 _cx00      =  8.500000e-01 : u^00 coefficient for exchange
    Parameter  1 _cx01      =  1.007000e+00 : u^01 coefficient for exchange
    Parameter  2 _cx10      =  2.590000e-01 : u^10 coefficient for exchange
    Parameter  3 _css00     =  4.430000e-01 : u^00 coefficient for same-spin correlation
    Parameter  4 _css04     = -1.437000e+00 : u^04 coefficient for same-spin correlation
    Parameter  5 _css10     = -4.535000e+00 : u^10 coefficient for same-spin correlation
    Parameter  6 _css20     = -3.390000e+00 : u^20 coefficient for same-spin correlation
    Parameter  7 _css43     =  4.278000e+00 : u^43 coefficient for same-spin correlation
    Parameter  8 _cos00     =  1.000000e+00 : u^00 coefficient for opposite-spin correlation
    Parameter  9 _cos10     =  1.358000e+00 : u^10 coefficient for opposite-spin correlation
    Parameter 10 _cos20     =  2.924000e+00 : u^20 coefficient for opposite-spin correlation
    Parameter 11 _cos21     = -8.812000e+00 : u^21 coefficient for opposite-spin correlation
    Parameter 12 _cos60     = -1.390000e+00 : u^60 coefficient for opposite-spin correlation
    Parameter 13 _cos61     =  9.142000e+00 : u^61 coefficient for opposite-spin correlation
    Parameter 14 _alpha     =  1.000000e+00 : fraction of HF exchange
    Parameter 15 _beta      = -8.500000e-01 : fraction of short-range exchange
    Parameter 16 _omega     =  3.000000e-01 : range-separation constant
 Long-range corrected/Screened/Range-Separated Hybrid DFT is turned on
   Amount of maximum screened exact exchange              ....  0.850000
   Range separation parameter mu (erf(mu*r12)/r12)        ....  0.300000
 RI-approximation to the Coulomb term is turned on
   Number of AuxJ basis functions       .... 191
   RIJ-COSX (HFX calculated with COS-X)).... on


General Settings:
 Integral files         IntName         .... orca
 Hartree-Fock type      HFTyp           .... UHF
 Total Charge           Charge          ....    0
 Multiplicity           Mult            ....    3
 Number of Electrons    NEL             ....   24
 Basis Dimension        Dim             ....  182
 Nuclear Repulsion      ENuc            ....     71.2418364865 Eh

Convergence Acceleration:
 AO-DIIS                CNVDIIS         .... on
   Start iteration      DIISMaxIt       ....    12
   Startup error        DIISStart       ....  0.200000
   # of expansion vecs  DIISMaxEq       ....     5
   Bias factor          DIISBfac        ....   1.050
   Max. coefficient     DIISMaxC        ....  10.000
 MO-DIIS                CNVKDIIS        .... off
 Trust-Rad. Augm. Hess. CNVTRAH         .... auto
   Auto Start mean grad. ratio tolernc. ....  1.125000
   Auto Start start iteration           ....    50
   Auto Start num. interpolation iter.  ....    10
   Max. Number of Micro iterations      ....    24
   Max. Number of Macro iterations      .... Maxiter - #DIIS iter
   Number of Davidson start vectors     ....     2
   Converg. threshold    (grad. norm)   ....   1.000e-05
   Grad. Scal. Fac. for Micro threshold ....   0.100
   Minimum threshold for Micro iter.    ....   1.000e-02
   NR start threshold (gradient norm)   ....   1.000e-04
   Initial trust radius                 ....   0.400
   Minimum AH scaling param. (alpha)    ....   1.000
   Maximum AH scaling param. (alpha)    .... 1000.000
   Quad. conv. algorithm                .... NR
   White noise on init. David. guess    .... on
   Maximum white noise                  ....   0.010
   Pseudo random numbers                .... off
   Inactive MOs                         .... canonical
   Orbital update algorithm             .... Taylor
   Preconditioner                       .... Diag
   Full preconditioner red. dimension   ....   250
 SOSCF                  CNVSOSCF        .... on
   Start iteration      SOSCFMaxIt      ....   150
   Startup grad/error   SOSCFStart      ....  0.003300
   Hessian update       SOSCFHessUp     .... L-BFGS
 Level Shifting         CNVShift        .... on
   Level shift para.    LevelShift      ....    0.2500
   Turn off err/grad.   ShiftErr        ....    0.0010
 Zerner damping         CNVZerner       .... off
 Static damping         CNVDamp         .... on
   Fraction old density DampFac         ....    0.7000
   Max. Damping (<1)    DampMax         ....    0.9800
   Min. Damping (>=0)   DampMin         ....    0.0000
   Turn off err/grad.   DampErr         ....    0.1000

SCF Procedure:
 Maximum # iterations   MaxIter         ....   125
 SCF integral mode      SCFMode         .... Direct
   Integral package                     .... SHARK and LIBINT hybrid scheme
 Reset frequency        DirectResetFreq ....    20
 Integral Threshold     Thresh          ....  2.500e-11 Eh
 Primitive CutOff       TCut            ....  2.500e-12 Eh

Convergence Tolerance:
 Convergence Check Mode ConvCheckMode   .... Total+1el-Energy
 Convergence forced     ConvForced      .... 1
 Energy Change          TolE            ....  1.000e-08 Eh
 1-El. energy change                    ....  1.000e-05 Eh
 Orbital Gradient       TolG            ....  1.000e-05
 Orbital Rotation angle TolX            ....  1.000e-05
 DIIS Error             TolErr          ....  5.000e-07

------------------------------
INITIAL GUESS: MODEL POTENTIAL
------------------------------
Loading Hartree-Fock densities                     ... done
Calculating cut-offs                               ... done
Initializing the effective Hamiltonian             ... done
Setting up the integral package (SHARK)            ... done
Starting the Coulomb interaction                   ... done (   0.0 sec)
Making the grid                                    ... done (   0.0 sec)
Mapping shells                                     ... done
Starting the XC term evaluation                    ... done (   0.0 sec)
  promolecular density results
     # of electrons  =     23.997378228
     EX              =    -19.497432787
     EC              =     -0.772255203
     EX+EC           =    -20.269687991
Transforming the Hamiltonian                       ... done (   0.0 sec)
Diagonalizing the Hamiltonian                      ... done (   0.0 sec)
Back transforming the eigenvectors                 ... done (   0.0 sec)
Now organizing SCF variables                       ... done
                      ------------------
                      INITIAL GUESS DONE (   0.1 sec)
                      ------------------
             **** ENERGY FILE WAS UPDATED (orca.en.tmp) ****
Finished Guess after   0.5 sec
Maximum memory used throughout the entire GUESS-calculation: 9.7 MB
[1740996924.060301] [ohm:3147483:0]        ib_iface.c:1059 UCX  ERROR ibv_create_cq(cqe=256) failed: Connection timed out
[1740996924.060362] [ohm:3147479:0]        ib_iface.c:1059 UCX  ERROR ibv_create_cq(cqe=256) failed: Connection timed out
[1740996924.060911] [ohm:3147488:0]        ib_iface.c:1059 UCX  ERROR ibv_create_cq(cqe=256) failed: Connection timed out
[1740996924.086180] [ohm:3147498:0]        ib_iface.c:1059 UCX  ERROR ibv_create_cq(cqe=256) failed: Connection timed out
[1740996924.086259] [ohm:3147491:0]        ib_iface.c:1059 UCX  ERROR ibv_create_cq(cqe=256) failed: Connection timed out
[1740996924.086499] [ohm:3147506:0]        ib_iface.c:1059 UCX  ERROR ibv_create_cq(cqe=256) failed: Connection timed out
[1740996924.087401] [ohm:3147485:0]        ib_iface.c:1059 UCX  ERROR ibv_create_cq(cqe=256) failed: Connection timed out
[1740996924.087424] [ohm:3147481:0]        ib_iface.c:1059 UCX  ERROR ibv_create_cq(cqe=256) failed: Connection timed out
[1740996924.088829] [ohm:3147484:0]        ib_iface.c:1059 UCX  ERROR ibv_create_cq(cqe=256) failed: Connection timed out
[1740996924.088963] [ohm:3147478:0]        ib_iface.c:1059 UCX  ERROR ibv_create_cq(cqe=256) failed: Connection timed out
[1740996924.088971] [ohm:3147482:0]        ib_iface.c:1059 UCX  ERROR ibv_create_cq(cqe=256) failed: Connection timed out
[1740996924.089135] [ohm:3147480:0]        ib_iface.c:1059 UCX  ERROR ibv_create_cq(cqe=256) failed: Connection timed out
[1740996924.089555] [ohm:3147489:0]        ib_iface.c:1059 UCX  ERROR ibv_create_cq(cqe=256) failed: Connection timed out
[1740996924.089542] [ohm:3147493:0]        ib_iface.c:1059 UCX  ERROR ibv_create_cq(cqe=256) failed: Connection timed out
[1740996924.089674] [ohm:3147486:0]        ib_iface.c:1059 UCX  ERROR ibv_create_cq(cqe=256) failed: Connection timed out
[1740996924.096313] [ohm:3147503:0]        ib_iface.c:1059 UCX  ERROR ibv_create_cq(cqe=256) failed: Connection timed out


           ************************************************************
           *        Program running with 16 parallel MPI-processes    *
           *              working on a common directory               *
           ************************************************************

-------------------------------------------------------------------------------------------
                                      ORCA LEAN-SCF
                              memory conserving SCF solver
-------------------------------------------------------------------------------------------

----------------------------------------D-I-I-S--------------------------------------------
Iteration    Energy (Eh)           Delta-E    RMSDP     MaxDP     DIISErr   Damp  Time(sec)
-------------------------------------------------------------------------------------------
               ***  Starting incremental Fock matrix formation  ***
    1    -153.6718853977885715     0.00e+00  9.42e-04  2.18e-02  9.07e-02  0.700   0.4
    2    -153.7032724973256848    -3.14e-02  8.70e-04  2.14e-02  5.59e-02  0.700   0.3
                               ***Turning on AO-DIIS***
    3    -153.7207955865853251    -1.75e-02  7.18e-04  2.00e-02  3.43e-02  0.700   0.3
    4    -153.7317129049899620    -1.09e-02  1.80e-03  5.00e-02  2.80e-02  0.000   0.3
    5    -153.7574089504767301    -2.57e-02  2.28e-04  1.10e-02  1.08e-02  0.000   0.3
    6    -153.7582826500080273    -8.74e-04  1.76e-04  8.24e-03  6.80e-03  0.000   0.3
    7    -153.7588285347090107    -5.46e-04  1.04e-04  3.93e-03  4.56e-03  0.000   0.3
                              *** Initializing SOSCF ***
---------------------------------------S-O-S-C-F--------------------------------------
Iteration    Energy (Eh)           Delta-E    RMSDP     MaxDP     MaxGrad    Time(sec)
--------------------------------------------------------------------------------------
    8    -153.7590415026263599    -2.13e-04  6.59e-05  2.29e-03  1.84e-03     0.3
               *** Restarting incremental Fock matrix formation ***
    9    -153.7591230250472165    -8.15e-05  3.45e-05  1.05e-03  1.85e-03     0.4
   10    -153.7591432033899537    -2.02e-05  5.28e-05  1.47e-03  8.89e-04     0.4
   11    -153.7591539851172229    -1.08e-05  1.64e-05  3.84e-04  2.35e-04     0.3
   12    -153.7591553685123529    -1.38e-06  3.87e-06  9.17e-05  5.89e-05     0.3
   13    -153.7591554358135966    -6.73e-08  1.94e-06  8.67e-05  2.15e-05     0.3
   14    -153.7591554515371683    -1.57e-08  6.58e-07  1.59e-05  9.87e-06     0.3
   15    -153.7591554505424369     9.95e-10  8.43e-07  3.66e-05  5.85e-06     0.3
                 **** Energy Check signals convergence ****

               *****************************************************
               *                     SUCCESS                       *
               *           SCF CONVERGED AFTER  15 CYCLES          *
               *****************************************************

Recomputing exchange energy using gridx3       ... done (    0.432 sec)
Old exchange energy                            :     -6.204782580 Eh
New exchange energy                            :     -6.204784339 Eh
Exchange energy change after final integration :     -0.000001758 Eh
Total energy after final integration           :   -153.759157209 Eh
             **** ENERGY FILE WAS UPDATED (orca.en.tmp) ****

----------------
TOTAL SCF ENERGY
----------------

Total Energy       :       -153.75915720859214 Eh           -4183.99938 eV

Components:
Nuclear Repulsion  :         71.24183648648139 Eh            1938.58893 eV
Electronic Energy  :       -225.00099193702385 Eh           -6122.58826 eV
One Electron Energy:       -348.90315453023800 Eh           -9494.13751 eV
Two Electron Energy:        123.90216259321416 Eh            3371.54925 eV

Virial components:
Potential Energy   :       -307.32493487493389 Eh           -8362.73663 eV
Kinetic Energy     :        153.56577766634177 Eh            4178.73725 eV
Virial Ratio       :          2.00125926196050

DFT components:
N(Alpha)           :       12.999995795255 electrons
N(Beta)            :       10.999992264557 electrons
N(Total)           :       23.999988059811 electrons
E(XC)              :      -14.740461691796 Eh       

---------------
SCF CONVERGENCE
---------------

  Last Energy change         ...   -9.9473e-10  Tolerance :   1.0000e-08
  Last MAX-Density change    ...    3.6584e-05  Tolerance :   1.0000e-07
  Last RMS-Density change    ...    8.4320e-07  Tolerance :   5.0000e-09
  Last DIIS Error            ...    1.8367e-03  Tolerance :   5.0000e-07
  Last Orbital Gradient      ...    5.8452e-06  Tolerance :   1.0000e-05
  Last Orbital Rotation      ...    3.1100e-05  Tolerance :   1.0000e-05


----------------------
UHF SPIN CONTAMINATION
----------------------

Warning: in a DFT calculation there is little theoretical justification to 
         calculate <S**2> as in Hartree-Fock theory. We will do it anyways
         but you should keep in mind that the values have only limited relevance

Expectation value of <S**2>     :     2.008327
Ideal value S*(S+1) for S=1.0   :     2.000000
Deviation                       :     0.008327

----------------
ORBITAL ENERGIES
----------------
                 SPIN UP ORBITALS
  NO   OCC          E(Eh)            E(eV) 
   0   1.0000     -19.403002      -527.9825 
   1   1.0000     -10.406795      -283.1833 
   2   1.0000     -10.343108      -281.4503 
   3   1.0000      -1.205850       -32.8129 
   4   1.0000      -0.869587       -23.6627 
   5   1.0000      -0.738574       -20.0976 
   6   1.0000      -0.641071       -17.4444 
   7   1.0000      -0.602710       -16.4006 
   8   1.0000      -0.552427       -15.0323 
   9   1.0000      -0.509459       -13.8631 
  10   1.0000      -0.447296       -12.1715 
  11   1.0000      -0.432686       -11.7740 
  12   1.0000      -0.287025        -7.8103 
  13   0.0000       0.041113         1.1187 
  14   0.0000       0.063622         1.7312 
  15   0.0000       0.073201         1.9919 
  16   0.0000       0.086293         2.3481 
  17   0.0000       0.117227         3.1899 
  18   0.0000       0.128472         3.4959 
  19   0.0000       0.135009         3.6738 
  20   0.0000       0.139980         3.8091 
  21   0.0000       0.164969         4.4890 
  22   0.0000       0.195954         5.3322 
  23   0.0000       0.206965         5.6318 

                 SPIN DOWN ORBITALS
  NO   OCC          E(Eh)            E(eV) 
   0   1.0000     -19.375629      -527.2377 
   1   1.0000     -10.408029      -283.2169 
   2   1.0000     -10.330391      -281.1042 
   3   1.0000      -1.147180       -31.2163 
   4   1.0000      -0.835541       -22.7362 
   5   1.0000      -0.716373       -19.4935 
   6   1.0000      -0.599717       -16.3191 
   7   1.0000      -0.567148       -15.4329 
   8   1.0000      -0.529786       -14.4162 
   9   1.0000      -0.474948       -12.9240 
  10   1.0000      -0.387437       -10.5427 
  11   0.0000      -0.071538        -1.9466 
  12   0.0000       0.024076         0.6551 
  13   0.0000       0.039785         1.0826 
  14   0.0000       0.064282         1.7492 
  15   0.0000       0.072257         1.9662 
  16   0.0000       0.092675         2.5218 
  17   0.0000       0.116206         3.1621 
  18   0.0000       0.133366         3.6291 
  19   0.0000       0.136347         3.7102 
  20   0.0000       0.145227         3.9518 
  21   0.0000       0.171684         4.6718 
*Only the first 10 virtual orbitals were printed.

                    ********************************
                    * MULLIKEN POPULATION ANALYSIS *
                    ********************************

--------------------------------------------
MULLIKEN ATOMIC CHARGES AND SPIN POPULATIONS
--------------------------------------------
   0 O :   -0.295406    0.999489
   1 C :    0.063676   -0.028958
   2 C :   -0.650567    0.860265
   3 H :    0.200580    0.063780
   4 H :    0.200615    0.063526
   5 H :    0.240580    0.020973
   6 H :    0.240522    0.020926
Sum of atomic charges         :   -0.0000000
Sum of atomic spin populations:    2.0000000

-----------------------------------------------------
MULLIKEN REDUCED ORBITAL CHARGES AND SPIN POPULATIONS
-----------------------------------------------------
CHARGE
  0 O s       :     4.014758  s :     4.014758
      pz      :     1.066691  p :     4.259455
      px      :     1.830943
      py      :     1.361821
      dz2     :     0.003529  d :     0.019767
      dxz     :    -0.001197
      dyz     :     0.006280
      dx2y2   :     0.005674
      dxy     :     0.005481
      f0      :     0.000138  f :     0.001426
      f+1     :     0.000044
      f-1     :     0.000162
      f+2     :     0.000175
      f-2     :     0.000069
      f+3     :     0.000459
      f-3     :     0.000379

  1 C s       :     3.159617  s :     3.159617
      pz      :     1.111782  p :     2.626048
      px      :     0.898843
      py      :     0.615423
      dz2     :     0.004064  d :     0.138578
      dxz     :     0.021033
      dyz     :     0.039206
      dx2y2   :     0.031498
      dxy     :     0.042776
      f0      :     0.001130  f :     0.012081
      f+1     :     0.000741
      f-1     :     0.000919
      f+2     :     0.001483
      f-2     :     0.000552
      f+3     :     0.004160
      f-3     :     0.003096

  2 C s       :     3.585127  s :     3.585127
      pz      :     1.152813  p :     3.038048
      px      :     0.922015
      py      :     0.963221
      dz2     :     0.011395  d :     0.022756
      dxz     :    -0.003813
      dyz     :    -0.002053
      dx2y2   :     0.007338
      dxy     :     0.009889
      f0      :     0.000601  f :     0.004635
      f+1     :     0.000592
      f-1     :     0.000146
      f+2     :     0.000721
      f-2     :     0.000236
      f+3     :     0.001421
      f-3     :     0.000918

  3 H s       :     0.757969  s :     0.757969
      pz      :     0.019198  p :     0.038900
      px      :     0.010430
      py      :     0.009272
      dz2     :     0.000746  d :     0.002551
      dxz     :     0.000548
      dyz     :     0.000539
      dx2y2   :     0.000399
      dxy     :     0.000319

  4 H s       :     0.757909  s :     0.757909
      pz      :     0.019189  p :     0.038926
      px      :     0.010431
      py      :     0.009306
      dz2     :     0.000746  d :     0.002551
      dxz     :     0.000547
      dyz     :     0.000537
      dx2y2   :     0.000401
      dxy     :     0.000320

  5 H s       :     0.701794  s :     0.701794
      pz      :     0.013529  p :     0.055369
      px      :     0.013356
      py      :     0.028484
      dz2     :     0.000627  d :     0.002257
      dxz     :     0.000480
      dyz     :     0.000663
      dx2y2   :     0.000221
      dxy     :     0.000267

  6 H s       :     0.701855  s :     0.701855
      pz      :     0.013548  p :     0.055364
      px      :     0.013347
      py      :     0.028469
      dz2     :     0.000627  d :     0.002258
      dxz     :     0.000482
      dyz     :     0.000664
      dx2y2   :     0.000220
      dxy     :     0.000265


SPIN
  0 O s       :     0.013681  s :     0.013681
      pz      :     0.862606  p :     0.988984
      px      :     0.049599
      py      :     0.076779
      dz2     :     0.001126  d :    -0.003017
      dxz     :    -0.000514
      dyz     :    -0.005067
      dx2y2   :     0.000241
      dxy     :     0.001196
      f0      :    -0.000050  f :    -0.000159
      f+1     :     0.000002
      f-1     :    -0.000127
      f+2     :    -0.000003
      f-2     :    -0.000005
      f+3     :     0.000005
      f-3     :     0.000018

  1 C s       :    -0.007190  s :    -0.007190
      pz      :     0.007694  p :    -0.084811
      px      :    -0.019269
      py      :    -0.073236
      dz2     :     0.004771  d :     0.058924
      dxz     :     0.010758
      dyz     :     0.040725
      dx2y2   :     0.012759
      dxy     :    -0.010089
      f0      :     0.000711  f :     0.004119
      f+1     :     0.000030
      f-1     :     0.000010
      f+2     :     0.001012
      f-2     :     0.000139
      f+3     :     0.002076
      f-3     :     0.000142

  2 C s       :     0.014815  s :     0.014815
      pz      :     0.012892  p :     0.858497
      px      :     0.038429
      py      :     0.807175
      dz2     :     0.000571  d :    -0.012271
      dxz     :    -0.009648
      dyz     :     0.000011
      dx2y2   :    -0.003409
      dxy     :     0.000205
      f0      :    -0.000106  f :    -0.000775
      f+1     :    -0.000205
      f-1     :     0.000094
      f+2     :    -0.000149
      f-2     :    -0.000003
      f+3     :    -0.000408
      f-3     :     0.000002

  3 H s       :     0.053580  s :     0.053580
      pz      :     0.004568  p :     0.010200
      px      :     0.002387
      py      :     0.003244
      dz2     :    -0.000009  d :     0.000000
      dxz     :     0.000021
      dyz     :    -0.000012
      dx2y2   :     0.000004
      dxy     :    -0.000005

  4 H s       :     0.053368  s :     0.053368
      pz      :     0.004524  p :     0.010158
      px      :     0.002370
      py      :     0.003264
      dz2     :    -0.000009  d :     0.000000
      dxz     :     0.000021
      dyz     :    -0.000011
      dx2y2   :     0.000004
      dxy     :    -0.000005

  5 H s       :    -0.008435  s :    -0.008435
      pz      :    -0.000798  p :     0.028407
      px      :     0.003312
      py      :     0.025893
      dz2     :     0.000091  d :     0.001001
      dxz     :     0.000038
      dyz     :     0.000617
      dx2y2   :     0.000020
      dxy     :     0.000235

  6 H s       :    -0.008454  s :    -0.008454
      pz      :    -0.000830  p :     0.028378
      px      :     0.003296
      py      :     0.025912
      dz2     :     0.000091  d :     0.001001
      dxz     :     0.000038
      dyz     :     0.000618
      dx2y2   :     0.000020
      dxy     :     0.000234



                     *******************************
                     * LOEWDIN POPULATION ANALYSIS *
                     *******************************

-------------------------------------------
LOEWDIN ATOMIC CHARGES AND SPIN POPULATIONS
-------------------------------------------
   0 O :    0.095955    0.950728
   1 C :   -0.260401    0.187438
   2 C :    0.180549    0.611717
   3 H :    0.042565    0.048567
   4 H :    0.042473    0.048401
   5 H :   -0.050573    0.076593
   6 H :   -0.050568    0.076557

----------------------------------------------------
LOEWDIN REDUCED ORBITAL CHARGES AND SPIN POPULATIONS
----------------------------------------------------
CHARGE
  0 O s       :     3.444828  s :     3.444828
      pz      :     0.996916  p :     4.145555
      px      :     1.668512
      py      :     1.480126
      dz2     :     0.027935  d :     0.308697
      dxz     :     0.016868
      dyz     :     0.077920
      dx2y2   :     0.071880
      dxy     :     0.114094
      f0      :     0.000557  f :     0.004966
      f+1     :     0.000193
      f-1     :     0.000557
      f+2     :     0.000618
      f-2     :     0.000252
      f+3     :     0.001550
      f-3     :     0.001238

  1 C s       :     2.644793  s :     2.644793
      pz      :     0.893928  p :     2.604211
      px      :     0.930188
      py      :     0.780096
      dz2     :     0.102855  d :     0.911432
      dxz     :     0.185158
      dyz     :     0.102340
      dx2y2   :     0.255690
      dxy     :     0.265388
      f0      :     0.007666  f :     0.099964
      f+1     :     0.007038
      f-1     :     0.011035
      f+2     :     0.011092
      f-2     :     0.006305
      f+3     :     0.031546
      f-3     :     0.025283

  2 C s       :     2.715012  s :     2.715012
      pz      :     0.954309  p :     2.606054
      px      :     0.929159
      py      :     0.722585
      dz2     :     0.075059  d :     0.468516
      dxz     :     0.190709
      dyz     :     0.014034
      dx2y2   :     0.111197
      dxy     :     0.077516
      f0      :     0.003739  f :     0.029868
      f+1     :     0.005579
      f-1     :     0.001590
      f+2     :     0.004634
      f-2     :     0.001258
      f+3     :     0.007248
      f-3     :     0.005821

  3 H s       :     0.676199  s :     0.676199
      pz      :     0.109961  p :     0.251892
      px      :     0.083512
      py      :     0.058420
      dz2     :     0.008949  d :     0.029344
      dxz     :     0.007842
      dyz     :     0.005932
      dx2y2   :     0.003572
      dxy     :     0.003049

  4 H s       :     0.676326  s :     0.676326
      pz      :     0.109857  p :     0.251858
      px      :     0.083486
      py      :     0.058515
      dz2     :     0.008933  d :     0.029343
      dxz     :     0.007828
      dyz     :     0.005934
      dx2y2   :     0.003585
      dxy     :     0.003064

  5 H s       :     0.724056  s :     0.724056
      pz      :     0.121120  p :     0.295416
      px      :     0.082042
      py      :     0.092254
      dz2     :     0.009357  d :     0.031102
      dxz     :     0.008985
      dyz     :     0.007409
      dx2y2   :     0.002609
      dxy     :     0.002742

  6 H s       :     0.724011  s :     0.724011
      pz      :     0.121189  p :     0.295452
      px      :     0.081993
      py      :     0.092270
      dz2     :     0.009373  d :     0.031105
      dxz     :     0.008988
      dyz     :     0.007420
      dx2y2   :     0.002596
      dxy     :     0.002728


SPIN
  0 O s       :     0.027746  s :     0.027746
      pz      :     0.764450  p :     0.897185
      px      :     0.067231
      py      :     0.065504
      dz2     :     0.003749  d :     0.025678
      dxz     :     0.000944
      dyz     :     0.009859
      dx2y2   :     0.000175
      dxy     :     0.010951
      f0      :     0.000101  f :     0.000119
      f+1     :     0.000059
      f-1     :    -0.000090
      f+2     :     0.000051
      f-2     :     0.000026
      f+3     :     0.000005
      f-3     :    -0.000033

  1 C s       :    -0.004103  s :    -0.004103
      pz      :     0.005827  p :    -0.007576
      px      :    -0.008770
      py      :    -0.004633
      dz2     :     0.003631  d :     0.168287
      dxz     :     0.026723
      dyz     :     0.094652
      dx2y2   :     0.033120
      dxy     :     0.010162
      f0      :     0.004950  f :     0.030829
      f+1     :     0.000291
      f-1     :     0.000399
      f+2     :     0.007871
      f-2     :     0.000713
      f+3     :     0.014832
      f-3     :     0.001773

  2 C s       :     0.013411  s :     0.013411
      pz      :     0.012349  p :     0.590991
      px      :     0.017197
      py      :     0.561446
      dz2     :    -0.001304  d :     0.007651
      dxz     :    -0.003870
      dyz     :     0.004833
      dx2y2   :     0.007087
      dxy     :     0.000905
      f0      :    -0.000210  f :    -0.000336
      f+1     :    -0.000462
      f-1     :     0.000098
      f+2     :     0.000114
      f-2     :    -0.000082
      f+3     :     0.000328
      f-3     :    -0.000121

  3 H s       :     0.040647  s :     0.040647
      pz      :     0.001336  p :     0.008502
      px      :    -0.000236
      py      :     0.007401
      dz2     :    -0.000148  d :    -0.000582
      dxz     :    -0.000053
      dyz     :    -0.000214
      dx2y2   :    -0.000016
      dxy     :    -0.000150

  4 H s       :     0.040496  s :     0.040496
      pz      :     0.001329  p :     0.008485
      px      :    -0.000244
      py      :     0.007400
      dz2     :    -0.000148  d :    -0.000580
      dxz     :    -0.000051
      dyz     :    -0.000213
      dx2y2   :    -0.000016
      dxy     :    -0.000151

  5 H s       :    -0.011663  s :    -0.011663
      pz      :     0.003135  p :     0.078218
      px      :     0.002361
      py      :     0.072722
      dz2     :     0.000425  d :     0.010037
      dxz     :     0.000471
      dyz     :     0.006695
      dx2y2   :     0.000069
      dxy     :     0.002378

  6 H s       :    -0.011660  s :    -0.011660
      pz      :     0.003123  p :     0.078182
      px      :     0.002351
      py      :     0.072708
      dz2     :     0.000430  d :     0.010036
      dxz     :     0.000470
      dyz     :     0.006703
      dx2y2   :     0.000067
      dxy     :     0.002366



                      *****************************
                      * MAYER POPULATION ANALYSIS *
                      *****************************

  NA   - Mulliken gross atomic population
  ZA   - Total nuclear charge
  QA   - Mulliken gross atomic charge
  VA   - Mayer's total valence
  BVA  - Mayer's bonded valence
  FA   - Mayer's free valence

  ATOM       NA         ZA         QA         VA         BVA        FA
  0 O      8.2954     8.0000    -0.2954     1.8794     1.1001     0.7794
  1 C      5.9363     6.0000     0.0637     3.4206     3.4045     0.0161
  2 C      6.6506     6.0000    -0.6506     3.4269     2.7408     0.6861
  3 H      0.7994     1.0000     0.2006     1.0328     1.0304     0.0024
  4 H      0.7994     1.0000     0.2006     1.0329     1.0305     0.0024
  5 H      0.7594     1.0000     0.2406     0.9962     0.9950     0.0012
  6 H      0.7595     1.0000     0.2405     0.9962     0.9950     0.0012

  Mayer bond orders larger than 0.100000
B(  0-O ,  1-C ) :   0.8521 B(  0-O ,  2-C ) :   0.1560 B(  1-C ,  2-C ) :   0.6521 
B(  1-C ,  3-H ) :   0.9849 B(  1-C ,  4-H ) :   0.9851 B(  2-C ,  5-H ) :   0.9957 
B(  2-C ,  6-H ) :   0.9958 

-------
TIMINGS
-------

Total SCF time: 0 days 0 hours 0 min 5 sec 

Total time                  ....       5.677 sec
Sum of individual times     ....       5.662 sec  ( 99.7%)

SCF preparation             ....       0.424 sec  (  7.5%)
Fock matrix formation       ....       4.640 sec  ( 81.7%)
  Startup                   ....       0.030 sec  (  0.7% of F)
  Split-RI-J                ....       0.198 sec  (  4.3% of F)
  Chain of spheres X        ....       2.933 sec  ( 63.2% of F)
  XC integration            ....       1.361 sec  ( 29.3% of F)
    XC Preparation          ....       0.000 sec  (  0.0% of XC)
    Basis function eval.    ....       0.090 sec  (  6.6% of XC)
    Density eval.           ....       0.391 sec  ( 28.8% of XC)
    XC-Functional eval.     ....       0.039 sec  (  2.8% of XC)
    XC-Potential eval.      ....       0.668 sec  ( 49.1% of XC)
Diagonalization             ....       0.000 sec  (  0.0%)
Density matrix formation    ....       0.074 sec  (  1.3%)
Total Energy calculation    ....       0.050 sec  (  0.9%)
Population analysis         ....       0.022 sec  (  0.4%)
Orbital Transformation      ....       0.044 sec  (  0.8%)
Orbital Orthonormalization  ....       0.000 sec  (  0.0%)
DIIS solution               ....       0.282 sec  (  5.0%)
SOSCF solution              ....       0.124 sec  (  2.2%)
Finished LeanSCF after   5.7 sec

Maximum memory used throughout the entire LEANSCF-calculation: 14.8 MB
[1740996930.022677] [ohm:3147588:0]        ib_iface.c:1059 UCX  ERROR ibv_create_cq(cqe=256) failed: Connection timed out
[1740996930.022967] [ohm:3147590:0]        ib_iface.c:1059 UCX  ERROR ibv_create_cq(cqe=256) failed: Connection timed out
[1740996930.048750] [ohm:3147597:0]        ib_iface.c:1059 UCX  ERROR ibv_create_cq(cqe=256) failed: Connection timed out
[1740996930.049357] [ohm:3147600:0]        ib_iface.c:1059 UCX  ERROR ibv_create_cq(cqe=256) failed: Connection timed out
[1740996930.050537] [ohm:3147589:0]        ib_iface.c:1059 UCX  ERROR ibv_create_cq(cqe=256) failed: Connection timed out
[1740996930.050804] [ohm:3147587:0]        ib_iface.c:1059 UCX  ERROR ibv_create_cq(cqe=256) failed: Connection timed out
[1740996930.051534] [ohm:3147593:0]        ib_iface.c:1059 UCX  ERROR ibv_create_cq(cqe=256) failed: Connection timed out
[1740996930.051932] [ohm:3147591:0]        ib_iface.c:1059 UCX  ERROR ibv_create_cq(cqe=256) failed: Connection timed out
[1740996930.053620] [ohm:3147592:0]        ib_iface.c:1059 UCX  ERROR ibv_create_cq(cqe=256) failed: Connection timed out
[1740996930.060482] [ohm:3147599:0]        ib_iface.c:1059 UCX  ERROR ibv_create_cq(cqe=256) failed: Connection timed out
[1740996930.063373] [ohm:3147607:0]        ib_iface.c:1059 UCX  ERROR ibv_create_cq(cqe=256) failed: Connection timed out
[1740996930.063444] [ohm:3147615:0]        ib_iface.c:1059 UCX  ERROR ibv_create_cq(cqe=256) failed: Connection timed out
[1740996930.064268] [ohm:3147594:0]        ib_iface.c:1059 UCX  ERROR ibv_create_cq(cqe=256) failed: Connection timed out
[1740996930.066608] [ohm:3147613:0]        ib_iface.c:1059 UCX  ERROR ibv_create_cq(cqe=256) failed: Connection timed out
[1740996930.066604] [ohm:3147595:0]        ib_iface.c:1059 UCX  ERROR ibv_create_cq(cqe=256) failed: Connection timed out
[1740996930.066742] [ohm:3147602:0]        ib_iface.c:1059 UCX  ERROR ibv_create_cq(cqe=256) failed: Connection timed out


           ************************************************************
           *        Program running with 16 parallel MPI-processes    *
           *              working on a common directory               *
           ************************************************************

------------------------------------------------------------------------------
                         ORCA PROPERTY INTEGRAL CALCULATIONS
------------------------------------------------------------------------------

GBWName                                   ... orca.gbw
Number of atoms                           ...      7
Number of basis functions                 ...    182
Max core memory                           ...   1024 MB

Dipole integrals                          ... YES
Quadrupole integrals                      ...  NO
Linear momentum integrals                 ... YES
Angular momentum integrals                ... YES
Higher moments length integrals           ...  NO
Higher moments velocity integrals         ...  NO
Kinetic energy integrals                  ...  NO
GIAO right hand sides                     ...  NO
GIAO dipole derivative integrals          ...  NO
SOC integrals                             ...  NO
EPR diamagnetic integrals (GIAO)          ...  NO
EPR gauge integrals                       ...  NO
Field gradient integrals                  ...  NO (   0 nuclei)
Spin-dipole/Fermi contact integrals       ...  NO (   0 nuclei)
Contact density integrals                 ...  NO (   0 nuclei)
Nucleus-orbit integrals                   ...  NO (   0 nuclei)
Geometric perturbations                   ...  NO (   7 nuclei)

Choice of electric origin   ... Center of mass
Position of electric origin ... (  0.1619,  0.0556, -0.0015) 
Choice of magnetic origin   ... GIAO
Position of magnetic origin ... (  0.0000,  0.0000,  0.0000) 

Calculating integrals                     ... Electric Dipole (Length)     done (  0.0 sec)
Calculating integrals                     ... Linear Momentum              done (  0.0 sec)
Calculating integrals                     ... Angular Momentum  (ElOri)    done (  0.0 sec)

Property integrals calculated in   0.0 sec

Maximum memory used throughout the entire PROPINT-calculation: 10.4 MB
[1740996930.707002] [ohm:3147671:0]        ib_iface.c:1059 UCX  ERROR ibv_create_cq(cqe=256) failed: Connection timed out
[1740996930.707066] [ohm:3147673:0]        ib_iface.c:1059 UCX  ERROR ibv_create_cq(cqe=256) failed: Connection timed out
[1740996930.707370] [ohm:3147675:0]        ib_iface.c:1059 UCX  ERROR ibv_create_cq(cqe=256) failed: Connection timed out
[1740996930.709616] [ohm:3147670:0]        ib_iface.c:1059 UCX  ERROR ibv_create_cq(cqe=256) failed: Connection timed out
[1740996930.714828] [ohm:3147677:0]        ib_iface.c:1059 UCX  ERROR ibv_create_cq(cqe=256) failed: Connection timed out
[1740996930.722439] [ohm:3147680:0]        ib_iface.c:1059 UCX  ERROR ibv_create_cq(cqe=256) failed: Connection timed out
[1740996930.724313] [ohm:3147676:0]        ib_iface.c:1059 UCX  ERROR ibv_create_cq(cqe=256) failed: Connection timed out
[1740996930.724312] [ohm:3147678:0]        ib_iface.c:1059 UCX  ERROR ibv_create_cq(cqe=256) failed: Connection timed out
[1740996930.725522] [ohm:3147674:0]        ib_iface.c:1059 UCX  ERROR ibv_create_cq(cqe=256) failed: Connection timed out
[1740996930.727556] [ohm:3147682:0]        ib_iface.c:1059 UCX  ERROR ibv_create_cq(cqe=256) failed: Connection timed out
[1740996930.727981] [ohm:3147672:0]        ib_iface.c:1059 UCX  ERROR ibv_create_cq(cqe=256) failed: Connection timed out
[1740996930.729258] [ohm:3147683:0]        ib_iface.c:1059 UCX  ERROR ibv_create_cq(cqe=256) failed: Connection timed out
[1740996930.738209] [ohm:3147689:0]        ib_iface.c:1059 UCX  ERROR ibv_create_cq(cqe=256) failed: Connection timed out
[1740996930.740705] [ohm:3147699:0]        ib_iface.c:1059 UCX  ERROR ibv_create_cq(cqe=256) failed: Connection timed out
[1740996930.741286] [ohm:3147685:0]        ib_iface.c:1059 UCX  ERROR ibv_create_cq(cqe=256) failed: Connection timed out
[1740996930.774174] [ohm:3147694:0]        ib_iface.c:1059 UCX  ERROR ibv_create_cq(cqe=256) failed: Connection timed out


           ************************************************************
           *        Program running with 16 parallel MPI-processes    *
           *              working on a common directory               *
           ************************************************************
------------------------------------------------------------------------------
                        ORCA TD-DFT/TDA CALCULATION
------------------------------------------------------------------------------

Input orbitals are from        ... orca.gbw
CI-vector output               ... orca.cis
Solver                         ... FN-2001
Tamm-Dancoff approximation     ... operative
CIS-Integral strategy          ... AO-integrals
Integral handling              ... AO integral Direct
Max. core memory used          ... 512 MB
Reference state                ... UHF
Follow IRoot                   ... off
Number of operators            ... 2
Orbital ranges used for CIS calculation:
 Operator 0:  Orbitals   3... 12  to  11...181

-------------------
XC-INTEGRATION GRID
-------------------

General Integration Accuracy     IntAcc      ... 3.467
Radial Grid Type                 RadialGrid  ... OptM3 with GC (2021)
Angular Grid (max. ang.)         AngularGrid ... 1 (Lebedev-50)
Angular grid pruning method      GridPruning ... 4 (adaptive)
Weight generation scheme         WeightScheme... mBecke (2022)
Basis function cutoff            BFCut       ... 1.0000e-11
Integration weight cutoff        WCut        ... 1.0000e-14
Partially contracted basis set               ... off
Rotationally invariant grid construction     ... off
Angular grids for H and He will be reduced by one unit
Diffuse basis detected: some atoms will have their outermost
                        angular grid increased by 1.

Total number of grid points                  ...     4740
Total number of batches                      ...       78
Average number of points per batch           ...       60
Average number of grid points per atom       ...      677

---------------------
COSX-INTEGRATION GRID
---------------------

General Integration Accuracy     IntAcc      ... 3.067
Radial Grid Type                 RadialGrid  ... OptM3 with GC (2021)
Angular Grid (max. ang.)         AngularGrid ... 1 (Lebedev-50)
Angular grid pruning method      GridPruning ... 4 (adaptive)
Weight generation scheme         WeightScheme... mBecke (2022)
Basis function cutoff            BFCut       ... 1.0000e-11
Integration weight cutoff        WCut        ... 1.0000e-14
Partially contracted basis set               ... on
Rotationally invariant grid construction     ... off
Angular grids for H and He will be reduced by one unit
Diffuse basis detected: some atoms will have their outermost
                        angular grid increased by 1.

Total number of grid points                  ...     2156
Total number of batches                      ...       22
Average number of points per batch           ...       98
Average number of grid points per atom       ...      308

---------------
TD-DFT XC SETUP
---------------

DFT calculation                         ... on
Name of the grid file                   ... orca.grid_cis.tmp
RI-approximation                        ... on
Aux-basis dimension                     ... 0
Functional (TD-DFT)
  Functional kind                       .... Exchange-Correlation
  Functional name                       .... wB97M-V exchange-correlation functional
  Functional family                     .... Hybrid MGGA
  Functional refs                              
    [ 0] N. Mardirossian and M. Head-Gordon.,  J. Chem. Phys. 144, 214110 (2016), doi: 10.1063/1.4952647
  Fraction of HF Exchange (short range) .... 0.1500
  Fraction of HF Exchange (long range)  .... 1.0000
  Range separation parameter mu         .... 0.3000
  Functional external parameters        .... 17
    Parameter  0 _cx00      =  8.500000e-01 : u^00 coefficient for exchange
    Parameter  1 _cx01      =  1.007000e+00 : u^01 coefficient for exchange
    Parameter  2 _cx10      =  2.590000e-01 : u^10 coefficient for exchange
    Parameter  3 _css00     =  4.430000e-01 : u^00 coefficient for same-spin correlation
    Parameter  4 _css04     = -1.437000e+00 : u^04 coefficient for same-spin correlation
    Parameter  5 _css10     = -4.535000e+00 : u^10 coefficient for same-spin correlation
    Parameter  6 _css20     = -3.390000e+00 : u^20 coefficient for same-spin correlation
    Parameter  7 _css43     =  4.278000e+00 : u^43 coefficient for same-spin correlation
    Parameter  8 _cos00     =  1.000000e+00 : u^00 coefficient for opposite-spin correlation
    Parameter  9 _cos10     =  1.358000e+00 : u^10 coefficient for opposite-spin correlation
    Parameter 10 _cos20     =  2.924000e+00 : u^20 coefficient for opposite-spin correlation
    Parameter 11 _cos21     = -8.812000e+00 : u^21 coefficient for opposite-spin correlation
    Parameter 12 _cos60     = -1.390000e+00 : u^60 coefficient for opposite-spin correlation
    Parameter 13 _cos61     =  9.142000e+00 : u^61 coefficient for opposite-spin correlation
    Parameter 14 _alpha     =  1.000000e+00 : fraction of HF exchange
    Parameter 15 _beta      = -8.500000e-01 : fraction of short-range exchange
    Parameter 16 _omega     =  3.000000e-01 : range-separation constant
Hybrid DFT                              ... on
   Exchange mixing (TD-DFT)             ...  0.150
   GGA exch. scaling (TD-DFT)           ...  0.000
   GGA corr. scaling (TD-DFT)           ...  1.000
Range-Separated Exchange                ... on
   Range Range separation parameter mu  .... 0.300
   Max. amount of RS exchange (TD-DFT)  ...  0.850

Building densities             ... done
Calculating rho(r) on the grid ... done
Building xc-kernel on the grid ... done
                    *** TD-DFT CALCULATION INITIALIZED ***

------------------------
DAVIDSON-DIAGONALIZATION
------------------------

Dimension of the eigenvalue problem            ...   1710
Number of roots to be determined               ...      2
Maximum size of the expansion space            ...     20
Maximum number of iterations                   ...    100
Convergence tolerance for the residual         ...    2.500e-07
Convergence tolerance for the energies         ...    2.500e-07
Orthogonality tolerance                        ...    1.000e-14
Level Shift                                    ...    0.000e+00
Constructing the preconditioner                ... o.k.
Building the initial guess                     ... o.k.
Number of trial vectors determined             ...     20


                       ****Iteration    0****
   Time for iteration     :  TOTAL=0.2 TRAFO=0.0 COSX=0.2
   Size of expansion space: 6
   Lowest Energy          :    -0.026626638223
   Maximum Energy change  :     0.062949221134 (vector 1)
   Maximum residual norm  :     0.005083205333

                       ****Iteration    1****
   Time for iteration     :  TOTAL=0.1 TRAFO=0.0 COSX=0.1
   Size of expansion space: 8
   Lowest Energy          :    -0.033647591585
   Maximum Energy change  :     0.024595708348 (vector 1)
   Maximum residual norm  :     0.000521084724

                       ****Iteration    2****
   Time for iteration     :  TOTAL=0.1 TRAFO=0.0 COSX=0.1
   Size of expansion space: 10
   Lowest Energy          :    -0.033925128067
   Maximum Energy change  :     0.001415518515 (vector 1)
   Maximum residual norm  :     0.000025779663

                       ****Iteration    3****
   Time for iteration     :  TOTAL=0.1 TRAFO=0.0 COSX=0.1
   Size of expansion space: 12
   Lowest Energy          :    -0.033933505163
   Maximum Energy change  :     0.000057132541 (vector 1)
   Maximum residual norm  :     0.000002295079

                       ****Iteration    4****
   Time for iteration     :  TOTAL=0.1 TRAFO=0.0 RIJ=0.0 COSX=0.1
   Size of expansion space: 14
   Lowest Energy          :    -0.033933657586
   Maximum Energy change  :     0.000003678262 (vector 1)
   Maximum residual norm  :     0.000000160473

      *** CONVERGENCE OF RESIDUAL NORM REACHED ***

Storing the converged CI vectors               ... orca.cis3

                 *** DAVIDSON DONE ***

Total time for solving the CIS problem:     0.752sec

---------------------
SF-TDA EXCITED STATES
---------------------

the weight of the individual excitations are printed if larger than 1.0e-02

UHF/UKS reference: multiplicity estimated based on rounded <S**2> value, RELEVANCE IS LIMITED!

(SPIN-FLIP GROUND STATE)
STATE  1:  E=  -0.033934 au     -0.923 eV    -7447.6 cm**-1 <S**2> =   0.192131 Mult 1
     7a ->  11b  :     0.011716 (c= -0.10824087)
    11a ->  11b  :     0.100261 (c= -0.31664078)
    12a ->  11b  :     0.874965 (c= -0.93539590)

STATE  2:  E=   0.036877 au      1.003 eV     8093.6 cm**-1 <S**2> =   1.058932 Mult 3
    12a ->  12b  :     0.857167 (c= -0.92583294)
    12a ->  14b  :     0.015585 (c= -0.12483935)
    12a ->  16b  :     0.055007 (c=  0.23453570)
    12a ->  18b  :     0.021949 (c=  0.14815153)
    12a ->  21b  :     0.023218 (c= -0.15237612)


-----------------------------
TD-DFT/TDA-EXCITATION SPECTRA
-----------------------------

Center of mass = (  0.1619,  0.0556, -0.0015)
Generating CIS-Spin-flip transition densities           ... done

UHF/UKS reference: multiplicity estimated based on rounded <S**2> value, use it judiciously!

----------------------------------------------------------------------------------------------------
          SPIN FLIP ABSORPTION SPECTRUM VIA TRANSITION ELECTRIC DIPOLE MOMENTS    
----------------------------------------------------------------------------------------------------
     Transition      Energy     Energy  Wavelength fosc(D2)      D2        DX        DY        DZ   
                      (eV)      (cm-1)    (nm)                 (au**2)    (au)      (au)      (au)  
----------------------------------------------------------------------------------------------------
  1-3A  ->  2-3A    1.926861   15541.2   643.5   0.000499633   0.01058   0.00034   0.00052   0.10288

----------------------------------------------------------------------------------------------------
          SPIN FLIP ABSORPTION SPECTRUM VIA TRANSITION VELOCITY DIPOLE MOMENTS    
----------------------------------------------------------------------------------------------------
     Transition      Energy     Energy  Wavelength fosc(P2)      P2        PX        PY        PZ   
                      (eV)      (cm-1)    (nm)                 (au**2)    (au)      (au)      (au)  
----------------------------------------------------------------------------------------------------
  1-3A  ->  2-3A    1.926861   15541.2   643.5   0.000649499   0.00007   0.00003   0.00007   0.00831

------------------------------------------------------------------------------------------
          SPIN FLIP CD SPECTRUM VIA TRANSITION ELECTRIC DIPOLE MOMENTS    
------------------------------------------------------------------------------------------
     Transition      Energy     Energy  Wavelength    R        MX        MY        MZ   
                      (eV)      (cm-1)    (nm)   (1e40*cgs)   (au)      (au)      (au)  
------------------------------------------------------------------------------------------
  1-3A  ->  2-3A    1.926861   15541.2   643.5   -0.00726   0.04836   0.03032  -0.00016

[...]
      f+1     :     0.000013
      f-1     :    -0.000046
      f+2     :     0.000117
      f-2     :    -0.000062
      f+3     :    -0.002716
      f-3     :     0.000728
  2 C s       :     0.000067  s :     0.000067
      pz      :     0.003586  p :     0.189622
      px      :     0.005791
      py      :     0.180245
      dz2     :    -0.002355  d :    -0.010284
      dxz     :     0.000137
      dyz     :    -0.004643
      dx2y2   :    -0.003295
      dxy     :    -0.000128
      f0      :    -0.000049  f :    -0.000382
      f+1     :    -0.000184
      f-1     :     0.000111
      f+2     :    -0.000060
      f-2     :    -0.000053
      f+3     :    -0.000236
      f-3     :     0.000089
  3 H s       :     0.008711  s :     0.008711
      pz      :     0.000001  p :    -0.002297
      px      :    -0.000191
      py      :    -0.002107
      dz2     :    -0.000043  d :    -0.000109
      dxz     :     0.000023
      dyz     :    -0.000028
      dx2y2   :    -0.000032
      dxy     :    -0.000030
  4 H s       :     0.008668  s :     0.008668
      pz      :     0.000008  p :    -0.002301
      px      :    -0.000190
      py      :    -0.002119
      dz2     :    -0.000043  d :    -0.000108
      dxz     :     0.000024
      dyz     :    -0.000028
      dx2y2   :    -0.000032
      dxy     :    -0.000030
  5 H s       :    -0.004729  s :    -0.004729
      pz      :     0.001344  p :     0.019286
      px      :     0.000983
      py      :     0.016958
      dz2     :     0.000222  d :     0.003573
      dxz     :     0.000194
      dyz     :     0.002310
      dx2y2   :     0.000010
      dxy     :     0.000837
  6 H s       :    -0.004732  s :    -0.004732
      pz      :     0.001344  p :     0.019301
      px      :     0.000980
      py      :     0.016976
      dz2     :     0.000227  d :     0.003574
      dxz     :     0.000193
      dyz     :     0.002312
      dx2y2   :     0.000007
      dxy     :     0.000835


                      *****************************
                      * MAYER POPULATION ANALYSIS *
                      *****************************

  NA   - Mulliken gross atomic population
  ZA   - Total nuclear charge
  QA   - Mulliken gross atomic charge
  VA   - Mayer's total valence
  BVA  - Mayer's bonded valence
  FA   - Mayer's free valence

  ATOM       NA         ZA         QA         VA         BVA        FA
  0 O      8.5309     8.0000    -0.5309     1.5213     1.6218    -0.1005
  1 C      6.1336     6.0000    -0.1336     3.6176     3.5403     0.0773
  2 C      6.2934     6.0000    -0.2934     3.3909     3.4199    -0.0290
  3 H      0.7655     1.0000     0.2345     1.1058     1.0987     0.0072
  4 H      0.7654     1.0000     0.2346     1.1058     1.0987     0.0071
  5 H      0.7556     1.0000     0.2444     0.9224     0.9194     0.0029
  6 H      0.7556     1.0000     0.2444     0.9223     0.9194     0.0030

  Mayer bond orders larger than 0.100000
B(  0-O ,  1-C ) :   0.7466 B(  0-O ,  2-C ) :   0.8439 B(  1-C ,  2-C ) :   0.7760 
B(  1-C ,  3-H ) :   1.0239 B(  1-C ,  4-H ) :   1.0237 B(  2-C ,  5-H ) :   0.9394 
B(  2-C ,  6-H ) :   0.9395 


-------
TIMINGS
-------

Total TD-DFT gradient time  ....        5.272 sec

Fock matrix formation       ....       1.188 sec  ( 22.5%)
  Coulomb formation         ....       0.926 sec  ( 77.9% of F)
  XC integration            ....       0.262 sec  ( 22.1% of F)
Z-vector equation           ....       1.481 sec  ( 28.1%)
Densities                   ....       0.000 sec  (  0.0%)
One electron gradient       ....       0.009 sec  (  0.2%)
RI-J Coulomb gradient       ....       0.096 sec  (  1.8%)
COSX gradient               ....       0.453 sec  (  8.6%)
XC gradient                 ....       1.836 sec  ( 34.8%)

Maximum memory used throughout the entire CIS-calculation: 35.8 MB
=> NOW LEAVING ORCA_CIS


-------------------------------------------------------------------------------
                          DFT DISPERSION CORRECTION                            
                                                                               
                              DFTD3 V3.1  Rev 1                                
                          USING Becke-Johnson damping                          
-------------------------------------------------------------------------------
The WB97M functional is recognized
Active option DFTDOPT                   ...         4   

molecular C6(AA) [au] = 391.647234 


            DFT-D V3
 parameters
 s6 scaling factor         :     1.0000 
 a1 scaling factor         :     0.5660 
 s8 scaling factor         :     0.3908 
 a2 scaling factor         :     3.1280 
 ad hoc parameters k1-k3   :    16.0000     1.3333    -4.0000 

 Edisp/kcal,au: -3.559471555412  -0.005672378383 
 E6   /kcal   :  -2.866779097 
 E8   /kcal   :  -0.692692459 
 % E8         :  19.460542046 

-------------------------   ----------------
Dispersion correction           -0.005672378
-------------------------   ----------------


-------------------------   --------------------
FINAL SINGLE POINT ENERGY      -153.798763244561
-------------------------   --------------------

[1740996937.577059] [ohm:3147778:0]        ib_iface.c:1059 UCX  ERROR ibv_create_cq(cqe=256) failed: Connection timed out
[1740996937.581723] [ohm:3147776:0]        ib_iface.c:1059 UCX  ERROR ibv_create_cq(cqe=256) failed: Connection timed out
[1740996937.584066] [ohm:3147777:0]        ib_iface.c:1059 UCX  ERROR ibv_create_cq(cqe=256) failed: Connection timed out
[1740996937.584071] [ohm:3147779:0]        ib_iface.c:1059 UCX  ERROR ibv_create_cq(cqe=256) failed: Connection timed out
[1740996937.584464] [ohm:3147780:0]        ib_iface.c:1059 UCX  ERROR ibv_create_cq(cqe=256) failed: Connection timed out
[1740996937.586832] [ohm:3147782:0]        ib_iface.c:1059 UCX  ERROR ibv_create_cq(cqe=256) failed: Connection timed out
[1740996937.586822] [ohm:3147786:0]        ib_iface.c:1059 UCX  ERROR ibv_create_cq(cqe=256) failed: Connection timed out
[1740996937.587780] [ohm:3147781:0]        ib_iface.c:1059 UCX  ERROR ibv_create_cq(cqe=256) failed: Connection timed out
[1740996937.588172] [ohm:3147783:0]        ib_iface.c:1059 UCX  ERROR ibv_create_cq(cqe=256) failed: Connection timed out
[1740996937.588217] [ohm:3147775:0]        ib_iface.c:1059 UCX  ERROR ibv_create_cq(cqe=256) failed: Connection timed out
[1740996937.590673] [ohm:3147787:0]        ib_iface.c:1059 UCX  ERROR ibv_create_cq(cqe=256) failed: Connection timed out
[1740996937.598554] [ohm:3147804:0]        ib_iface.c:1059 UCX  ERROR ibv_create_cq(cqe=256) failed: Connection timed out
[1740996937.598793] [ohm:3147789:0]        ib_iface.c:1059 UCX  ERROR ibv_create_cq(cqe=256) failed: Connection timed out
[1740996937.598988] [ohm:3147796:0]        ib_iface.c:1059 UCX  ERROR ibv_create_cq(cqe=256) failed: Connection timed out
[1740996937.600731] [ohm:3147800:0]        ib_iface.c:1059 UCX  ERROR ibv_create_cq(cqe=256) failed: Connection timed out
[1740996937.600739] [ohm:3147791:0]        ib_iface.c:1059 UCX  ERROR ibv_create_cq(cqe=256) failed: Connection timed out


           ************************************************************
           *        Program running with 16 parallel MPI-processes    *
           *              working on a common directory               *
           ************************************************************

------------------------------------------------------------------------------
                              ORCA PROPERTY CALCULATIONS
------------------------------------------------------------------------------

GBWName                                 ... orca.gbw
Number of atoms                         ...      7
Number of basis functions               ...    182
Max core memory                         ...   1024 MB

Electric properties:
Dipole moment                           ... YES
Quadrupole moment                       ...  NO
Static polarizability (Dipole/Dipole)   ...  NO
Static polarizability (Dipole/Quad.)    ...  NO
Static polarizability (Quad./Quad.)     ...  NO
Static polarizability (Velocity)        ...  NO

Atomic electric properties:
Dipole moment                           ...  NO
Quadrupole moment                       ...  NO
Static polarizability                   ...  NO

Choice of electric origin               ... Center of mass
Position of electric origin             ...     0.161851     0.055600    -0.001502

General magnetic properties:
Magnetizability                         ...  NO

EPR properties:
g-Tensor (aka g-matrix)                 ...  NO
Zero-Field splitting spin-orbit         ...  NO
Zero-field splitting spin-spin          ...  NO
Hyperfine couplings                     ...  NO (   0 nuclei)
Quadrupole couplings                    ...  NO (   0 nuclei)
Contact density                         ...  NO (   0 nuclei)

NMR properties:
Chemical shifts                         ...  NO (   0 nuclei)
Spin-rotation constants                 ...  NO (   0 nuclei)
Spin-spin couplings                     ...  NO (   0 nuclei,    0 pairs)

Choice of magnetic origin               ... GIAO
Position of magnetic origin             ...     0.000000     0.000000     0.000000

Properties with geometric perturbations:
SCF Hessian                             ...  NO
IR spectrum                             ...  NO
VCD spectrum                            ...  NO
X-ray spectroscopy properties:
SCF XES/XAS/RIXS spectra                ...  NO


-------------
DIPOLE MOMENT
-------------

Method             : SCF
Type of density    : Electron Density
Multiplicity       :   3
Irrep              :   0
Energy             :  -153.7591572085921428 Eh
Relativity type    : 
Basis              : AO
                                X                 Y                 Z
Electronic contribution:      0.850388244       2.181806014      -0.004281144
Nuclear contribution   :     -0.524370549      -2.648216661       0.005121155
                        -----------------------------------------
Total Dipole Moment    :      0.326017694      -0.466410646       0.000840011
                        -----------------------------------------
Magnitude (a.u.)       :      0.569058111
Magnitude (Debye)      :      1.446430768



--------------------
Rotational spectrum 
--------------------
 
Rotational constants in cm-1:             1.102992             0.475792             0.382245 
Rotational constants in MHz :         33066.872593         14263.891040         11459.430045 

Dipole components along the rotational axes: 
x,y,z [a.u.] :    -0.183667     0.538603     0.000231 
x,y,z [Debye]:    -0.466844     1.369021     0.000588 

 

-------------
DIPOLE MOMENT
-------------

Method             : TDA/CIS
Type of density    : Electron Density
Level              : Relaxed density
State              :   1
Multiplicity       :   3
Irrep              :   0
Energy             :     0.0000000000000000 Eh
Relativity type    : 
Basis              : AO
                                X                 Y                 Z
Electronic contribution:      0.004371637       1.215976124      -0.002597434
Nuclear contribution   :     -0.524370549      -2.648216661       0.005121155
                        -----------------------------------------
Total Dipole Moment    :     -0.519998913      -1.432240537       0.002523720
                        -----------------------------------------
Magnitude (a.u.)       :      1.523718541
Magnitude (Debye)      :      3.872984741



--------------------
Rotational spectrum 
--------------------
 
Rotational constants in cm-1:             1.102992             0.475792             0.382245 
Rotational constants in MHz :         33066.872593         14263.891040         11459.430045 

Dipole components along the rotational axes: 
x,y,z [a.u.] :    -1.462750     0.426708     0.000096 
x,y,z [Debye]:    -3.718015     1.084607     0.000243 

 

Dipole moment calculation done in   0.0 sec 

Maximum memory used throughout the entire PROP-calculation: 7.6 MB
[1740996938.222110] [ohm:3147878:0]        ib_iface.c:1059 UCX  ERROR ibv_create_cq(cqe=256) failed: Connection timed out
[1740996938.223569] [ohm:3147876:0]        ib_iface.c:1059 UCX  ERROR ibv_create_cq(cqe=256) failed: Connection timed out
[1740996938.224357] [ohm:3147880:0]        ib_iface.c:1059 UCX  ERROR ibv_create_cq(cqe=256) failed: Connection timed out
[1740996938.234478] [ohm:3147875:0]        ib_iface.c:1059 UCX  ERROR ibv_create_cq(cqe=256) failed: Connection timed out
[1740996938.234534] [ohm:3147873:0]        ib_iface.c:1059 UCX  ERROR ibv_create_cq(cqe=256) failed: Connection timed out
[1740996938.234532] [ohm:3147879:0]        ib_iface.c:1059 UCX  ERROR ibv_create_cq(cqe=256) failed: Connection timed out
[1740996938.234662] [ohm:3147877:0]        ib_iface.c:1059 UCX  ERROR ibv_create_cq(cqe=256) failed: Connection timed out
[1740996938.240119] [ohm:3147874:0]        ib_iface.c:1059 UCX  ERROR ibv_create_cq(cqe=256) failed: Connection timed out
[1740996938.245200] [ohm:3147896:0]        ib_iface.c:1059 UCX  ERROR ibv_create_cq(cqe=256) failed: Connection timed out
[1740996938.253599] [ohm:3147902:0]        ib_iface.c:1059 UCX  ERROR ibv_create_cq(cqe=256) failed: Connection timed out
[1740996938.253640] [ohm:3147884:0]        ib_iface.c:1059 UCX  ERROR ibv_create_cq(cqe=256) failed: Connection timed out
[1740996938.261434] [ohm:3147885:0]        ib_iface.c:1059 UCX  ERROR ibv_create_cq(cqe=256) failed: Connection timed out
[1740996938.261483] [ohm:3147892:0]        ib_iface.c:1059 UCX  ERROR ibv_create_cq(cqe=256) failed: Connection timed out
[1740996938.261553] [ohm:3147888:0]        ib_iface.c:1059 UCX  ERROR ibv_create_cq(cqe=256) failed: Connection timed out
[1740996938.261639] [ohm:3147881:0]        ib_iface.c:1059 UCX  ERROR ibv_create_cq(cqe=256) failed: Connection timed out
[1740996938.261639] [ohm:3147900:0]        ib_iface.c:1059 UCX  ERROR ibv_create_cq(cqe=256) failed: Connection timed out

--------------------------------
SUGGESTED CITATIONS FOR THIS RUN
--------------------------------

Below you find a list of papers that are relevant to this ORCA run
We neither can nor want to force you to cite these papers, but we appreciate if you do
You receive ORCA, which is the product of decades of hard work by many enthusiastic individuals, for free
The only thing we kindly ask in return is that you cite our papers,
We deeply appreciate it, if you show your appreciation for ORCA by not just citing the generic ORCA reference.

Please note that relegating all ORCA citations to the supporting information does *not* help us.
SI sections are not indexed - citations you put there will not count into any citation statistics
But we need these citations in order to attract the funding resources that allow us to do what we are doing

Therefore, if you are a happy ORCA user, please consider citing a few of the papers listed below in the main body of your paper

In addition to the list printed below, the program has created the file orca.bibtex that contains the list in bibtex format
You can import this file easily into all common literature databanks and citation aid programs


List of essential papers. We consider these as the minimum necessary citations

  1. Neese,F.
     Software update: the ORCA program system, version 5.0
     WIRES Comput. Molec. Sci., 2022 12(1)e1606
     doi.org/10.1002/wcms.1606

List of papers to cite with high priority. The work reported in these papers was absolutely
necessary for this run to complete.
Our perspective: the developers of density functionals and basis sets usually get cited in chemistry papers
Good! But without the algorithms to do something with them, the functionals or basis sets would not do anything.
Hence, in our opinion, the algorithm design and method developments papers are equally worthy of getting cited

  1. Neese,F.; Olbrich,G.
     Efficient use of the resolution of the identity approximation in time-dependent density functional calculations with hybrid density functionals
     Chem. Phys. Lett., 2002 362 170-178
     doi.org/10.1016/s0009-2614(02)01053-9
  2. Neese,F.
     An improvement of the resolution of the identity approximation for the formation of the Coulomb matrix
     J. Comp. Chem., 2003 24(14)1740-1747
     doi.org/10.1002/jcc.10318
  3. Neese,F.; Wennmohs,F.; Hansen,A.; Becker,U.
     Efficient, approximate and parallel Hartree-Fock and hybrid DFT calculations. A 'chain-of-spheres' algorithm for the Hartree-Fock exchange
     Chem. Phys., 2009 356(1-3)98-109
     doi.org/10.1016/j.chemphys.2008.10.036
  4. Petrenko,T.; Kossmann,S.; Neese,F.
     Efficient time-dependent density functional theory approximations for hybrid density functionals: Analytical gradients and parallelization
     J. Chem. Phys., 2011 134 054116
     doi.org/10.1063/1.3533441
  5. Helmich-Paris,B.; de Souza,B.; Neese,F.; Izsák,R.
     An improved chain of spheres for exchange algorithm
     J. Chem. Phys., 2021 155 104109
     doi.org/doi: 10.1063/5.0058766.
  6. Neese,F.
     The SHARK Integral Generation and Digestion System
     J. Comp. Chem., 2022  1-16
     doi.org/10.1002/jcc.26942
  7. Lehtola,S.; Steigemann,C.; Oliveira,M.; Marques,M.
     Recent developments in Libxc - A comprehensive library of functionals for density functional theory
     Software X, 2018 7 
     doi.org/10.1016/j.softx.2017.11.002
  8. Grimme,S.; Antony,J.; Ehrlich,S.; Krieg,H.
     A consistent and accurate ab initio parametrization of density functional dispersion correction (DFT-D) for the 94 elements H-Pu
     J. Chem. Phys., 2010 132 154104-XXXX
     doi.org/10.1063/1.3382344
  9. Grimme,S.; Ehrlich,S.; Goerigk,L.
     Effect of the damping function in dispersion corrected density functional theory
     J. Comput. Chem., 2011 32(7)1456-1465
     doi.org/10.1002/jcc.21759

List of suggested additional citations. These are papers that are important in the 'surrounding' of 
of this run, or papers that preceded the highly important papers. If you like your results we are grateful for a citation.

  1. Izsak,R.; Neese,F.
     An overlap fitted chain of spheres exchange method
     J. Chem. Phys., 2011 135 144105
     doi.org/10.1063/1.3646921
  2. Izsak,R.; Hansen,A.; Neese,F.
     The resolution of identity and chain of spheres approximations for the LPNO-CCSD singles Fock term
     Molec. Phys., 2012 110 2413-2417
     doi.org/10.1080/00268976.2012.687466
  3. Neese,F.
     The ORCA program system
     WIRES Comput. Molec. Sci., 2012 2(1)73-78
     doi.org/10.1002/wcms.81
  4. Izsak,R.; Neese,F.; Klopper,W.
     Robust fitting techniques in the chain of spheres approximation to the Fock exchange: The role of the complementary space
     J. Chem. Phys., 2013 139 
     doi.org/10.1063/1.4819264
  5. Neese,F.
     Software update: the ORCA program system, version 4.0
     WIRES Comput. Molec. Sci., 2018 8(1)1-6
     doi.org/10.1002/wcms.1327
  6. Neese,F.; Wennmohs,F.; Becker,U.; Riplinger,C.
     The ORCA quantum chemistry program package
     J. Chem. Phys., 2020 152 Art. No. L224108
     doi.org/10.1063/5.0004608

List of optional additional citations

  1. Neese,F.
     Approximate second-order SCF convergence for spin unrestricted wavefunctions
     Chem. Phys. Lett., 2000 325(1-3)93-98
     doi.org/10.1016/s0009-2614(00)00662-x

Timings for individual modules:

Sum of individual times          ...       15.932 sec (=   0.266 min)
Startup calculation              ...        0.998 sec (=   0.017 min)   6.3 %
SCF iterations                   ...        6.749 sec (=   0.112 min)  42.4 %
Property integrals               ...        0.698 sec (=   0.012 min)   4.4 %
Property calculations            ...        0.671 sec (=   0.011 min)   4.2 %
CIS module                       ...        6.816 sec (=   0.114 min)  42.8 %
                             ****ORCA TERMINATED NORMALLY****
TOTAL RUN TIME: 0 days 0 hours 0 minutes 16 seconds 618 msec
