
                                 *****************
                                 * O   R   C   A *
                                 *****************

                                            #,                                       
                                            ###                                      
                                            ####                                     
                                            #####                                    
                                            ######                                   
                                           ########,                                 
                                     ,,################,,,,,                         
                               ,,#################################,,                 
                          ,,##########################################,,             
                       ,#########################################, ''#####,          
                    ,#############################################,,   '####,        
                  ,##################################################,,,,####,       
                ,###########''''           ''''###############################       
              ,#####''   ,,,,##########,,,,          '''####'''          '####       
            ,##' ,,,,###########################,,,                        '##       
           ' ,,###''''                  '''############,,,                           
         ,,##''                                '''############,,,,        ,,,,,,###''
      ,#''                                            '''#######################'''  
     '                                                          ''''####''''         
             ,#######,   #######,   ,#######,      ##                                
            ,#'     '#,  ##    ##  ,#'     '#,    #''#        ,####,   ,####,        
            ##       ##  ##   ,#'  ##            #'  '#       #'       #'  '#        
            ##       ##  #######   ##           ,######,      #####,   #    #        
            '#,     ,#'  ##    ##  '#,     ,#' ,#      #,     #,   #   #,  ,#        
             '#######'   ##     ##  '#######'  #'      '#     '####' # '####'        



                #########################################################
                #                        -***-                          #
                #          Department of theory and spectroscopy        #
                #                                                       #
                #                      Frank Neese                      #
                #                                                       #
                #     Directorship, Architecture, Infrastructure        #
                #                    SHARK, DRIVERS                     #
                #        Core code/Algorithms in most modules           #
                #                                                       #
                #        Max Planck Institute fuer Kohlenforschung      #
                #                Kaiser Wilhelm Platz 1                 #
                #                 D-45470 Muelheim/Ruhr                 #
                #                      Germany                          #
                #                                                       #
                #                  All rights reserved                  #
                #                        -***-                          #
                #########################################################


                         Program Version 6.0.0  -   RELEASE  -


 With contributions from (in alphabetic order):
   Daniel Aravena         : Magnetic Suceptibility
   Michael Atanasov       : Ab Initio Ligand Field Theory (pilot matlab implementation)
   Alexander A. Auer      : GIAO ZORA, VPT2 properties, NMR spectrum
   Ute Becker             : All parallelization in ORCA, NUMFREQ, NUMCALC
   Giovanni Bistoni       : ED, misc. LED, open-shell LED, HFLD
   Martin Brehm           : Molecular dynamics
   Dmytro Bykov           : pre 5.0 version of the SCF Hessian
   Marcos Casanova-Páez   : Triplet and SCS-CIS(D). UHF-(DLPNO)-IP/EA/STEOM-CCSD. UHF-CVS-IP/STEOM-CCSD
   Vijay G. Chilkuri      : MRCI spin determinant printing, contributions to CSF-ICE
   Pauline Colinet        : FMM embedding
   Dipayan Datta          : RHF DLPNO-CCSD density
   Achintya Kumar Dutta   : EOM-CC, STEOM-CC
   Nicolas Foglia         : Exact transition moments, OPA infrastructure, MCD improvements
   Dmitry Ganyushin       : Spin-Orbit,Spin-Spin,Magnetic field MRCI
   Miquel Garcia          : C-PCM and meta-GGA Hessian, CCSD/C-PCM, Gaussian charge scheme
   Tiago L. C. Gouveia    : GS-ROHF, GS-ROCIS
   Yang Guo               : DLPNO-NEVPT2, F12-NEVPT2, CIM, IAO-localization
   Andreas Hansen         : Spin unrestricted coupled pair/coupled cluster methods
   Ingolf Harden          : AUTO-CI MPn and infrastructure 
   Benjamin Helmich-Paris : MC-RPA, TRAH-(SCF,CASSCF), AVAS, COSX integrals, SCF dyn. polar.
   Lee Huntington         : MR-EOM, pCC
   Robert Izsak           : Overlap fitted RIJCOSX, COSX-SCS-MP3, EOM
   Riya Kayal             : Wick's Theorem for AUTO-CI, AUTO-CI UHF-CCSDT
   Emily Kempfer          : AUTO-CI, RHF CISDT and CCSDT
   Christian Kollmar      : KDIIS, OOCD, Brueckner-CCSD(T), CCSD density, CASPT2, CASPT2-K, improved NEVPT2
   Axel Koslowski         : Symmetry handling
   Simone Kossmann        : Meta GGA functionals, TD-DFT gradient, OOMP2, (MP2 Hessian; deprecated post 5.0)
   Lucas Lang             : DCDCAS
   Marvin Lechner         : AUTO-CI (C++ implementation), FIC-MRCC
   Spencer Leger          : CASSCF response
   Dagmar Lenk            : GEPOL surface, SMD, ORCA-2-JSON
   Dimitrios Liakos       : Extrapolation schemes; Compound Job, initial MDCI parallelization
   Dimitrios Manganas     : Further ROCIS development; embedding schemes. LFT, Crystal Embedding
   Dimitrios Pantazis     : SARC Basis sets
   Anastasios Papadopoulos: AUTO-CI, single reference methods and gradients
   Taras Petrenko         : pre 6.0 DFT Hessian and TD-DFT gradient, (ASA, deprecated), ECA, 1-Electron XAS/XES, NRVS
   Peter Pinski           : DLPNO-MP2, DLPNO-MP2 Gradient
   Christoph Reimann      : Effective Core Potentials
   Marius Retegan         : Local ZFS, SOC
   Christoph Riplinger    : Optimizer, TS searches, QM/MM, DLPNO-CCSD(T), (RO)-DLPNO pert. Triples
   Michael Roemelt        : Original ROCIS implementation
   Masaaki Saitow         : Open-shell DLPNO-CCSD energy and density
   Barbara Sandhoefer     : DKH picture change effects
   Kantharuban Sivalingam : CASSCF convergence/infrastructure, NEVPT2 and variants, FIC-MRCI
   Bernardo de Souza      : ESD, SOC TD-DFT
   Georgi Stoychev        : AutoAux, RI-MP2 NMR, DLPNO-MP2 response, X2C
   Van Anh Tran           : RI-MP2 g-tensors
   Willem Van den Heuvel  : Paramagnetic NMR
   Zikuan Wang            : NOTCH, Electric field optimization 
   Frank Wennmohs         : Technical directorship and infrastructure
   Hang Xu                : AUTO-CI-Response properties 


 We gratefully acknowledge several colleagues who have allowed us to
 interface, adapt or use parts of their codes:
   Stefan Grimme, W. Hujo, H. Kruse, P. Pracht,  : VdW corrections, initial TS optimization,
                  C. Bannwarth, S. Ehlert,         DFT functionals, gCP, sTDA/sTD-DF
                  L. Wittmann, M. Mueller
   Ed Valeev, F. Pavosevic, A. Kumar             : LibInt (2-el integral package), F12 methods
   Garnet Chan, S. Sharma, J. Yang, R. Olivares  : DMRG
   Ulf Ekstrom                                   : XCFun DFT Library
   Mihaly Kallay                                 : mrcc  (arbitrary order and MRCC methods)
   Frank Weinhold                                : gennbo (NPA and NBO analysis)
   Simon Mueller                                 : openCOSMO-RS
   Christopher J. Cramer and Donald G. Truhlar   : smd solvation model
   Lars Goerigk                                  : TD-DFT with DH, B97 family of functionals
   V. Asgeirsson, H. Jonsson                     : NEB implementation
   FAccTs GmbH                                   : IRC, NEB, NEB-TS, DLPNO-Multilevel, CI-OPT
                                                   MM, QMMM, 2- and 3-layer-ONIOM, Crystal-QMMM,
                                                   LR-CPCM, SF, NACMEs, symmetry and pop. for TD-DFT,
                                                   nearIR, NL-DFT gradient (VV10), updates on ESD,
                                                   ML-optimized integration grids, MBIS, APM,
                                                   GOAT, DOCKER, SOLVATOR, interface openCOSMO-RS
   S Lehtola, MJT Oliveira, MAL Marques          : LibXC Library
   Liviu Ungur et al                             : ANISO software


 Your calculation uses the libint2 library for the computation of 2-el integrals
 For citations please refer to: http://libint.valeyev.net

 Your ORCA version has been built with support for libXC version: 6.2.2
 For citations please refer to: https://libxc.gitlab.io

 This ORCA versions uses:
   CBLAS   interface :  Fast vector & matrix operations
   LAPACKE interface :  Fast linear algebra routines
   SCALAPACK package :  Parallel linear algebra routines
   Shared memory     :  Shared parallel matrices
   BLAS/LAPACK       :  OpenBLAS 0.3.27  USE64BITINT DYNAMIC_ARCH NO_AFFINITY Zen SINGLE_THREADED
        Core in use  :  Zen
   Copyright (c) 2011-2014, The OpenBLAS Project


Your calculation utilizes the atom-pairwise dispersion correction
with the Becke-Johnson damping scheme (D3BJ)


Warning: RI is on but no J-basis has been assigned. Assigning Def2/J (nothing to worry about!)
================================================================================

----- Orbital basis set information -----
Your calculation utilizes the basis: def2-TZVPPD
   F. Weigend and R. Ahlrichs, Phys. Chem. Chem. Phys. 7, 3297 (2005).
   D. Rappoport and F. Furche, J. Chem. Phys. 133, 134105 (2010)
   D. Rappoport, J. Chem. Phys. 155, 124102 (2021).

----- AuxJ basis set information -----
Your calculation utilizes the auxiliary basis: def2/J
   F. Weigend, Phys. Chem. Chem. Phys. 8, 1057 (2006).

================================================================================
                                        WARNINGS
                       Please study these warnings very carefully!
================================================================================

Using LibXC functional ID 531 : wB97M-V exchange-correlation functional
[ 1]  N. Mardirossian and M. Head-Gordon.,  J. Chem. Phys. 144, 214110 (2016)
Using LibXC functional ID 531 : wB97M-V exchange-correlation functional
[ 1]  N. Mardirossian and M. Head-Gordon.,  J. Chem. Phys. 144, 214110 (2016)

WARNING: B97M-V or wB97M-V functional requested.
  ===> : libXC variant has now been activated.
         Any manually given DFX/HFX/RangeSep scaling parameters are IGNORED!

Your calculation utilizes LibXC
 by S Lehtola, C Steigemann, MJT Oliveira & MAL Marques
Please cite in your paper:
 S Lehtola, C Steigemann, MJT Oliveira & MAL Marques, SoftwareX, 7, (2018), 1.
   


WARNING: your system is open-shell and RHF/RKS was chosen
  ===> : WILL SWITCH to UHF/UKS

INFO   : Checking CIS options ...

WARNING: CIS/ROCIS methods need fully converged wavefunctions
  ===> : Setting SCFConvForced true
         You can overwrite this default with %scf ConvForced false 


================================================================================
                                       INPUT FILE
================================================================================
NAME = orca.inp
|  1> ! Engrad def2-TZVPPD wB97M-D3BJ 
|  2> %pal nprocs 8 end%pal nprocs 64 end 
|  3> %tddft 
|  4>  Iroot 1 Nroots 3 
|  5> sf true 
|  6> end 
|  7> *xyz 0 3 
|  8> O   1.04119689 -0.78654995 -0.30596465
|  9> C   0.69664186 0.26837642 0.35598121
| 10> C   -0.63472157 0.773574 0.20102123
| 11> H   1.42252237 1.07600413 0.07890348
| 12> H   0.85083878 -0.10457672 1.49040241
| 13> H   -0.64031377 1.86523566 0.04905315
| 14> H   -1.39881426 0.13693604 -0.26223791
| 15> *
| 16> 
| 17>                          ****END OF INPUT****
================================================================================

                     *******************************
                     * Energy+Gradient Calculation *
                     *******************************

---------------------------------
CARTESIAN COORDINATES (ANGSTROEM)
---------------------------------
  O      1.041197   -0.786550   -0.305965
  C      0.696642    0.268376    0.355981
  C     -0.634722    0.773574    0.201021
  H      1.422522    1.076004    0.078903
  H      0.850839   -0.104577    1.490402
  H     -0.640314    1.865236    0.049053
  H     -1.398814    0.136936   -0.262238

----------------------------
CARTESIAN COORDINATES (A.U.)
----------------------------
  NO LB      ZA    FRAG     MASS         X           Y           Z
   0 O     8.0000    0    15.999    1.967577   -1.486364   -0.578189
   1 C     6.0000    0    12.011    1.316462    0.507158    0.672707
   2 C     6.0000    0    12.011   -1.199450    1.461843    0.379875
   3 H     1.0000    0     1.008    2.688178    2.033353    0.149106
   4 H     1.0000    0     1.008    1.607852   -0.197621    2.816452
   5 H     1.0000    0     1.008   -1.210018    3.524785    0.092697
   6 H     1.0000    0     1.008   -2.643376    0.258772   -0.495558

--------------------------------
INTERNAL COORDINATES (ANGSTROEM)
--------------------------------
 O      0   0   0     0.000000000000     0.00000000     0.00000000
 C      1   0   0     1.292191988983     0.00000000     0.00000000
 C      2   1   0     1.432398608272   118.70836762     0.00000000
 H      2   1   3     1.120685995817   106.79638793   236.78783659
 H      2   1   3     1.204069015374   101.28076106   119.54710439
 H      3   2   1     1.102202680977   111.65099888   226.40985179
 H      3   2   1     1.097157491802   119.23089669    15.12183712

---------------------------
INTERNAL COORDINATES (A.U.)
---------------------------
 O      0   0   0     0.000000000000     0.00000000     0.00000000
 C      1   0   0     2.441888971624     0.00000000     0.00000000
 C      2   1   0     2.706841084245   118.70836762     0.00000000
 H      2   1   3     2.117789614214   106.79638793   236.78783659
 H      2   1   3     2.275360685396   101.28076106   119.54710439
 H      3   2   1     2.082861211121   111.65099888   226.40985179
 H      3   2   1     2.073327185286   119.23089669    15.12183712

---------------------
BASIS SET INFORMATION
---------------------
There are 3 groups of distinct atoms

 Group   1 Type O   : 12s7p3d1f contracted to 6s4p3d1f pattern {621111/4111/111/1}
 Group   2 Type C   : 12s6p3d1f contracted to 6s3p3d1f pattern {621111/411/111/1}
 Group   3 Type H   : 5s3p1d contracted to 3s3p1d pattern {311/111/1}

Atom   0O    basis set group =>   1
Atom   1C    basis set group =>   2
Atom   2C    basis set group =>   2
Atom   3H    basis set group =>   3
Atom   4H    basis set group =>   3
Atom   5H    basis set group =>   3
Atom   6H    basis set group =>   3
---------------------------------
AUXILIARY/J BASIS SET INFORMATION
---------------------------------
There are 3 groups of distinct atoms

 Group   1 Type O   : 12s5p4d2f1g contracted to 6s4p3d1f1g pattern {711111/2111/211/2/1}
 Group   2 Type C   : 12s5p4d2f1g contracted to 6s4p3d1f1g pattern {711111/2111/211/2/1}
 Group   3 Type H   : 5s2p1d contracted to 3s1p1d pattern {311/2/1}

Atom   0O    basis set group =>   1
Atom   1C    basis set group =>   2
Atom   2C    basis set group =>   2
Atom   3H    basis set group =>   3
Atom   4H    basis set group =>   3
Atom   5H    basis set group =>   3
Atom   6H    basis set group =>   3
[1741606505.438828] [ohm:3050750:0]        ib_iface.c:1059 UCX  ERROR ibv_create_cq(cqe=256) failed: Connection timed out
[1741606505.451138] [ohm:3050755:0]        ib_iface.c:1059 UCX  ERROR ibv_create_cq(cqe=256) failed: Connection timed out
[1741606505.453446] [ohm:3050764:0]        ib_iface.c:1059 UCX  ERROR ibv_create_cq(cqe=256) failed: Connection timed out
[1741606505.456183] [ohm:3050751:0]        ib_iface.c:1059 UCX  ERROR ibv_create_cq(cqe=256) failed: Connection timed out
[1741606505.457862] [ohm:3050758:0]        ib_iface.c:1059 UCX  ERROR ibv_create_cq(cqe=256) failed: Connection timed out
[1741606505.472001] [ohm:3050765:0]        ib_iface.c:1059 UCX  ERROR ibv_create_cq(cqe=256) failed: Connection timed out
[1741606505.471995] [ohm:3050753:0]        ib_iface.c:1059 UCX  ERROR ibv_create_cq(cqe=256) failed: Connection timed out
[1741606505.476509] [ohm:3050756:0]        ib_iface.c:1059 UCX  ERROR ibv_create_cq(cqe=256) failed: Connection timed out
[1741606505.478017] [ohm:3050752:0]        ib_iface.c:1059 UCX  ERROR ibv_create_cq(cqe=256) failed: Connection timed out
[1741606505.481217] [ohm:3050762:0]        ib_iface.c:1059 UCX  ERROR ibv_create_cq(cqe=256) failed: Connection timed out
[1741606505.501269] [ohm:3050757:0]        ib_iface.c:1059 UCX  ERROR ibv_create_cq(cqe=256) failed: Connection timed out
[1741606505.510696] [ohm:3050771:0]        ib_iface.c:1059 UCX  ERROR ibv_create_cq(cqe=256) failed: Connection timed out
[1741606505.517209] [ohm:3050766:0]        ib_iface.c:1059 UCX  ERROR ibv_create_cq(cqe=256) failed: Connection timed out
[1741606505.534342] [ohm:3050754:0]        ib_iface.c:1059 UCX  ERROR ibv_create_cq(cqe=256) failed: Connection timed out
[1741606505.534396] [ohm:3050759:0]        ib_iface.c:1059 UCX  ERROR ibv_create_cq(cqe=256) failed: Connection timed out
[1741606505.535212] [ohm:3050852:0]        ib_iface.c:1059 UCX  ERROR ibv_create_cq(cqe=256) failed: Connection timed out
[1741606505.545802] [ohm:3050835:0]        ib_iface.c:1059 UCX  ERROR ibv_create_cq(cqe=256) failed: Connection timed out
[1741606505.547508] [ohm:3050772:0]        ib_iface.c:1059 UCX  ERROR ibv_create_cq(cqe=256) failed: Connection timed out
[1741606505.557045] [ohm:3050760:0]        ib_iface.c:1059 UCX  ERROR ibv_create_cq(cqe=256) failed: Connection timed out
[1741606505.558789] [ohm:3050763:0]        ib_iface.c:1059 UCX  ERROR ibv_create_cq(cqe=256) failed: Connection timed out
[1741606505.559796] [ohm:3050793:0]        ib_iface.c:1059 UCX  ERROR ibv_create_cq(cqe=256) failed: Connection timed out
[1741606505.569160] [ohm:3050891:0]        ib_iface.c:1059 UCX  ERROR ibv_create_cq(cqe=256) failed: Connection timed out
[1741606505.590669] [ohm:3050883:0]        ib_iface.c:1059 UCX  ERROR ibv_create_cq(cqe=256) failed: Connection timed out
[1741606505.603477] [ohm:3050773:0]        ib_iface.c:1059 UCX  ERROR ibv_create_cq(cqe=256) failed: Connection timed out
[1741606505.610904] [ohm:3050863:0]        ib_iface.c:1059 UCX  ERROR ibv_create_cq(cqe=256) failed: Connection timed out
[1741606505.613140] [ohm:3050856:0]        ib_iface.c:1059 UCX  ERROR ibv_create_cq(cqe=256) failed: Connection timed out
[1741606505.615865] [ohm:3050837:0]        ib_iface.c:1059 UCX  ERROR ibv_create_cq(cqe=256) failed: Connection timed out
[1741606505.625388] [ohm:3050828:0]        ib_iface.c:1059 UCX  ERROR ibv_create_cq(cqe=256) failed: Connection timed out
[1741606505.640024] [ohm:3050858:0]        ib_iface.c:1059 UCX  ERROR ibv_create_cq(cqe=256) failed: Connection timed out
[1741606505.642298] [ohm:3050804:0]        ib_iface.c:1059 UCX  ERROR ibv_create_cq(cqe=256) failed: Connection timed out
[1741606505.642556] [ohm:3050878:0]        ib_iface.c:1059 UCX  ERROR ibv_create_cq(cqe=256) failed: Connection timed out
[1741606505.646280] [ohm:3050813:0]        ib_iface.c:1059 UCX  ERROR ibv_create_cq(cqe=256) failed: Connection timed out
[1741606505.646728] [ohm:3050800:0]        ib_iface.c:1059 UCX  ERROR ibv_create_cq(cqe=256) failed: Connection timed out
[1741606505.650274] [ohm:3050832:0]        ib_iface.c:1059 UCX  ERROR ibv_create_cq(cqe=256) failed: Connection timed out
[1741606505.653454] [ohm:3050867:0]        ib_iface.c:1059 UCX  ERROR ibv_create_cq(cqe=256) failed: Connection timed out
[1741606505.654489] [ohm:3050894:0]        ib_iface.c:1059 UCX  ERROR ibv_create_cq(cqe=256) failed: Connection timed out
[1741606505.665869] [ohm:3050815:0]        ib_iface.c:1059 UCX  ERROR ibv_create_cq(cqe=256) failed: Connection timed out
[1741606505.671155] [ohm:3050830:0]        ib_iface.c:1059 UCX  ERROR ibv_create_cq(cqe=256) failed: Connection timed out
[1741606505.671324] [ohm:3050769:0]        ib_iface.c:1059 UCX  ERROR ibv_create_cq(cqe=256) failed: Connection timed out
[1741606505.673256] [ohm:3050873:0]        ib_iface.c:1059 UCX  ERROR ibv_create_cq(cqe=256) failed: Connection timed out
[1741606505.674044] [ohm:3050776:0]        ib_iface.c:1059 UCX  ERROR ibv_create_cq(cqe=256) failed: Connection timed out
[1741606505.682141] [ohm:3050788:0]        ib_iface.c:1059 UCX  ERROR ibv_create_cq(cqe=256) failed: Connection timed out
[1741606505.686574] [ohm:3050775:0]        ib_iface.c:1059 UCX  ERROR ibv_create_cq(cqe=256) failed: Connection timed out
[1741606505.691812] [ohm:3050895:0]        ib_iface.c:1059 UCX  ERROR ibv_create_cq(cqe=256) failed: Connection timed out
[1741606505.696078] [ohm:3050840:0]        ib_iface.c:1059 UCX  ERROR ibv_create_cq(cqe=256) failed: Connection timed out
[1741606505.697528] [ohm:3050821:0]        ib_iface.c:1059 UCX  ERROR ibv_create_cq(cqe=256) failed: Connection timed out
[1741606505.699123] [ohm:3050850:0]        ib_iface.c:1059 UCX  ERROR ibv_create_cq(cqe=256) failed: Connection timed out
[1741606505.703283] [ohm:3050844:0]        ib_iface.c:1059 UCX  ERROR ibv_create_cq(cqe=256) failed: Connection timed out
[1741606505.705562] [ohm:3050874:0]        ib_iface.c:1059 UCX  ERROR ibv_create_cq(cqe=256) failed: Connection timed out
[1741606505.705741] [ohm:3050770:0]        ib_iface.c:1059 UCX  ERROR ibv_create_cq(cqe=256) failed: Connection timed out
[1741606505.706176] [ohm:3050791:0]        ib_iface.c:1059 UCX  ERROR ibv_create_cq(cqe=256) failed: Connection timed out
[1741606505.710375] [ohm:3050768:0]        ib_iface.c:1059 UCX  ERROR ibv_create_cq(cqe=256) failed: Connection timed out
[1741606505.710714] [ohm:3050761:0]        ib_iface.c:1059 UCX  ERROR ibv_create_cq(cqe=256) failed: Connection timed out
[1741606505.714388] [ohm:3050780:0]        ib_iface.c:1059 UCX  ERROR ibv_create_cq(cqe=256) failed: Connection timed out
[1741606505.714390] [ohm:3050861:0]        ib_iface.c:1059 UCX  ERROR ibv_create_cq(cqe=256) failed: Connection timed out
[1741606505.715557] [ohm:3050868:0]        ib_iface.c:1059 UCX  ERROR ibv_create_cq(cqe=256) failed: Connection timed out
[1741606505.716687] [ohm:3050880:0]        ib_iface.c:1059 UCX  ERROR ibv_create_cq(cqe=256) failed: Connection timed out
[1741606505.719361] [ohm:3050825:0]        ib_iface.c:1059 UCX  ERROR ibv_create_cq(cqe=256) failed: Connection timed out
[1741606505.724498] [ohm:3050782:0]        ib_iface.c:1059 UCX  ERROR ibv_create_cq(cqe=256) failed: Connection timed out
[1741606505.727698] [ohm:3050846:0]        ib_iface.c:1059 UCX  ERROR ibv_create_cq(cqe=256) failed: Connection timed out
[1741606505.731311] [ohm:3050774:0]        ib_iface.c:1059 UCX  ERROR ibv_create_cq(cqe=256) failed: Connection timed out
[1741606505.731340] [ohm:3050887:0]        ib_iface.c:1059 UCX  ERROR ibv_create_cq(cqe=256) failed: Connection timed out
[1741606505.731781] [ohm:3050899:0]        ib_iface.c:1059 UCX  ERROR ibv_create_cq(cqe=256) failed: Connection timed out
[1741606505.732695] [ohm:3050767:0]        ib_iface.c:1059 UCX  ERROR ibv_create_cq(cqe=256) failed: Connection timed out


           ************************************************************
           *        Program running with 64 parallel MPI-processes    *
           *              working on a common directory               *
           ************************************************************
------------------------------------------------------------------------------
                             ORCA STARTUP CALCULATIONS
                           -- RI-GTO INTEGRALS CHOSEN --
------------------------------------------------------------------------------
------------------------------------------------------------------------------
                   ___                                                        
                  /   \      - P O W E R E D   B Y -                         
                 /     \                                                     
                 |  |  |   _    _      __       _____    __    __             
                 |  |  |  | |  | |    /  \     |  _  \  |  |  /  |          
                  \  \/   | |  | |   /    \    | | | |  |  | /  /          
                 / \  \   | |__| |  /  /\  \   | |_| |  |  |/  /          
                |  |  |   |  __  | /  /__\  \  |    /   |      \           
                |  |  |   | |  | | |   __   |  |    \   |  |\   \          
                \     /   | |  | | |  |  |  |  | |\  \  |  | \   \       
                 \___/    |_|  |_| |__|  |__|  |_| \__\ |__|  \__/        
                                                                              
                      - O R C A' S   B I G   F R I E N D -                    
                                      &                                       
                       - I N T E G R A L  F E E D E R -                       
                                                                              
 v1 FN, 2020, v2 2021, v3 2022-2024                                           
------------------------------------------------------------------------------


----------------------
SHARK INTEGRAL PACKAGE
----------------------

Number of atoms                             ...      7
Number of basis functions                   ...    182
Number of shells                            ...     68
Maximum angular momentum                    ...      3
Integral batch strategy                     ... SHARK/LIBINT Hybrid
RI-J (if used) integral strategy            ... SPLIT-RIJ (Revised 2003 algorithm where possible)
Printlevel                                  ...      1
Contraction scheme used                     ... SEGMENTED contraction
Prescreening option                         ... SCHWARTZ
   Thresh                                   ... 2.500e-11
   Tcut                                     ... 2.500e-12
   Tpresel                                  ... 2.500e-12 
Coulomb Range Separation                    ... NOT USED
Exchange Range Separation                   ... Long Range
   Mu parameter                             ... 3.000e-01
   Scaling (regular/separated)              ... 1.500e-01 8.500e-01
Multipole approximations                    ... NOT USED
Finite Nucleus Model                        ... NOT USED
CABS basis                                  ... NOT available
Auxiliary Coulomb fitting basis             ... AVAILABLE
   # of basis functions in Aux-J            ...    191
   # of shells in Aux-J                     ...     65
   Maximum angular momentum in Aux-J        ...      4
Auxiliary J/K fitting basis                 ... NOT available
Auxiliary Correlation fitting basis         ... NOT available
Auxiliary 'external' fitting basis          ... NOT available

Checking pre-screening integrals            ... done (  0.0 sec) Dimension = 68
Check shell pair data                       ... done (  0.0 sec)
Shell pair information
Shell pair cut-off parameter TPreSel        ...   2.5e-12
Total number of shell pairs                 ...      2346
Shell pairs after pre-screening             ...      2331
Total number of primitive shell pairs       ...      5434
Primitive shell pairs kept                  ...      4840
          la=0 lb=0:    456 shell pairs
          la=1 lb=0:    657 shell pairs
          la=1 lb=1:    253 shell pairs
          la=2 lb=0:    387 shell pairs
          la=2 lb=1:    286 shell pairs
          la=2 lb=2:     91 shell pairs
          la=3 lb=0:     90 shell pairs
          la=3 lb=1:     66 shell pairs
          la=3 lb=2:     39 shell pairs
          la=3 lb=3:      6 shell pairs

Calculating one electron integrals          ... done (  0.0 sec)
Calculating RI/J V-Matrix + Cholesky decomp.... done (  0.0 sec)
Calculating Nuclear repulsion               ... done (  0.0 sec) ENN=     69.664021148804 Eh

Diagonalization of the overlap matrix:
Smallest eigenvalue                        ... 1.748e-05
Time for diagonalization                   ...    0.003 sec
Threshold for overlap eigenvalues          ... 1.000e-07
Number of eigenvalues below threshold      ... 0
Time for construction of square roots      ...    0.004 sec
Total time needed                          ...    0.010 sec

-------------------
DFT GRID GENERATION
-------------------

General Integration Accuracy     IntAcc      ... 4.388
Radial Grid Type                 RadialGrid  ... OptM3 with GC (2021)
Angular Grid (max. ang.)         AngularGrid ... 4 (Lebedev-302)
Angular grid pruning method      GridPruning ... 4 (adaptive)
Weight generation scheme         WeightScheme... mBecke (2022)
Basis function cutoff            BFCut       ... 1.0000e-11
Integration weight cutoff        WCut        ... 1.0000e-14
Partially contracted basis set               ... off
Rotationally invariant grid construction     ... off
Angular grids for H and He will be reduced by one unit
Diffuse basis detected: some atoms will have their outermost
                        angular grid increased by 1.

Total number of grid points                  ...    33135
Total number of batches                      ...      520
Average number of points per batch           ...       63
Average number of grid points per atom       ...     4734

--------------------
COSX GRID GENERATION
--------------------

GRIDX 1
-------
General Integration Accuracy     IntAcc      ... 3.816
Radial Grid Type                 RadialGrid  ... OptM3 with GC (2021)
Angular Grid (max. ang.)         AngularGrid ... 1 (Lebedev-50)
Angular grid pruning method      GridPruning ... 4 (adaptive)
Weight generation scheme         WeightScheme... mBecke (2022)
Basis function cutoff            BFCut       ... 1.0000e-11
Integration weight cutoff        WCut        ... 1.0000e-14
Partially contracted basis set               ... on
Rotationally invariant grid construction     ... off
Angular grids for H and He will be reduced by one unit
Diffuse basis detected: some atoms will have their outermost
                        angular grid increased by 1.

Total number of grid points                  ...     4186
Total number of batches                      ...       37
Average number of points per batch           ...      113
Average number of grid points per atom       ...      598
UseSFitting                                  ... on

GRIDX 2
-------
General Integration Accuracy     IntAcc      ... 4.020
Radial Grid Type                 RadialGrid  ... OptM3 with GC (2021)
Angular Grid (max. ang.)         AngularGrid ... 2 (Lebedev-110)
Angular grid pruning method      GridPruning ... 4 (adaptive)
Weight generation scheme         WeightScheme... mBecke (2022)
Basis function cutoff            BFCut       ... 1.0000e-11
Integration weight cutoff        WCut        ... 1.0000e-14
Partially contracted basis set               ... on
Rotationally invariant grid construction     ... off
Angular grids for H and He will be reduced by one unit
Diffuse basis detected: some atoms will have their outermost
                        angular grid increased by 1.

Total number of grid points                  ...    10278
Total number of batches                      ...       82
Average number of points per batch           ...      125
Average number of grid points per atom       ...     1468
UseSFitting                                  ... on

GRIDX 3
-------
General Integration Accuracy     IntAcc      ... 4.338
Radial Grid Type                 RadialGrid  ... OptM3 with GC (2021)
Angular Grid (max. ang.)         AngularGrid ... 3 (Lebedev-194)
Angular grid pruning method      GridPruning ... 4 (adaptive)
Weight generation scheme         WeightScheme... mBecke (2022)
Basis function cutoff            BFCut       ... 1.0000e-11
Integration weight cutoff        WCut        ... 1.0000e-14
Partially contracted basis set               ... on
Rotationally invariant grid construction     ... off
Angular grids for H and He will be reduced by one unit
Diffuse basis detected: some atoms will have their outermost
                        angular grid increased by 1.

Total number of grid points                  ...    23134
Total number of batches                      ...      184
Average number of points per batch           ...      125
Average number of grid points per atom       ...     3305
UseSFitting                                  ... on
Initializing property integral containers    ... done (  0.0 sec)

SHARK setup successfully completed in   0.4 seconds

Maximum memory used throughout the entire STARTUP-calculation: 13.8 MB
[1741606507.801329] [ohm:3051092:0]        ib_iface.c:1059 UCX  ERROR ibv_create_cq(cqe=256) failed: Connection timed out
[1741606507.821097] [ohm:3051089:0]        ib_iface.c:1059 UCX  ERROR ibv_create_cq(cqe=256) failed: Connection timed out
[1741606507.837820] [ohm:3051093:0]        ib_iface.c:1059 UCX  ERROR ibv_create_cq(cqe=256) failed: Connection timed out
[1741606507.849819] [ohm:3051091:0]        ib_iface.c:1059 UCX  ERROR ibv_create_cq(cqe=256) failed: Connection timed out
[1741606507.855712] [ohm:3051090:0]        ib_iface.c:1059 UCX  ERROR ibv_create_cq(cqe=256) failed: Connection timed out
[1741606507.859762] [ohm:3051102:0]        ib_iface.c:1059 UCX  ERROR ibv_create_cq(cqe=256) failed: Connection timed out
[1741606507.862443] [ohm:3051100:0]        ib_iface.c:1059 UCX  ERROR ibv_create_cq(cqe=256) failed: Connection timed out
[1741606507.865562] [ohm:3051101:0]        ib_iface.c:1059 UCX  ERROR ibv_create_cq(cqe=256) failed: Connection timed out
[1741606507.867564] [ohm:3051097:0]        ib_iface.c:1059 UCX  ERROR ibv_create_cq(cqe=256) failed: Connection timed out
[1741606507.871477] [ohm:3051104:0]        ib_iface.c:1059 UCX  ERROR ibv_create_cq(cqe=256) failed: Connection timed out
[1741606507.871954] [ohm:3051094:0]        ib_iface.c:1059 UCX  ERROR ibv_create_cq(cqe=256) failed: Connection timed out
[1741606507.891320] [ohm:3051108:0]        ib_iface.c:1059 UCX  ERROR ibv_create_cq(cqe=256) failed: Connection timed out
[1741606507.906560] [ohm:3051156:0]        ib_iface.c:1059 UCX  ERROR ibv_create_cq(cqe=256) failed: Connection timed out
[1741606507.911905] [ohm:3051152:0]        ib_iface.c:1059 UCX  ERROR ibv_create_cq(cqe=256) failed: Connection timed out
[1741606507.914291] [ohm:3051142:0]        ib_iface.c:1059 UCX  ERROR ibv_create_cq(cqe=256) failed: Connection timed out
[1741606507.927526] [ohm:3051135:0]        ib_iface.c:1059 UCX  ERROR ibv_create_cq(cqe=256) failed: Connection timed out
[1741606507.928761] [ohm:3051096:0]        ib_iface.c:1059 UCX  ERROR ibv_create_cq(cqe=256) failed: Connection timed out
[1741606507.931083] [ohm:3051223:0]        ib_iface.c:1059 UCX  ERROR ibv_create_cq(cqe=256) failed: Connection timed out
[1741606507.936685] [ohm:3051099:0]        ib_iface.c:1059 UCX  ERROR ibv_create_cq(cqe=256) failed: Connection timed out
[1741606507.949305] [ohm:3051161:0]        ib_iface.c:1059 UCX  ERROR ibv_create_cq(cqe=256) failed: Connection timed out
[1741606507.950815] [ohm:3051133:0]        ib_iface.c:1059 UCX  ERROR ibv_create_cq(cqe=256) failed: Connection timed out
[1741606507.951628] [ohm:3051107:0]        ib_iface.c:1059 UCX  ERROR ibv_create_cq(cqe=256) failed: Connection timed out
[1741606507.958130] [ohm:3051213:0]        ib_iface.c:1059 UCX  ERROR ibv_create_cq(cqe=256) failed: Connection timed out
[1741606507.965480] [ohm:3051095:0]        ib_iface.c:1059 UCX  ERROR ibv_create_cq(cqe=256) failed: Connection timed out
[1741606507.966375] [ohm:3051126:0]        ib_iface.c:1059 UCX  ERROR ibv_create_cq(cqe=256) failed: Connection timed out
[1741606507.985503] [ohm:3051191:0]        ib_iface.c:1059 UCX  ERROR ibv_create_cq(cqe=256) failed: Connection timed out
[1741606507.992915] [ohm:3051240:0]        ib_iface.c:1059 UCX  ERROR ibv_create_cq(cqe=256) failed: Connection timed out
[1741606508.001816] [ohm:3051122:0]        ib_iface.c:1059 UCX  ERROR ibv_create_cq(cqe=256) failed: Connection timed out
[1741606508.003117] [ohm:3051205:0]        ib_iface.c:1059 UCX  ERROR ibv_create_cq(cqe=256) failed: Connection timed out
[1741606508.008428] [ohm:3051112:0]        ib_iface.c:1059 UCX  ERROR ibv_create_cq(cqe=256) failed: Connection timed out
[1741606508.021761] [ohm:3051181:0]        ib_iface.c:1059 UCX  ERROR ibv_create_cq(cqe=256) failed: Connection timed out
[1741606508.023167] [ohm:3051165:0]        ib_iface.c:1059 UCX  ERROR ibv_create_cq(cqe=256) failed: Connection timed out
[1741606508.028841] [ohm:3051238:0]        ib_iface.c:1059 UCX  ERROR ibv_create_cq(cqe=256) failed: Connection timed out
[1741606508.033752] [ohm:3051103:0]        ib_iface.c:1059 UCX  ERROR ibv_create_cq(cqe=256) failed: Connection timed out
[1741606508.044792] [ohm:3051199:0]        ib_iface.c:1059 UCX  ERROR ibv_create_cq(cqe=256) failed: Connection timed out
[1741606508.050151] [ohm:3051167:0]        ib_iface.c:1059 UCX  ERROR ibv_create_cq(cqe=256) failed: Connection timed out
[1741606508.054684] [ohm:3051137:0]        ib_iface.c:1059 UCX  ERROR ibv_create_cq(cqe=256) failed: Connection timed out
[1741606508.056001] [ohm:3051176:0]        ib_iface.c:1059 UCX  ERROR ibv_create_cq(cqe=256) failed: Connection timed out
[1741606508.065245] [ohm:3051175:0]        ib_iface.c:1059 UCX  ERROR ibv_create_cq(cqe=256) failed: Connection timed out
[1741606508.069142] [ohm:3051160:0]        ib_iface.c:1059 UCX  ERROR ibv_create_cq(cqe=256) failed: Connection timed out
[1741606508.069140] [ohm:3051241:0]        ib_iface.c:1059 UCX  ERROR ibv_create_cq(cqe=256) failed: Connection timed out
[1741606508.072653] [ohm:3051197:0]        ib_iface.c:1059 UCX  ERROR ibv_create_cq(cqe=256) failed: Connection timed out
[1741606508.079658] [ohm:3051132:0]        ib_iface.c:1059 UCX  ERROR ibv_create_cq(cqe=256) failed: Connection timed out
[1741606508.080898] [ohm:3051119:0]        ib_iface.c:1059 UCX  ERROR ibv_create_cq(cqe=256) failed: Connection timed out
[1741606508.087908] [ohm:3051209:0]        ib_iface.c:1059 UCX  ERROR ibv_create_cq(cqe=256) failed: Connection timed out
[1741606508.090319] [ohm:3051231:0]        ib_iface.c:1059 UCX  ERROR ibv_create_cq(cqe=256) failed: Connection timed out
[1741606508.093854] [ohm:3051218:0]        ib_iface.c:1059 UCX  ERROR ibv_create_cq(cqe=256) failed: Connection timed out
[1741606508.093830] [ohm:3051146:0]        ib_iface.c:1059 UCX  ERROR ibv_create_cq(cqe=256) failed: Connection timed out
[1741606508.095875] [ohm:3051187:0]        ib_iface.c:1059 UCX  ERROR ibv_create_cq(cqe=256) failed: Connection timed out
[1741606508.095851] [ohm:3051192:0]        ib_iface.c:1059 UCX  ERROR ibv_create_cq(cqe=256) failed: Connection timed out
[1741606508.098899] [ohm:3051139:0]        ib_iface.c:1059 UCX  ERROR ibv_create_cq(cqe=256) failed: Connection timed out
[1741606508.099071] [ohm:3051127:0]        ib_iface.c:1059 UCX  ERROR ibv_create_cq(cqe=256) failed: Connection timed out
[1741606508.099237] [ohm:3051106:0]        ib_iface.c:1059 UCX  ERROR ibv_create_cq(cqe=256) failed: Connection timed out
[1741606508.102711] [ohm:3051171:0]        ib_iface.c:1059 UCX  ERROR ibv_create_cq(cqe=256) failed: Connection timed out
[1741606508.110752] [ohm:3051194:0]        ib_iface.c:1059 UCX  ERROR ibv_create_cq(cqe=256) failed: Connection timed out
[1741606508.111901] [ohm:3051134:0]        ib_iface.c:1059 UCX  ERROR ibv_create_cq(cqe=256) failed: Connection timed out
[1741606508.111965] [ohm:3051185:0]        ib_iface.c:1059 UCX  ERROR ibv_create_cq(cqe=256) failed: Connection timed out
[1741606508.114461] [ohm:3051115:0]        ib_iface.c:1059 UCX  ERROR ibv_create_cq(cqe=256) failed: Connection timed out
[1741606508.116504] [ohm:3051136:0]        ib_iface.c:1059 UCX  ERROR ibv_create_cq(cqe=256) failed: Connection timed out
[1741606508.116870] [ohm:3051098:0]        ib_iface.c:1059 UCX  ERROR ibv_create_cq(cqe=256) failed: Connection timed out
[1741606508.117676] [ohm:3051105:0]        ib_iface.c:1059 UCX  ERROR ibv_create_cq(cqe=256) failed: Connection timed out
[1741606508.118090] [ohm:3051130:0]        ib_iface.c:1059 UCX  ERROR ibv_create_cq(cqe=256) failed: Connection timed out
[1741606508.118852] [ohm:3051214:0]        ib_iface.c:1059 UCX  ERROR ibv_create_cq(cqe=256) failed: Connection timed out
[1741606508.118861] [ohm:3051236:0]        ib_iface.c:1059 UCX  ERROR ibv_create_cq(cqe=256) failed: Connection timed out


           ************************************************************
           *        Program running with 64 parallel MPI-processes    *
           *              working on a common directory               *
           ************************************************************
-------------------------------------------------------------------------------
                                 ORCA GUESS
                   Start orbitals & Density for SCF / CASSCF
-------------------------------------------------------------------------------

------------
SCF SETTINGS
------------
Hamiltonian:
 Density Functional     Method          .... DFT(GTOs)
  Functional kind                       .... Exchange-Correlation
  Functional name                       .... wB97M-V exchange-correlation functional
  Functional family                     .... Hybrid MGGA
  Functional refs                              
    [ 0] N. Mardirossian and M. Head-Gordon.,  J. Chem. Phys. 144, 214110 (2016), doi: 10.1063/1.4952647
  Fraction of HF Exchange (short range) .... 0.1500
  Fraction of HF Exchange (long range)  .... 1.0000
  Range separation parameter mu         .... 0.3000
  Functional external parameters        .... 17
    Parameter  0 _cx00      =  8.500000e-01 : u^00 coefficient for exchange
    Parameter  1 _cx01      =  1.007000e+00 : u^01 coefficient for exchange
    Parameter  2 _cx10      =  2.590000e-01 : u^10 coefficient for exchange
    Parameter  3 _css00     =  4.430000e-01 : u^00 coefficient for same-spin correlation
    Parameter  4 _css04     = -1.437000e+00 : u^04 coefficient for same-spin correlation
    Parameter  5 _css10     = -4.535000e+00 : u^10 coefficient for same-spin correlation
    Parameter  6 _css20     = -3.390000e+00 : u^20 coefficient for same-spin correlation
    Parameter  7 _css43     =  4.278000e+00 : u^43 coefficient for same-spin correlation
    Parameter  8 _cos00     =  1.000000e+00 : u^00 coefficient for opposite-spin correlation
    Parameter  9 _cos10     =  1.358000e+00 : u^10 coefficient for opposite-spin correlation
    Parameter 10 _cos20     =  2.924000e+00 : u^20 coefficient for opposite-spin correlation
    Parameter 11 _cos21     = -8.812000e+00 : u^21 coefficient for opposite-spin correlation
    Parameter 12 _cos60     = -1.390000e+00 : u^60 coefficient for opposite-spin correlation
    Parameter 13 _cos61     =  9.142000e+00 : u^61 coefficient for opposite-spin correlation
    Parameter 14 _alpha     =  1.000000e+00 : fraction of HF exchange
    Parameter 15 _beta      = -8.500000e-01 : fraction of short-range exchange
    Parameter 16 _omega     =  3.000000e-01 : range-separation constant
 Long-range corrected/Screened/Range-Separated Hybrid DFT is turned on
   Amount of maximum screened exact exchange              ....  0.850000
   Range separation parameter mu (erf(mu*r12)/r12)        ....  0.300000
 RI-approximation to the Coulomb term is turned on
   Number of AuxJ basis functions       .... 191
   RIJ-COSX (HFX calculated with COS-X)).... on


General Settings:
 Integral files         IntName         .... orca
 Hartree-Fock type      HFTyp           .... UHF
 Total Charge           Charge          ....    0
 Multiplicity           Mult            ....    3
 Number of Electrons    NEL             ....   24
 Basis Dimension        Dim             ....  182
 Nuclear Repulsion      ENuc            ....     69.6640211488 Eh

Convergence Acceleration:
 AO-DIIS                CNVDIIS         .... on
   Start iteration      DIISMaxIt       ....    12
   Startup error        DIISStart       ....  0.200000
   # of expansion vecs  DIISMaxEq       ....     5
   Bias factor          DIISBfac        ....   1.050
   Max. coefficient     DIISMaxC        ....  10.000
 MO-DIIS                CNVKDIIS        .... off
 Trust-Rad. Augm. Hess. CNVTRAH         .... auto
   Auto Start mean grad. ratio tolernc. ....  1.125000
   Auto Start start iteration           ....    50
   Auto Start num. interpolation iter.  ....    10
   Max. Number of Micro iterations      ....    24
   Max. Number of Macro iterations      .... Maxiter - #DIIS iter
   Number of Davidson start vectors     ....     2
   Converg. threshold    (grad. norm)   ....   1.000e-05
   Grad. Scal. Fac. for Micro threshold ....   0.100
   Minimum threshold for Micro iter.    ....   1.000e-02
   NR start threshold (gradient norm)   ....   1.000e-04
   Initial trust radius                 ....   0.400
   Minimum AH scaling param. (alpha)    ....   1.000
   Maximum AH scaling param. (alpha)    .... 1000.000
   Quad. conv. algorithm                .... NR
   White noise on init. David. guess    .... on
   Maximum white noise                  ....   0.010
   Pseudo random numbers                .... off
   Inactive MOs                         .... canonical
   Orbital update algorithm             .... Taylor
   Preconditioner                       .... Diag
   Full preconditioner red. dimension   ....   250
 SOSCF                  CNVSOSCF        .... on
   Start iteration      SOSCFMaxIt      ....   150
   Startup grad/error   SOSCFStart      ....  0.003300
   Hessian update       SOSCFHessUp     .... L-BFGS
 Level Shifting         CNVShift        .... on
   Level shift para.    LevelShift      ....    0.2500
   Turn off err/grad.   ShiftErr        ....    0.0010
 Zerner damping         CNVZerner       .... off
 Static damping         CNVDamp         .... on
   Fraction old density DampFac         ....    0.7000
   Max. Damping (<1)    DampMax         ....    0.9800
   Min. Damping (>=0)   DampMin         ....    0.0000
   Turn off err/grad.   DampErr         ....    0.1000

SCF Procedure:
 Maximum # iterations   MaxIter         ....   125
 SCF integral mode      SCFMode         .... Direct
   Integral package                     .... SHARK and LIBINT hybrid scheme
 Reset frequency        DirectResetFreq ....    20
 Integral Threshold     Thresh          ....  2.500e-11 Eh
 Primitive CutOff       TCut            ....  2.500e-12 Eh

Convergence Tolerance:
 Convergence Check Mode ConvCheckMode   .... Total+1el-Energy
 Convergence forced     ConvForced      .... 1
 Energy Change          TolE            ....  1.000e-08 Eh
 1-El. energy change                    ....  1.000e-05 Eh
 Orbital Gradient       TolG            ....  1.000e-05
 Orbital Rotation angle TolX            ....  1.000e-05
 DIIS Error             TolErr          ....  5.000e-07

------------------------------
INITIAL GUESS: MODEL POTENTIAL
------------------------------
Loading Hartree-Fock densities                     ... done
Calculating cut-offs                               ... done
Initializing the effective Hamiltonian             ... done
Setting up the integral package (SHARK)            ... done
Starting the Coulomb interaction                   ... done (   0.0 sec)
Making the grid                                    ... done (   0.0 sec)
Mapping shells                                     ... done
Starting the XC term evaluation                    ... done (   0.0 sec)
  promolecular density results
     # of electrons  =     23.997788005
     EX              =    -19.483249776
     EC              =     -0.769262745
     EX+EC           =    -20.252512521
Transforming the Hamiltonian                       ... done (   0.0 sec)
Diagonalizing the Hamiltonian                      ... done (   0.0 sec)
Back transforming the eigenvectors                 ... done (   0.0 sec)
Now organizing SCF variables                       ... done
                      ------------------
                      INITIAL GUESS DONE (   0.1 sec)
                      ------------------
             **** ENERGY FILE WAS UPDATED (orca.en.tmp) ****
Finished Guess after   1.7 sec
Maximum memory used throughout the entire GUESS-calculation: 9.5 MB
[1741606510.039723] [ohm:3051418:0]        ib_iface.c:1059 UCX  ERROR ibv_create_cq(cqe=256) failed: Connection timed out
[1741606510.059080] [ohm:3051428:0]        ib_iface.c:1059 UCX  ERROR ibv_create_cq(cqe=256) failed: Connection timed out
[1741606510.067978] [ohm:3051432:0]        ib_iface.c:1059 UCX  ERROR ibv_create_cq(cqe=256) failed: Connection timed out
[1741606510.072170] [ohm:3051416:0]        ib_iface.c:1059 UCX  ERROR ibv_create_cq(cqe=256) failed: Connection timed out
[1741606510.073959] [ohm:3051438:0]        ib_iface.c:1059 UCX  ERROR ibv_create_cq(cqe=256) failed: Connection timed out
[1741606510.073958] [ohm:3051466:0]        ib_iface.c:1059 UCX  ERROR ibv_create_cq(cqe=256) failed: Connection timed out
[1741606510.081409] [ohm:3051425:0]        ib_iface.c:1059 UCX  ERROR ibv_create_cq(cqe=256) failed: Connection timed out
[1741606510.097358] [ohm:3051417:0]        ib_iface.c:1059 UCX  ERROR ibv_create_cq(cqe=256) failed: Connection timed out
[1741606510.102619] [ohm:3051420:0]        ib_iface.c:1059 UCX  ERROR ibv_create_cq(cqe=256) failed: Connection timed out
[1741606510.103100] [ohm:3051419:0]        ib_iface.c:1059 UCX  ERROR ibv_create_cq(cqe=256) failed: Connection timed out
[1741606510.105659] [ohm:3051479:0]        ib_iface.c:1059 UCX  ERROR ibv_create_cq(cqe=256) failed: Connection timed out
[1741606510.113809] [ohm:3051421:0]        ib_iface.c:1059 UCX  ERROR ibv_create_cq(cqe=256) failed: Connection timed out
[1741606510.113809] [ohm:3051472:0]        ib_iface.c:1059 UCX  ERROR ibv_create_cq(cqe=256) failed: Connection timed out
[1741606510.123662] [ohm:3051454:0]        ib_iface.c:1059 UCX  ERROR ibv_create_cq(cqe=256) failed: Connection timed out
[1741606510.162346] [ohm:3051448:0]        ib_iface.c:1059 UCX  ERROR ibv_create_cq(cqe=256) failed: Connection timed out
[1741606510.183328] [ohm:3051497:0]        ib_iface.c:1059 UCX  ERROR ibv_create_cq(cqe=256) failed: Connection timed out
[1741606510.184671] [ohm:3051468:0]        ib_iface.c:1059 UCX  ERROR ibv_create_cq(cqe=256) failed: Connection timed out
[1741606510.188955] [ohm:3051483:0]        ib_iface.c:1059 UCX  ERROR ibv_create_cq(cqe=256) failed: Connection timed out
[1741606510.201652] [ohm:3051494:0]        ib_iface.c:1059 UCX  ERROR ibv_create_cq(cqe=256) failed: Connection timed out
[1741606510.206973] [ohm:3051462:0]        ib_iface.c:1059 UCX  ERROR ibv_create_cq(cqe=256) failed: Connection timed out
[1741606510.215492] [ohm:3051487:0]        ib_iface.c:1059 UCX  ERROR ibv_create_cq(cqe=256) failed: Connection timed out
[1741606510.226049] [ohm:3051542:0]        ib_iface.c:1059 UCX  ERROR ibv_create_cq(cqe=256) failed: Connection timed out
[1741606510.231606] [ohm:3051530:0]        ib_iface.c:1059 UCX  ERROR ibv_create_cq(cqe=256) failed: Connection timed out
[1741606510.235154] [ohm:3051538:0]        ib_iface.c:1059 UCX  ERROR ibv_create_cq(cqe=256) failed: Connection timed out
[1741606510.240246] [ohm:3051427:0]        ib_iface.c:1059 UCX  ERROR ibv_create_cq(cqe=256) failed: Connection timed out
[1741606510.247900] [ohm:3051423:0]        ib_iface.c:1059 UCX  ERROR ibv_create_cq(cqe=256) failed: Connection timed out
[1741606510.251135] [ohm:3051485:0]        ib_iface.c:1059 UCX  ERROR ibv_create_cq(cqe=256) failed: Connection timed out
[1741606510.252920] [ohm:3051520:0]        ib_iface.c:1059 UCX  ERROR ibv_create_cq(cqe=256) failed: Connection timed out
[1741606510.257376] [ohm:3051537:0]        ib_iface.c:1059 UCX  ERROR ibv_create_cq(cqe=256) failed: Connection timed out
[1741606510.259245] [ohm:3051492:0]        ib_iface.c:1059 UCX  ERROR ibv_create_cq(cqe=256) failed: Connection timed out
[1741606510.260290] [ohm:3051526:0]        ib_iface.c:1059 UCX  ERROR ibv_create_cq(cqe=256) failed: Connection timed out
[1741606510.269136] [ohm:3051502:0]        ib_iface.c:1059 UCX  ERROR ibv_create_cq(cqe=256) failed: Connection timed out
[1741606510.273733] [ohm:3051484:0]        ib_iface.c:1059 UCX  ERROR ibv_create_cq(cqe=256) failed: Connection timed out
[1741606510.288272] [ohm:3051482:0]        ib_iface.c:1059 UCX  ERROR ibv_create_cq(cqe=256) failed: Connection timed out
[1741606510.290920] [ohm:3051543:0]        ib_iface.c:1059 UCX  ERROR ibv_create_cq(cqe=256) failed: Connection timed out
[1741606510.290977] [ohm:3051534:0]        ib_iface.c:1059 UCX  ERROR ibv_create_cq(cqe=256) failed: Connection timed out
[1741606510.291974] [ohm:3051480:0]        ib_iface.c:1059 UCX  ERROR ibv_create_cq(cqe=256) failed: Connection timed out
[1741606510.298118] [ohm:3051426:0]        ib_iface.c:1059 UCX  ERROR ibv_create_cq(cqe=256) failed: Connection timed out
[1741606510.302258] [ohm:3051551:0]        ib_iface.c:1059 UCX  ERROR ibv_create_cq(cqe=256) failed: Connection timed out
[1741606510.306222] [ohm:3051481:0]        ib_iface.c:1059 UCX  ERROR ibv_create_cq(cqe=256) failed: Connection timed out
[1741606510.309012] [ohm:3051463:0]        ib_iface.c:1059 UCX  ERROR ibv_create_cq(cqe=256) failed: Connection timed out
[1741606510.312328] [ohm:3051513:0]        ib_iface.c:1059 UCX  ERROR ibv_create_cq(cqe=256) failed: Connection timed out
[1741606510.322377] [ohm:3051560:0]        ib_iface.c:1059 UCX  ERROR ibv_create_cq(cqe=256) failed: Connection timed out
[1741606510.322859] [ohm:3051477:0]        ib_iface.c:1059 UCX  ERROR ibv_create_cq(cqe=256) failed: Connection timed out
[1741606510.323504] [ohm:3051508:0]        ib_iface.c:1059 UCX  ERROR ibv_create_cq(cqe=256) failed: Connection timed out
[1741606510.327828] [ohm:3051522:0]        ib_iface.c:1059 UCX  ERROR ibv_create_cq(cqe=256) failed: Connection timed out
[1741606510.327898] [ohm:3051473:0]        ib_iface.c:1059 UCX  ERROR ibv_create_cq(cqe=256) failed: Connection timed out
[1741606510.328570] [ohm:3051500:0]        ib_iface.c:1059 UCX  ERROR ibv_create_cq(cqe=256) failed: Connection timed out
[1741606510.331790] [ohm:3051549:0]        ib_iface.c:1059 UCX  ERROR ibv_create_cq(cqe=256) failed: Connection timed out
[1741606510.333772] [ohm:3051422:0]        ib_iface.c:1059 UCX  ERROR ibv_create_cq(cqe=256) failed: Connection timed out
[1741606510.334707] [ohm:3051486:0]        ib_iface.c:1059 UCX  ERROR ibv_create_cq(cqe=256) failed: Connection timed out
[1741606510.344033] [ohm:3051540:0]        ib_iface.c:1059 UCX  ERROR ibv_create_cq(cqe=256) failed: Connection timed out
[1741606510.344306] [ohm:3051506:0]        ib_iface.c:1059 UCX  ERROR ibv_create_cq(cqe=256) failed: Connection timed out
[1741606510.345651] [ohm:3051478:0]        ib_iface.c:1059 UCX  ERROR ibv_create_cq(cqe=256) failed: Connection timed out
[1741606510.345741] [ohm:3051489:0]        ib_iface.c:1059 UCX  ERROR ibv_create_cq(cqe=256) failed: Connection timed out
[1741606510.348892] [ohm:3051424:0]        ib_iface.c:1059 UCX  ERROR ibv_create_cq(cqe=256) failed: Connection timed out
[1741606510.349963] [ohm:3051563:0]        ib_iface.c:1059 UCX  ERROR ibv_create_cq(cqe=256) failed: Connection timed out
[1741606510.350209] [ohm:3051569:0]        ib_iface.c:1059 UCX  ERROR ibv_create_cq(cqe=256) failed: Connection timed out
[1741606510.350277] [ohm:3051517:0]        ib_iface.c:1059 UCX  ERROR ibv_create_cq(cqe=256) failed: Connection timed out
[1741606510.353440] [ohm:3051456:0]        ib_iface.c:1059 UCX  ERROR ibv_create_cq(cqe=256) failed: Connection timed out
[1741606510.356159] [ohm:3051442:0]        ib_iface.c:1059 UCX  ERROR ibv_create_cq(cqe=256) failed: Connection timed out
[1741606510.356290] [ohm:3051556:0]        ib_iface.c:1059 UCX  ERROR ibv_create_cq(cqe=256) failed: Connection timed out
[1741606510.356291] [ohm:3051450:0]        ib_iface.c:1059 UCX  ERROR ibv_create_cq(cqe=256) failed: Connection timed out
[1741606510.357057] [ohm:3051567:0]        ib_iface.c:1059 UCX  ERROR ibv_create_cq(cqe=256) failed: Connection timed out


           ************************************************************
           *        Program running with 64 parallel MPI-processes    *
           *              working on a common directory               *
           ************************************************************

-------------------------------------------------------------------------------------------
                                      ORCA LEAN-SCF
                              memory conserving SCF solver
-------------------------------------------------------------------------------------------

----------------------------------------D-I-I-S--------------------------------------------
Iteration    Energy (Eh)           Delta-E    RMSDP     MaxDP     DIISErr   Damp  Time(sec)
-------------------------------------------------------------------------------------------
               ***  Starting incremental Fock matrix formation  ***
    1    -153.6869475215780199     0.00e+00  8.94e-04  2.36e-02  8.79e-02  0.700   0.3
    2    -153.7179811297493188    -3.10e-02  7.95e-04  2.11e-02  4.73e-02  0.700   0.3
                               ***Turning on AO-DIIS***
    3    -153.7346086439677038    -1.66e-02  6.48e-04  1.86e-02  2.75e-02  0.700   0.3
    4    -153.7448800234460577    -1.03e-02  1.63e-03  5.08e-02  2.21e-02  0.000   0.3
    5    -153.7689902007867886    -2.41e-02  1.63e-04  6.04e-03  7.84e-03  0.000   0.3
    6    -153.7695860976223798    -5.96e-04  9.86e-05  3.00e-03  4.13e-03  0.000   0.3
                              *** Initializing SOSCF ***
---------------------------------------S-O-S-C-F--------------------------------------
Iteration    Energy (Eh)           Delta-E    RMSDP     MaxDP     MaxGrad    Time(sec)
--------------------------------------------------------------------------------------
    7    -153.7698684600373440    -2.82e-04  6.05e-05  1.51e-03  3.11e-03     0.3
               *** Restarting incremental Fock matrix formation ***
    8    -153.7699991493559537    -1.31e-04  3.03e-05  7.18e-04  1.88e-03     0.3
    9    -153.7700369409371319    -3.78e-05  4.34e-05  9.24e-04  1.07e-03     0.3
   10    -153.7700572154824954    -2.03e-05  7.53e-06  2.25e-04  1.90e-04     0.3
   11    -153.7700577411477525    -5.26e-07  6.82e-06  1.78e-04  1.88e-04     0.3
   12    -153.7700582461790759    -5.05e-07  1.46e-05  5.53e-04  1.79e-04     0.3
   13    -153.7700591409991944    -8.95e-07  1.59e-05  6.84e-04  1.43e-04     0.3
   14    -153.7700600017515171    -8.61e-07  2.52e-05  1.10e-03  1.60e-04     0.3
   15    -153.7700611099770640    -1.11e-06  1.39e-05  5.64e-04  1.50e-04     0.3
   16    -153.7700616367494035    -5.27e-07  2.86e-06  1.22e-04  6.46e-05     0.3
   17    -153.7700617319418370    -9.52e-08  1.47e-06  4.73e-05  2.09e-05     0.3
   18    -153.7700617407374466    -8.80e-09  5.37e-07  1.63e-05  5.32e-06     0.2
                 **** Energy Check signals convergence ****

               *****************************************************
               *                     SUCCESS                       *
               *           SCF CONVERGED AFTER  18 CYCLES          *
               *****************************************************

Recomputing exchange energy using gridx3       ... done (    0.178 sec)
Old exchange energy                            :     -6.198076008 Eh
New exchange energy                            :     -6.198079724 Eh
Exchange energy change after final integration :     -0.000003716 Eh
Total energy after final integration           :   -153.770065457 Eh
             **** ENERGY FILE WAS UPDATED (orca.en.tmp) ****

----------------
TOTAL SCF ENERGY
----------------

Total Energy       :       -153.77006545697660 Eh           -4184.29621 eV

Components:
Nuclear Repulsion  :         69.66402114880439 Eh            1895.65439 eV
Electronic Energy  :       -223.43408288954186 Eh           -6079.95049 eV
One Electron Energy:       -345.77992223728495 Eh           -9409.15004 eV
Two Electron Energy:        122.34583934774309 Eh            3329.19954 eV

Virial components:
Potential Energy   :       -307.18779113286769 Eh           -8359.00476 eV
Kinetic Energy     :        153.41772567589109 Eh            4174.70855 eV
Virial Ratio       :          2.00229660412142

DFT components:
N(Alpha)           :       12.999985324500 electrons
N(Beta)            :       10.999985152012 electrons
N(Total)           :       23.999970476512 electrons
E(XC)              :      -14.712870347310 Eh       

---------------
SCF CONVERGENCE
---------------

  Last Energy change         ...    8.7956e-09  Tolerance :   1.0000e-08
  Last MAX-Density change    ...    1.6260e-05  Tolerance :   1.0000e-07
  Last RMS-Density change    ...    5.3732e-07  Tolerance :   5.0000e-09
  Last DIIS Error            ...    3.1067e-03  Tolerance :   5.0000e-07
  Last Orbital Gradient      ...    5.3225e-06  Tolerance :   1.0000e-05
  Last Orbital Rotation      ...    6.0732e-05  Tolerance :   1.0000e-05


----------------------
UHF SPIN CONTAMINATION
----------------------

Warning: in a DFT calculation there is little theoretical justification to 
         calculate <S**2> as in Hartree-Fock theory. We will do it anyways
         but you should keep in mind that the values have only limited relevance

Expectation value of <S**2>     :     2.009182
Ideal value S*(S+1) for S=1.0   :     2.000000
Deviation                       :     0.009182

----------------
ORBITAL ENERGIES
----------------
                 SPIN UP ORBITALS
  NO   OCC          E(Eh)            E(eV) 
   0   1.0000     -19.380458      -527.3691 
   1   1.0000     -10.416585      -283.4497 
   2   1.0000     -10.368619      -282.1445 
   3   1.0000      -1.198265       -32.6064 
   4   1.0000      -0.886040       -24.1104 
   5   1.0000      -0.717778       -19.5317 
   6   1.0000      -0.629682       -17.1345 
   7   1.0000      -0.596367       -16.2280 
   8   1.0000      -0.567096       -15.4315 
   9   1.0000      -0.511679       -13.9235 
  10   1.0000      -0.431312       -11.7366 
  11   1.0000      -0.406455       -11.0602 
  12   1.0000      -0.325189        -8.8488 
  13   0.0000       0.041788         1.1371 
  14   0.0000       0.061644         1.6774 
  15   0.0000       0.075701         2.0599 
  16   0.0000       0.084634         2.3030 
  17   0.0000       0.111997         3.0476 
  18   0.0000       0.122218         3.3257 
  19   0.0000       0.130691         3.5563 
  20   0.0000       0.136219         3.7067 
  21   0.0000       0.175622         4.7789 
  22   0.0000       0.192135         5.2283 
  23   0.0000       0.197165         5.3651 

                 SPIN DOWN ORBITALS
  NO   OCC          E(Eh)            E(eV) 
   0   1.0000     -19.358129      -526.7615 
   1   1.0000     -10.418077      -283.4903 
   2   1.0000     -10.355093      -281.7764 
   3   1.0000      -1.151268       -31.3276 
   4   1.0000      -0.852774       -23.2052 
   5   1.0000      -0.689529       -18.7630 
   6   1.0000      -0.598755       -16.2929 
   7   1.0000      -0.551575       -15.0091 
   8   1.0000      -0.537537       -14.6271 
   9   1.0000      -0.492838       -13.4108 
  10   1.0000      -0.376623       -10.2484 
  11   0.0000      -0.055247        -1.5033 
  12   0.0000      -0.005027        -0.1368 
  13   0.0000       0.042097         1.1455 
  14   0.0000       0.062049         1.6884 
  15   0.0000       0.075353         2.0505 
  16   0.0000       0.085890         2.3372 
  17   0.0000       0.112718         3.0672 
  18   0.0000       0.125445         3.4135 
  19   0.0000       0.133092         3.6216 
  20   0.0000       0.139219         3.7883 
  21   0.0000       0.184741         5.0271 
*Only the first 10 virtual orbitals were printed.

                    ********************************
                    * MULLIKEN POPULATION ANALYSIS *
                    ********************************

--------------------------------------------
MULLIKEN ATOMIC CHARGES AND SPIN POPULATIONS
--------------------------------------------
   0 O :   -0.369402    0.843367
   1 C :    0.169331   -0.001934
   2 C :   -0.684893    0.864486
   3 H :    0.208502    0.054750
   4 H :    0.165027    0.182436
   5 H :    0.228795    0.029152
   6 H :    0.282640    0.027742
Sum of atomic charges         :    0.0000000
Sum of atomic spin populations:    2.0000000

-----------------------------------------------------
MULLIKEN REDUCED ORBITAL CHARGES AND SPIN POPULATIONS
-----------------------------------------------------
CHARGE
  0 O s       :     4.023105  s :     4.023105
      pz      :     1.157990  p :     4.320844
      px      :     1.816260
      py      :     1.346594
      dz2     :     0.006192  d :     0.023926
      dxz     :     0.001723
      dyz     :     0.006847
      dx2y2   :     0.004849
      dxy     :     0.004315
      f0      :     0.000090  f :     0.001528
      f+1     :     0.000059
      f-1     :     0.000340
      f+2     :     0.000274
      f-2     :     0.000228
      f+3     :     0.000284
      f-3     :     0.000253

  1 C s       :     3.148578  s :     3.148578
      pz      :     0.888000  p :     2.460919
      px      :     0.829921
      py      :     0.742997
      dz2     :     0.050077  d :     0.208345
      dxz     :     0.032490
      dyz     :     0.009772
      dx2y2   :     0.038126
      dxy     :     0.077880
      f0      :     0.000990  f :     0.012827
      f+1     :     0.000488
      f-1     :     0.002155
      f+2     :     0.001986
      f-2     :     0.002413
      f+3     :     0.002357
      f-3     :     0.002438

  2 C s       :     3.637296  s :     3.637296
      pz      :     0.952261  p :     3.016767
      px      :     0.915307
      py      :     1.149199
      dz2     :    -0.000126  d :     0.027135
      dxz     :     0.007201
      dyz     :     0.010579
      dx2y2   :     0.006923
      dxy     :     0.002558
      f0      :     0.000588  f :     0.003695
      f+1     :     0.000415
      f-1     :     0.000354
      f+2     :     0.000238
      f-2     :     0.000453
      f+3     :     0.000874
      f-3     :     0.000773

  3 H s       :     0.749447  s :     0.749447
      pz      :     0.004770  p :     0.039336
      px      :     0.014862
      py      :     0.019704
      dz2     :     0.000295  d :     0.002716
      dxz     :     0.000297
      dyz     :     0.000496
      dx2y2   :     0.001084
      dxy     :     0.000543

  4 H s       :     0.801563  s :     0.801563
      pz      :     0.022205  p :     0.031028
      px      :     0.002233
      py      :     0.006590
      dz2     :     0.000959  d :     0.002383
      dxz     :     0.000552
      dyz     :     0.000696
      dx2y2   :     0.000077
      dxy     :     0.000099

  5 H s       :     0.720636  s :     0.720636
      pz      :     0.026306  p :     0.048229
      px      :     0.007270
      py      :     0.014653
      dz2     :     0.000174  d :     0.002340
      dxz     :     0.000020
      dyz     :     0.000835
      dx2y2   :     0.000500
      dxy     :     0.000811

  6 H s       :     0.673847  s :     0.673847
      pz      :     0.022088  p :     0.041227
      px      :     0.009005
      py      :     0.010134
      dz2     :     0.000389  d :     0.002285
      dxz     :     0.000436
      dyz     :     0.000325
      dx2y2   :     0.000669
      dxy     :     0.000467


SPIN
  0 O s       :    -0.001021  s :    -0.001021
      pz      :     0.608955  p :     0.850076
      px      :     0.048702
      py      :     0.192419
      dz2     :    -0.004414  d :    -0.005458
      dxz     :     0.000177
      dyz     :    -0.000404
      dx2y2   :    -0.000437
      dxy     :    -0.000380
      f0      :    -0.000075  f :    -0.000230
      f+1     :     0.000006
      f-1     :    -0.000105
      f+2     :    -0.000063
      f-2     :    -0.000050
      f+3     :     0.000029
      f-3     :     0.000026

  1 C s       :    -0.003028  s :    -0.003028
      pz      :    -0.046479  p :    -0.088260
      px      :    -0.026308
      py      :    -0.015473
      dz2     :     0.050109  d :     0.085906
      dxz     :     0.023123
      dyz     :     0.010338
      dx2y2   :    -0.000675
      dxy     :     0.003011
      f0      :     0.000346  f :     0.003449
      f+1     :     0.000176
      f-1     :     0.001614
      f+2     :     0.000559
      f-2     :     0.000227
      f+3     :     0.000350
      f-3     :     0.000178

  2 C s       :    -0.003025  s :    -0.003025
      pz      :     0.758019  p :     0.881286
      px      :     0.105978
      py      :     0.017289
      dz2     :    -0.004484  d :    -0.012840
      dxz     :    -0.003873
      dyz     :    -0.001682
      dx2y2   :     0.002348
      dxy     :    -0.005148
      f0      :    -0.000296  f :    -0.000935
      f+1     :    -0.000133
      f-1     :    -0.000242
      f+2     :    -0.000044
      f-2     :    -0.000136
      f+3     :     0.000028
      f-3     :    -0.000111

  3 H s       :     0.050209  s :     0.050209
      pz      :    -0.001421  p :     0.004535
      px      :     0.003204
      py      :     0.002752
      dz2     :     0.000016  d :     0.000005
      dxz     :     0.000001
      dyz     :    -0.000029
      dx2y2   :     0.000013
      dxy     :     0.000004

  4 H s       :     0.173148  s :     0.173148
      pz      :     0.008309  p :     0.009069
      px      :     0.000006
      py      :     0.000754
      dz2     :     0.000054  d :     0.000219
      dxz     :     0.000033
      dyz     :     0.000105
      dx2y2   :     0.000009
      dxy     :     0.000018

  5 H s       :     0.003152  s :     0.003152
      pz      :     0.023089  p :     0.025045
      px      :     0.001650
      py      :     0.000306
      dz2     :     0.000011  d :     0.000956
      dxz     :     0.000003
      dyz     :     0.000684
      dx2y2   :     0.000021
      dxy     :     0.000237

  6 H s       :     0.004450  s :     0.004450
      pz      :     0.021765  p :     0.022331
      px      :    -0.000210
      py      :     0.000775
      dz2     :     0.000328  d :     0.000961
      dxz     :     0.000161
      dyz     :     0.000184
      dx2y2   :     0.000179
      dxy     :     0.000109



                     *******************************
                     * LOEWDIN POPULATION ANALYSIS *
                     *******************************

-------------------------------------------
LOEWDIN ATOMIC CHARGES AND SPIN POPULATIONS
-------------------------------------------
   0 O :    0.077716    0.781845
   1 C :   -0.381989    0.244510
   2 C :    0.226380    0.671482
   3 H :    0.031905    0.022701
   4 H :    0.114652    0.135054
   5 H :   -0.036057    0.074812
   6 H :   -0.032607    0.069597

----------------------------------------------------
LOEWDIN REDUCED ORBITAL CHARGES AND SPIN POPULATIONS
----------------------------------------------------
CHARGE
  0 O s       :     3.420733  s :     3.420733
      pz      :     1.142840  p :     4.203440
      px      :     1.649450
      py      :     1.411150
      dz2     :     0.070226  d :     0.292560
      dxz     :     0.024303
      dyz     :     0.061325
      dx2y2   :     0.065222
      dxy     :     0.071483
      f0      :     0.000379  f :     0.005551
      f+1     :     0.000170
      f-1     :     0.001422
      f+2     :     0.000918
      f-2     :     0.000888
      f+3     :     0.000842
      f-3     :     0.000933

  1 C s       :     2.664243  s :     2.664243
      pz      :     0.818080  p :     2.602062
      px      :     0.931863
      py      :     0.852119
      dz2     :     0.161765  d :     1.013056
      dxz     :     0.140307
      dyz     :     0.161708
      dx2y2   :     0.230625
      dxy     :     0.318650
      f0      :     0.008453  f :     0.102628
      f+1     :     0.005573
      f-1     :     0.015295
      f+2     :     0.018771
      f-2     :     0.019831
      f+3     :     0.017652
      f-3     :     0.017053

  2 C s       :     2.738860  s :     2.738860
      pz      :     0.730560  p :     2.602669
      px      :     0.922099
      py      :     0.950010
      dz2     :     0.037123  d :     0.405317
      dxz     :     0.080491
      dyz     :     0.030105
      dx2y2   :     0.142049
      dxy     :     0.115549
      f0      :     0.002934  f :     0.026775
      f+1     :     0.002856
      f-1     :     0.001737
      f+2     :     0.002464
      f-2     :     0.003759
      f+3     :     0.006092
      f-3     :     0.006933

  3 H s       :     0.682510  s :     0.682510
      pz      :     0.061124  p :     0.257633
      px      :     0.093295
      py      :     0.103213
      dz2     :     0.003504  d :     0.027953
      dxz     :     0.003245
      dyz     :     0.004718
      dx2y2   :     0.008305
      dxy     :     0.008181

  4 H s       :     0.641546  s :     0.641546
      pz      :     0.114230  p :     0.222564
      px      :     0.056078
      py      :     0.052256
      dz2     :     0.008638  d :     0.021238
      dxz     :     0.005280
      dyz     :     0.005784
      dx2y2   :     0.000639
      dxy     :     0.000897

  5 H s       :     0.720597  s :     0.720597
      pz      :     0.080292  p :     0.286124
      px      :     0.072385
      py      :     0.133447
      dz2     :     0.002783  d :     0.029336
      dxz     :     0.000143
      dyz     :     0.009244
      dx2y2   :     0.008310
      dxy     :     0.008856

  6 H s       :     0.721202  s :     0.721202
      pz      :     0.090697  p :     0.281936
      px      :     0.093729
      py      :     0.097511
      dz2     :     0.004523  d :     0.029468
      dxz     :     0.006062
      dyz     :     0.004635
      dx2y2   :     0.007282
      dxy     :     0.006966


SPIN
  0 O s       :     0.011079  s :     0.011079
      pz      :     0.535088  p :     0.749959
      px      :     0.050114
      py      :     0.164756
      dz2     :     0.014650  d :     0.020709
      dxz     :     0.000084
      dyz     :     0.002249
      dx2y2   :     0.000525
      dxy     :     0.003200
      f0      :    -0.000064  f :     0.000098
      f+1     :     0.000031
      f-1     :     0.000185
      f+2     :    -0.000062
      f-2     :    -0.000026
      f+3     :     0.000023
      f-3     :     0.000010

  1 C s       :    -0.004120  s :    -0.004120
      pz      :    -0.006479  p :    -0.017731
      px      :    -0.006982
      py      :    -0.004270
      dz2     :     0.124824  d :     0.236658
      dxz     :     0.067818
      dyz     :     0.031862
      dx2y2   :     0.008068
      dxy     :     0.004086
      f0      :     0.002777  f :     0.029702
      f+1     :     0.001635
      f-1     :     0.013057
      f+2     :     0.004508
      f-2     :     0.002241
      f+3     :     0.003531
      f-3     :     0.001953

  2 C s       :     0.023523  s :     0.023523
      pz      :     0.539192  p :     0.643747
      px      :     0.085636
      py      :     0.018918
      dz2     :    -0.000486  d :     0.004427
      dxz     :     0.004992
      dyz     :     0.000840
      dx2y2   :    -0.001341
      dxy     :     0.000422
      f0      :    -0.000027  f :    -0.000214
      f+1     :     0.000240
      f-1     :    -0.000236
      f+2     :    -0.000050
      f-2     :    -0.000189
      f+3     :     0.000034
      f-3     :     0.000014

  3 H s       :     0.022531  s :     0.022531
      pz      :    -0.001564  p :     0.000517
      px      :     0.000436
      py      :     0.001644
      dz2     :     0.000059  d :    -0.000347
      dxz     :    -0.000114
      dyz     :    -0.000221
      dx2y2   :     0.000023
      dxy     :    -0.000095

  4 H s       :     0.119583  s :     0.119583
      pz      :     0.005433  p :     0.015891
      px      :     0.005718
      py      :     0.004741
      dz2     :    -0.000414  d :    -0.000420
      dxz     :    -0.000081
      dyz     :     0.000089
      dx2y2   :    -0.000007
      dxy     :    -0.000007

  5 H s       :    -0.007167  s :    -0.007167
      pz      :     0.061848  p :     0.072563
      px      :     0.006268
      py      :     0.004448
      dz2     :     0.000442  d :     0.009416
      dxz     :     0.000022
      dyz     :     0.006949
      dx2y2   :     0.000602
      dxy     :     0.001401

  6 H s       :    -0.011825  s :    -0.011825
      pz      :     0.060308  p :     0.071709
      px      :     0.009397
      py      :     0.002003
      dz2     :     0.003631  d :     0.009713
      dxz     :     0.001760
      dyz     :     0.002047
      dx2y2   :     0.000941
      dxy     :     0.001334



                      *****************************
                      * MAYER POPULATION ANALYSIS *
                      *****************************

  NA   - Mulliken gross atomic population
  ZA   - Total nuclear charge
  QA   - Mulliken gross atomic charge
  VA   - Mayer's total valence
  BVA  - Mayer's bonded valence
  FA   - Mayer's free valence

  ATOM       NA         ZA         QA         VA         BVA        FA
  0 O      8.3694     8.0000    -0.3694     1.7824     1.1173     0.6651
  1 C      5.8307     6.0000     0.1693     3.4275     3.4109     0.0166
  2 C      6.6849     6.0000    -0.6849     3.4779     2.7389     0.7390
  3 H      0.7915     1.0000     0.2085     1.0299     1.0281     0.0017
  4 H      0.8350     1.0000     0.1650     1.0196     0.9875     0.0321
  5 H      0.7712     1.0000     0.2288     1.0048     1.0041     0.0008
  6 H      0.7174     1.0000     0.2826     0.9514     0.9508     0.0005

  Mayer bond orders larger than 0.100000
B(  0-O ,  1-C ) :   0.9277 B(  1-C ,  2-C ) :   0.6903 B(  1-C ,  3-H ) :   0.9872 
B(  1-C ,  4-H ) :   0.8856 B(  2-C ,  5-H ) :   1.0193 B(  2-C ,  6-H ) :   0.9453 


-------
TIMINGS
-------

Total SCF time: 0 days 0 hours 0 min 7 sec 

Total time                  ....       7.185 sec
Sum of individual times     ....       7.169 sec  ( 99.8%)

SCF preparation             ....       1.700 sec  ( 23.7%)
Fock matrix formation       ....       4.266 sec  ( 59.4%)
  Startup                   ....       0.079 sec  (  1.8% of F)
  Split-RI-J                ....       0.484 sec  ( 11.3% of F)
  Chain of spheres X        ....       2.292 sec  ( 53.7% of F)
  XC integration            ....       1.133 sec  ( 26.6% of F)
    XC Preparation          ....       0.000 sec  (  0.0% of XC)
    Basis function eval.    ....       0.052 sec  (  4.6% of XC)
    Density eval.           ....       0.202 sec  ( 17.8% of XC)
    XC-Functional eval.     ....       0.014 sec  (  1.2% of XC)
    XC-Potential eval.      ....       0.273 sec  ( 24.1% of XC)
Diagonalization             ....       0.000 sec  (  0.0%)
Density matrix formation    ....       0.140 sec  (  1.9%)
Total Energy calculation    ....       0.127 sec  (  1.8%)
Population analysis         ....       0.039 sec  (  0.5%)
Orbital Transformation      ....       0.086 sec  (  1.2%)
Orbital Orthonormalization  ....       0.000 sec  (  0.0%)
DIIS solution               ....       0.492 sec  (  6.8%)
SOSCF solution              ....       0.313 sec  (  4.4%)
[...]
[1741606528.194902] [ohm:3052590:0]        ib_iface.c:1059 UCX  ERROR ibv_create_cq(cqe=256) failed: Connection timed out
[1741606528.197067] [ohm:3052658:0]        ib_iface.c:1059 UCX  ERROR ibv_create_cq(cqe=256) failed: Connection timed out
[1741606528.198691] [ohm:3052604:0]        ib_iface.c:1059 UCX  ERROR ibv_create_cq(cqe=256) failed: Connection timed out
[1741606528.202256] [ohm:3052654:0]        ib_iface.c:1059 UCX  ERROR ibv_create_cq(cqe=256) failed: Connection timed out
[1741606528.203328] [ohm:3052626:0]        ib_iface.c:1059 UCX  ERROR ibv_create_cq(cqe=256) failed: Connection timed out
[1741606528.203923] [ohm:3052615:0]        ib_iface.c:1059 UCX  ERROR ibv_create_cq(cqe=256) failed: Connection timed out
[1741606528.204678] [ohm:3052597:0]        ib_iface.c:1059 UCX  ERROR ibv_create_cq(cqe=256) failed: Connection timed out
[1741606528.206030] [ohm:3052609:0]        ib_iface.c:1059 UCX  ERROR ibv_create_cq(cqe=256) failed: Connection timed out
[1741606528.206062] [ohm:3052624:0]        ib_iface.c:1059 UCX  ERROR ibv_create_cq(cqe=256) failed: Connection timed out
[1741606528.208719] [ohm:3052561:0]        ib_iface.c:1059 UCX  ERROR ibv_create_cq(cqe=256) failed: Connection timed out


           ************************************************************
           *        Program running with 64 parallel MPI-processes    *
           *              working on a common directory               *
           ************************************************************

------------------------------------------------------------------------------
                              ORCA PROPERTY CALCULATIONS
------------------------------------------------------------------------------

GBWName                                 ... orca.gbw
Number of atoms                         ...      7
Number of basis functions               ...    182
Max core memory                         ...   1024 MB

Electric properties:
Dipole moment                           ... YES
Quadrupole moment                       ...  NO
Static polarizability (Dipole/Dipole)   ...  NO
Static polarizability (Dipole/Quad.)    ...  NO
Static polarizability (Quad./Quad.)     ...  NO
Static polarizability (Velocity)        ...  NO

Atomic electric properties:
Dipole moment                           ...  NO
Quadrupole moment                       ...  NO
Static polarizability                   ...  NO

Choice of electric origin               ... Center of mass
Position of electric origin             ...     0.756609     0.125612     0.135639

General magnetic properties:
Magnetizability                         ...  NO

EPR properties:
g-Tensor (aka g-matrix)                 ...  NO
Zero-Field splitting spin-orbit         ...  NO
Zero-field splitting spin-spin          ...  NO
Hyperfine couplings                     ...  NO (   0 nuclei)
Quadrupole couplings                    ...  NO (   0 nuclei)
Contact density                         ...  NO (   0 nuclei)

NMR properties:
Chemical shifts                         ...  NO (   0 nuclei)
Spin-rotation constants                 ...  NO (   0 nuclei)
Spin-spin couplings                     ...  NO (   0 nuclei,    0 pairs)

Choice of magnetic origin               ... GIAO
Position of magnetic origin             ...     0.000000     0.000000     0.000000

Properties with geometric perturbations:
SCF Hessian                             ...  NO
IR spectrum                             ...  NO
VCD spectrum                            ...  NO
X-ray spectroscopy properties:
SCF XES/XAS/RIXS spectra                ...  NO


-------------
DIPOLE MOMENT
-------------

Method             : SCF
Type of density    : Electron Density
Multiplicity       :   3
Irrep              :   0
Energy             :  -153.7700654569765959 Eh
Relativity type    : 
Basis              : AO
                                X                 Y                 Z
Electronic contribution:      1.101035639      -1.967539625      -0.676842178
Nuclear contribution   :     -1.273279115       2.527699323       0.997335878
                        -----------------------------------------
Total Dipole Moment    :     -0.172243477       0.560159698       0.320493701
                        -----------------------------------------
Magnitude (a.u.)       :      0.667954276
Magnitude (Debye)      :      1.697804843



--------------------
Rotational spectrum 
--------------------
 
Rotational constants in cm-1:             1.578173             0.367221             0.325854 
Rotational constants in MHz :         47312.434575         11008.996679          9768.869714 

Dipole components along the rotational axes: 
x,y,z [a.u.] :     0.556265     0.369455     0.015323 
x,y,z [Debye]:     1.413913     0.939081     0.038949 

 

-------------
DIPOLE MOMENT
-------------

Method             : TDA/CIS
Type of density    : Electron Density
Level              : Relaxed density
State              :   1
Multiplicity       :   3
Irrep              :   0
Energy             :     0.0000000000000000 Eh
Relativity type    : 
Basis              : AO
                                X                 Y                 Z
Electronic contribution:      0.779304092      -1.447612796      -0.587808354
Nuclear contribution   :     -1.273279115       2.527699323       0.997335878
                        -----------------------------------------
Total Dipole Moment    :     -0.493975024       1.080086528       0.409527524
                        -----------------------------------------
Magnitude (a.u.)       :      1.256308491
Magnitude (Debye)      :      3.193282410



--------------------
Rotational spectrum 
--------------------
 
Rotational constants in cm-1:             1.578173             0.367221             0.325854 
Rotational constants in MHz :         47312.434575         11008.996679          9768.869714 

Dipole components along the rotational axes: 
x,y,z [a.u.] :     1.152211     0.492166    -0.092159 
x,y,z [Debye]:     2.928688     1.250986    -0.234249 

 

Dipole moment calculation done in   0.0 sec 

Maximum memory used throughout the entire PROP-calculation: 7.4 MB
[1741606530.012683] [ohm:3052831:0]        ib_iface.c:1059 UCX  ERROR ibv_create_cq(cqe=256) failed: Connection timed out
[1741606530.026462] [ohm:3052832:0]        ib_iface.c:1059 UCX  ERROR ibv_create_cq(cqe=256) failed: Connection timed out
[1741606530.027390] [ohm:3052843:0]        ib_iface.c:1059 UCX  ERROR ibv_create_cq(cqe=256) failed: Connection timed out
[1741606530.055682] [ohm:3052834:0]        ib_iface.c:1059 UCX  ERROR ibv_create_cq(cqe=256) failed: Connection timed out
[1741606530.059445] [ohm:3052833:0]        ib_iface.c:1059 UCX  ERROR ibv_create_cq(cqe=256) failed: Connection timed out
[1741606530.070050] [ohm:3052839:0]        ib_iface.c:1059 UCX  ERROR ibv_create_cq(cqe=256) failed: Connection timed out
[1741606530.073021] [ohm:3052845:0]        ib_iface.c:1059 UCX  ERROR ibv_create_cq(cqe=256) failed: Connection timed out
[1741606530.084945] [ohm:3052838:0]        ib_iface.c:1059 UCX  ERROR ibv_create_cq(cqe=256) failed: Connection timed out
[1741606530.090539] [ohm:3052846:0]        ib_iface.c:1059 UCX  ERROR ibv_create_cq(cqe=256) failed: Connection timed out
[1741606530.098492] [ohm:3052837:0]        ib_iface.c:1059 UCX  ERROR ibv_create_cq(cqe=256) failed: Connection timed out
[1741606530.098517] [ohm:3052835:0]        ib_iface.c:1059 UCX  ERROR ibv_create_cq(cqe=256) failed: Connection timed out
[1741606530.102571] [ohm:3052879:0]        ib_iface.c:1059 UCX  ERROR ibv_create_cq(cqe=256) failed: Connection timed out
[1741606530.106351] [ohm:3052836:0]        ib_iface.c:1059 UCX  ERROR ibv_create_cq(cqe=256) failed: Connection timed out
[1741606530.108244] [ohm:3052916:0]        ib_iface.c:1059 UCX  ERROR ibv_create_cq(cqe=256) failed: Connection timed out
[1741606530.109730] [ohm:3052840:0]        ib_iface.c:1059 UCX  ERROR ibv_create_cq(cqe=256) failed: Connection timed out
[1741606530.130323] [ohm:3052901:0]        ib_iface.c:1059 UCX  ERROR ibv_create_cq(cqe=256) failed: Connection timed out
[1741606530.149979] [ohm:3052876:0]        ib_iface.c:1059 UCX  ERROR ibv_create_cq(cqe=256) failed: Connection timed out
[1741606530.155307] [ohm:3052905:0]        ib_iface.c:1059 UCX  ERROR ibv_create_cq(cqe=256) failed: Connection timed out
[1741606530.173520] [ohm:3052869:0]        ib_iface.c:1059 UCX  ERROR ibv_create_cq(cqe=256) failed: Connection timed out
[1741606530.180417] [ohm:3052913:0]        ib_iface.c:1059 UCX  ERROR ibv_create_cq(cqe=256) failed: Connection timed out
[1741606530.182273] [ohm:3052924:0]        ib_iface.c:1059 UCX  ERROR ibv_create_cq(cqe=256) failed: Connection timed out
[1741606530.186111] [ohm:3052858:0]        ib_iface.c:1059 UCX  ERROR ibv_create_cq(cqe=256) failed: Connection timed out
[1741606530.194207] [ohm:3052885:0]        ib_iface.c:1059 UCX  ERROR ibv_create_cq(cqe=256) failed: Connection timed out
[1741606530.196433] [ohm:3052850:0]        ib_iface.c:1059 UCX  ERROR ibv_create_cq(cqe=256) failed: Connection timed out
[1741606530.212068] [ohm:3052977:0]        ib_iface.c:1059 UCX  ERROR ibv_create_cq(cqe=256) failed: Connection timed out
[1741606530.212544] [ohm:3052842:0]        ib_iface.c:1059 UCX  ERROR ibv_create_cq(cqe=256) failed: Connection timed out
[1741606530.229602] [ohm:3052907:0]        ib_iface.c:1059 UCX  ERROR ibv_create_cq(cqe=256) failed: Connection timed out
[1741606530.230709] [ohm:3052852:0]        ib_iface.c:1059 UCX  ERROR ibv_create_cq(cqe=256) failed: Connection timed out
[1741606530.231085] [ohm:3052964:0]        ib_iface.c:1059 UCX  ERROR ibv_create_cq(cqe=256) failed: Connection timed out
[1741606530.240110] [ohm:3052883:0]        ib_iface.c:1059 UCX  ERROR ibv_create_cq(cqe=256) failed: Connection timed out
[1741606530.242351] [ohm:3052848:0]        ib_iface.c:1059 UCX  ERROR ibv_create_cq(cqe=256) failed: Connection timed out
[1741606530.244690] [ohm:3052910:0]        ib_iface.c:1059 UCX  ERROR ibv_create_cq(cqe=256) failed: Connection timed out
[1741606530.250865] [ohm:3052849:0]        ib_iface.c:1059 UCX  ERROR ibv_create_cq(cqe=256) failed: Connection timed out
[1741606530.253278] [ohm:3052855:0]        ib_iface.c:1059 UCX  ERROR ibv_create_cq(cqe=256) failed: Connection timed out
[1741606530.263223] [ohm:3052891:0]        ib_iface.c:1059 UCX  ERROR ibv_create_cq(cqe=256) failed: Connection timed out
[1741606530.264227] [ohm:3052937:0]        ib_iface.c:1059 UCX  ERROR ibv_create_cq(cqe=256) failed: Connection timed out
[1741606530.270741] [ohm:3052951:0]        ib_iface.c:1059 UCX  ERROR ibv_create_cq(cqe=256) failed: Connection timed out
[1741606530.273979] [ohm:3052851:0]        ib_iface.c:1059 UCX  ERROR ibv_create_cq(cqe=256) failed: Connection timed out
[1741606530.275709] [ohm:3052854:0]        ib_iface.c:1059 UCX  ERROR ibv_create_cq(cqe=256) failed: Connection timed out
[1741606530.281755] [ohm:3052899:0]        ib_iface.c:1059 UCX  ERROR ibv_create_cq(cqe=256) failed: Connection timed out
[1741606530.288722] [ohm:3052896:0]        ib_iface.c:1059 UCX  ERROR ibv_create_cq(cqe=256) failed: Connection timed out
[1741606530.290234] [ohm:3052841:0]        ib_iface.c:1059 UCX  ERROR ibv_create_cq(cqe=256) failed: Connection timed out
[1741606530.292925] [ohm:3052980:0]        ib_iface.c:1059 UCX  ERROR ibv_create_cq(cqe=256) failed: Connection timed out
[1741606530.293651] [ohm:3052993:0]        ib_iface.c:1059 UCX  ERROR ibv_create_cq(cqe=256) failed: Connection timed out
[1741606530.296998] [ohm:3052918:0]        ib_iface.c:1059 UCX  ERROR ibv_create_cq(cqe=256) failed: Connection timed out
[1741606530.298247] [ohm:3052935:0]        ib_iface.c:1059 UCX  ERROR ibv_create_cq(cqe=256) failed: Connection timed out
[1741606530.300151] [ohm:3052941:0]        ib_iface.c:1059 UCX  ERROR ibv_create_cq(cqe=256) failed: Connection timed out
[1741606530.304656] [ohm:3052958:0]        ib_iface.c:1059 UCX  ERROR ibv_create_cq(cqe=256) failed: Connection timed out
[1741606530.308038] [ohm:3052952:0]        ib_iface.c:1059 UCX  ERROR ibv_create_cq(cqe=256) failed: Connection timed out
[1741606530.312907] [ohm:3052871:0]        ib_iface.c:1059 UCX  ERROR ibv_create_cq(cqe=256) failed: Connection timed out
[1741606530.316005] [ohm:3052844:0]        ib_iface.c:1059 UCX  ERROR ibv_create_cq(cqe=256) failed: Connection timed out
[1741606530.316376] [ohm:3052925:0]        ib_iface.c:1059 UCX  ERROR ibv_create_cq(cqe=256) failed: Connection timed out
[1741606530.332691] [ohm:3052853:0]        ib_iface.c:1059 UCX  ERROR ibv_create_cq(cqe=256) failed: Connection timed out
[1741606530.333708] [ohm:3052874:0]        ib_iface.c:1059 UCX  ERROR ibv_create_cq(cqe=256) failed: Connection timed out
[1741606530.334417] [ohm:3052956:0]        ib_iface.c:1059 UCX  ERROR ibv_create_cq(cqe=256) failed: Connection timed out
[1741606530.336205] [ohm:3052861:0]        ib_iface.c:1059 UCX  ERROR ibv_create_cq(cqe=256) failed: Connection timed out
[1741606530.337973] [ohm:3052932:0]        ib_iface.c:1059 UCX  ERROR ibv_create_cq(cqe=256) failed: Connection timed out
[1741606530.338345] [ohm:3052950:0]        ib_iface.c:1059 UCX  ERROR ibv_create_cq(cqe=256) failed: Connection timed out
[1741606530.341042] [ohm:3052983:0]        ib_iface.c:1059 UCX  ERROR ibv_create_cq(cqe=256) failed: Connection timed out
[1741606530.341937] [ohm:3052974:0]        ib_iface.c:1059 UCX  ERROR ibv_create_cq(cqe=256) failed: Connection timed out
[1741606530.343877] [ohm:3052887:0]        ib_iface.c:1059 UCX  ERROR ibv_create_cq(cqe=256) failed: Connection timed out
[1741606530.343856] [ohm:3052863:0]        ib_iface.c:1059 UCX  ERROR ibv_create_cq(cqe=256) failed: Connection timed out
[1741606530.344483] [ohm:3052847:0]        ib_iface.c:1059 UCX  ERROR ibv_create_cq(cqe=256) failed: Connection timed out
[1741606530.346567] [ohm:3052969:0]        ib_iface.c:1059 UCX  ERROR ibv_create_cq(cqe=256) failed: Connection timed out

--------------------------------
SUGGESTED CITATIONS FOR THIS RUN
--------------------------------

Below you find a list of papers that are relevant to this ORCA run
We neither can nor want to force you to cite these papers, but we appreciate if you do
You receive ORCA, which is the product of decades of hard work by many enthusiastic individuals, for free
The only thing we kindly ask in return is that you cite our papers,
We deeply appreciate it, if you show your appreciation for ORCA by not just citing the generic ORCA reference.

Please note that relegating all ORCA citations to the supporting information does *not* help us.
SI sections are not indexed - citations you put there will not count into any citation statistics
But we need these citations in order to attract the funding resources that allow us to do what we are doing

Therefore, if you are a happy ORCA user, please consider citing a few of the papers listed below in the main body of your paper

In addition to the list printed below, the program has created the file orca.bibtex that contains the list in bibtex format
You can import this file easily into all common literature databanks and citation aid programs


List of essential papers. We consider these as the minimum necessary citations

  1. Neese,F.
     Software update: the ORCA program system, version 5.0
     WIRES Comput. Molec. Sci., 2022 12(1)e1606
     doi.org/10.1002/wcms.1606

List of papers to cite with high priority. The work reported in these papers was absolutely
necessary for this run to complete.
Our perspective: the developers of density functionals and basis sets usually get cited in chemistry papers
Good! But without the algorithms to do something with them, the functionals or basis sets would not do anything.
Hence, in our opinion, the algorithm design and method developments papers are equally worthy of getting cited

  1. Neese,F.; Olbrich,G.
     Efficient use of the resolution of the identity approximation in time-dependent density functional calculations with hybrid density functionals
     Chem. Phys. Lett., 2002 362 170-178
     doi.org/10.1016/s0009-2614(02)01053-9
  2. Neese,F.
     An improvement of the resolution of the identity approximation for the formation of the Coulomb matrix
     J. Comp. Chem., 2003 24(14)1740-1747
     doi.org/10.1002/jcc.10318
  3. Neese,F.; Wennmohs,F.; Hansen,A.; Becker,U.
     Efficient, approximate and parallel Hartree-Fock and hybrid DFT calculations. A 'chain-of-spheres' algorithm for the Hartree-Fock exchange
     Chem. Phys., 2009 356(1-3)98-109
     doi.org/10.1016/j.chemphys.2008.10.036
  4. Petrenko,T.; Kossmann,S.; Neese,F.
     Efficient time-dependent density functional theory approximations for hybrid density functionals: Analytical gradients and parallelization
     J. Chem. Phys., 2011 134 054116
     doi.org/10.1063/1.3533441
  5. Helmich-Paris,B.; de Souza,B.; Neese,F.; Izsák,R.
     An improved chain of spheres for exchange algorithm
     J. Chem. Phys., 2021 155 104109
     doi.org/doi: 10.1063/5.0058766.
  6. Neese,F.
     The SHARK Integral Generation and Digestion System
     J. Comp. Chem., 2022  1-16
     doi.org/10.1002/jcc.26942
  7. Lehtola,S.; Steigemann,C.; Oliveira,M.; Marques,M.
     Recent developments in Libxc - A comprehensive library of functionals for density functional theory
     Software X, 2018 7 
     doi.org/10.1016/j.softx.2017.11.002
  8. Grimme,S.; Antony,J.; Ehrlich,S.; Krieg,H.
     A consistent and accurate ab initio parametrization of density functional dispersion correction (DFT-D) for the 94 elements H-Pu
     J. Chem. Phys., 2010 132 154104-XXXX
     doi.org/10.1063/1.3382344
  9. Grimme,S.; Ehrlich,S.; Goerigk,L.
     Effect of the damping function in dispersion corrected density functional theory
     J. Comput. Chem., 2011 32(7)1456-1465
     doi.org/10.1002/jcc.21759

List of suggested additional citations. These are papers that are important in the 'surrounding' of 
of this run, or papers that preceded the highly important papers. If you like your results we are grateful for a citation.

  1. Izsak,R.; Neese,F.
     An overlap fitted chain of spheres exchange method
     J. Chem. Phys., 2011 135 144105
     doi.org/10.1063/1.3646921
  2. Izsak,R.; Hansen,A.; Neese,F.
     The resolution of identity and chain of spheres approximations for the LPNO-CCSD singles Fock term
     Molec. Phys., 2012 110 2413-2417
     doi.org/10.1080/00268976.2012.687466
  3. Neese,F.
     The ORCA program system
     WIRES Comput. Molec. Sci., 2012 2(1)73-78
     doi.org/10.1002/wcms.81
  4. Izsak,R.; Neese,F.; Klopper,W.
     Robust fitting techniques in the chain of spheres approximation to the Fock exchange: The role of the complementary space
     J. Chem. Phys., 2013 139 
     doi.org/10.1063/1.4819264
  5. Neese,F.
     Software update: the ORCA program system, version 4.0
     WIRES Comput. Molec. Sci., 2018 8(1)1-6
     doi.org/10.1002/wcms.1327
  6. Neese,F.; Wennmohs,F.; Becker,U.; Riplinger,C.
     The ORCA quantum chemistry program package
     J. Chem. Phys., 2020 152 Art. No. L224108
     doi.org/10.1063/5.0004608

List of optional additional citations

  1. Neese,F.
     Approximate second-order SCF convergence for spin unrestricted wavefunctions
     Chem. Phys. Lett., 2000 325(1-3)93-98
     doi.org/10.1016/s0009-2614(00)00662-x

Timings for individual modules:

Sum of individual times          ...       24.430 sec (=   0.407 min)
Startup calculation              ...        2.333 sec (=   0.039 min)   9.6 %
SCF iterations                   ...        9.829 sec (=   0.164 min)  40.2 %
Property integrals               ...        2.130 sec (=   0.035 min)   8.7 %
Property calculations            ...        2.045 sec (=   0.034 min)   8.4 %
CIS module                       ...        8.094 sec (=   0.135 min)  33.1 %
                             ****ORCA TERMINATED NORMALLY****
TOTAL RUN TIME: 0 days 0 hours 0 minutes 26 seconds 612 msec
