
                                 *****************
                                 * O   R   C   A *
                                 *****************

                                            #,                                       
                                            ###                                      
                                            ####                                     
                                            #####                                    
                                            ######                                   
                                           ########,                                 
                                     ,,################,,,,,                         
                               ,,#################################,,                 
                          ,,##########################################,,             
                       ,#########################################, ''#####,          
                    ,#############################################,,   '####,        
                  ,##################################################,,,,####,       
                ,###########''''           ''''###############################       
              ,#####''   ,,,,##########,,,,          '''####'''          '####       
            ,##' ,,,,###########################,,,                        '##       
           ' ,,###''''                  '''############,,,                           
         ,,##''                                '''############,,,,        ,,,,,,###''
      ,#''                                            '''#######################'''  
     '                                                          ''''####''''         
             ,#######,   #######,   ,#######,      ##                                
            ,#'     '#,  ##    ##  ,#'     '#,    #''#        ,####,   ,####,        
            ##       ##  ##   ,#'  ##            #'  '#       #'       #'  '#        
            ##       ##  #######   ##           ,######,      #####,   #    #        
            '#,     ,#'  ##    ##  '#,     ,#' ,#      #,     #,   #   #,  ,#        
             '#######'   ##     ##  '#######'  #'      '#     '####' # '####'        



                #########################################################
                #                        -***-                          #
                #          Department of theory and spectroscopy        #
                #                                                       #
                #                      Frank Neese                      #
                #                                                       #
                #     Directorship, Architecture, Infrastructure        #
                #                    SHARK, DRIVERS                     #
                #        Core code/Algorithms in most modules           #
                #                                                       #
                #        Max Planck Institute fuer Kohlenforschung      #
                #                Kaiser Wilhelm Platz 1                 #
                #                 D-45470 Muelheim/Ruhr                 #
                #                      Germany                          #
                #                                                       #
                #                  All rights reserved                  #
                #                        -***-                          #
                #########################################################


                         Program Version 6.0.0  -   RELEASE  -


 With contributions from (in alphabetic order):
   Daniel Aravena         : Magnetic Suceptibility
   Michael Atanasov       : Ab Initio Ligand Field Theory (pilot matlab implementation)
   Alexander A. Auer      : GIAO ZORA, VPT2 properties, NMR spectrum
   Ute Becker             : All parallelization in ORCA, NUMFREQ, NUMCALC
   Giovanni Bistoni       : ED, misc. LED, open-shell LED, HFLD
   Martin Brehm           : Molecular dynamics
   Dmytro Bykov           : pre 5.0 version of the SCF Hessian
   Marcos Casanova-Páez   : Triplet and SCS-CIS(D). UHF-(DLPNO)-IP/EA/STEOM-CCSD. UHF-CVS-IP/STEOM-CCSD
   Vijay G. Chilkuri      : MRCI spin determinant printing, contributions to CSF-ICE
   Pauline Colinet        : FMM embedding
   Dipayan Datta          : RHF DLPNO-CCSD density
   Achintya Kumar Dutta   : EOM-CC, STEOM-CC
   Nicolas Foglia         : Exact transition moments, OPA infrastructure, MCD improvements
   Dmitry Ganyushin       : Spin-Orbit,Spin-Spin,Magnetic field MRCI
   Miquel Garcia          : C-PCM and meta-GGA Hessian, CCSD/C-PCM, Gaussian charge scheme
   Tiago L. C. Gouveia    : GS-ROHF, GS-ROCIS
   Yang Guo               : DLPNO-NEVPT2, F12-NEVPT2, CIM, IAO-localization
   Andreas Hansen         : Spin unrestricted coupled pair/coupled cluster methods
   Ingolf Harden          : AUTO-CI MPn and infrastructure 
   Benjamin Helmich-Paris : MC-RPA, TRAH-(SCF,CASSCF), AVAS, COSX integrals, SCF dyn. polar.
   Lee Huntington         : MR-EOM, pCC
   Robert Izsak           : Overlap fitted RIJCOSX, COSX-SCS-MP3, EOM
   Riya Kayal             : Wick's Theorem for AUTO-CI, AUTO-CI UHF-CCSDT
   Emily Kempfer          : AUTO-CI, RHF CISDT and CCSDT
   Christian Kollmar      : KDIIS, OOCD, Brueckner-CCSD(T), CCSD density, CASPT2, CASPT2-K, improved NEVPT2
   Axel Koslowski         : Symmetry handling
   Simone Kossmann        : Meta GGA functionals, TD-DFT gradient, OOMP2, (MP2 Hessian; deprecated post 5.0)
   Lucas Lang             : DCDCAS
   Marvin Lechner         : AUTO-CI (C++ implementation), FIC-MRCC
   Spencer Leger          : CASSCF response
   Dagmar Lenk            : GEPOL surface, SMD, ORCA-2-JSON
   Dimitrios Liakos       : Extrapolation schemes; Compound Job, initial MDCI parallelization
   Dimitrios Manganas     : Further ROCIS development; embedding schemes. LFT, Crystal Embedding
   Dimitrios Pantazis     : SARC Basis sets
   Anastasios Papadopoulos: AUTO-CI, single reference methods and gradients
   Taras Petrenko         : pre 6.0 DFT Hessian and TD-DFT gradient, (ASA, deprecated), ECA, 1-Electron XAS/XES, NRVS
   Peter Pinski           : DLPNO-MP2, DLPNO-MP2 Gradient
   Christoph Reimann      : Effective Core Potentials
   Marius Retegan         : Local ZFS, SOC
   Christoph Riplinger    : Optimizer, TS searches, QM/MM, DLPNO-CCSD(T), (RO)-DLPNO pert. Triples
   Michael Roemelt        : Original ROCIS implementation
   Masaaki Saitow         : Open-shell DLPNO-CCSD energy and density
   Barbara Sandhoefer     : DKH picture change effects
   Kantharuban Sivalingam : CASSCF convergence/infrastructure, NEVPT2 and variants, FIC-MRCI
   Bernardo de Souza      : ESD, SOC TD-DFT
   Georgi Stoychev        : AutoAux, RI-MP2 NMR, DLPNO-MP2 response, X2C
   Van Anh Tran           : RI-MP2 g-tensors
   Willem Van den Heuvel  : Paramagnetic NMR
   Zikuan Wang            : NOTCH, Electric field optimization 
   Frank Wennmohs         : Technical directorship and infrastructure
   Hang Xu                : AUTO-CI-Response properties 


 We gratefully acknowledge several colleagues who have allowed us to
 interface, adapt or use parts of their codes:
   Stefan Grimme, W. Hujo, H. Kruse, P. Pracht,  : VdW corrections, initial TS optimization,
                  C. Bannwarth, S. Ehlert,         DFT functionals, gCP, sTDA/sTD-DF
                  L. Wittmann, M. Mueller
   Ed Valeev, F. Pavosevic, A. Kumar             : LibInt (2-el integral package), F12 methods
   Garnet Chan, S. Sharma, J. Yang, R. Olivares  : DMRG
   Ulf Ekstrom                                   : XCFun DFT Library
   Mihaly Kallay                                 : mrcc  (arbitrary order and MRCC methods)
   Frank Weinhold                                : gennbo (NPA and NBO analysis)
   Simon Mueller                                 : openCOSMO-RS
   Christopher J. Cramer and Donald G. Truhlar   : smd solvation model
   Lars Goerigk                                  : TD-DFT with DH, B97 family of functionals
   V. Asgeirsson, H. Jonsson                     : NEB implementation
   FAccTs GmbH                                   : IRC, NEB, NEB-TS, DLPNO-Multilevel, CI-OPT
                                                   MM, QMMM, 2- and 3-layer-ONIOM, Crystal-QMMM,
                                                   LR-CPCM, SF, NACMEs, symmetry and pop. for TD-DFT,
                                                   nearIR, NL-DFT gradient (VV10), updates on ESD,
                                                   ML-optimized integration grids, MBIS, APM,
                                                   GOAT, DOCKER, SOLVATOR, interface openCOSMO-RS
   S Lehtola, MJT Oliveira, MAL Marques          : LibXC Library
   Liviu Ungur et al                             : ANISO software


 Your calculation uses the libint2 library for the computation of 2-el integrals
 For citations please refer to: http://libint.valeyev.net

 Your ORCA version has been built with support for libXC version: 6.2.2
 For citations please refer to: https://libxc.gitlab.io

 This ORCA versions uses:
   CBLAS   interface :  Fast vector & matrix operations
   LAPACKE interface :  Fast linear algebra routines
   SCALAPACK package :  Parallel linear algebra routines
   Shared memory     :  Shared parallel matrices
   BLAS/LAPACK       :  OpenBLAS 0.3.27  USE64BITINT DYNAMIC_ARCH NO_AFFINITY Zen SINGLE_THREADED
        Core in use  :  Zen
   Copyright (c) 2011-2014, The OpenBLAS Project


Your calculation utilizes the atom-pairwise dispersion correction
with the Becke-Johnson damping scheme (D3BJ)


Warning: RI is on but no J-basis has been assigned. Assigning Def2/J (nothing to worry about!)
================================================================================

----- Orbital basis set information -----
Your calculation utilizes the basis: def2-TZVPPD
   F. Weigend and R. Ahlrichs, Phys. Chem. Chem. Phys. 7, 3297 (2005).
   D. Rappoport and F. Furche, J. Chem. Phys. 133, 134105 (2010)
   D. Rappoport, J. Chem. Phys. 155, 124102 (2021).

----- AuxJ basis set information -----
Your calculation utilizes the auxiliary basis: def2/J
   F. Weigend, Phys. Chem. Chem. Phys. 8, 1057 (2006).

================================================================================
                                        WARNINGS
                       Please study these warnings very carefully!
================================================================================

Using LibXC functional ID 531 : wB97M-V exchange-correlation functional
[ 1]  N. Mardirossian and M. Head-Gordon.,  J. Chem. Phys. 144, 214110 (2016)
Using LibXC functional ID 531 : wB97M-V exchange-correlation functional
[ 1]  N. Mardirossian and M. Head-Gordon.,  J. Chem. Phys. 144, 214110 (2016)

WARNING: B97M-V or wB97M-V functional requested.
  ===> : libXC variant has now been activated.
         Any manually given DFX/HFX/RangeSep scaling parameters are IGNORED!

Your calculation utilizes LibXC
 by S Lehtola, C Steigemann, MJT Oliveira & MAL Marques
Please cite in your paper:
 S Lehtola, C Steigemann, MJT Oliveira & MAL Marques, SoftwareX, 7, (2018), 1.
   


WARNING: your system is open-shell and RHF/RKS was chosen
  ===> : WILL SWITCH to UHF/UKS

INFO   : Checking CIS options ...

WARNING: CIS/ROCIS methods need fully converged wavefunctions
  ===> : Setting SCFConvForced true
         You can overwrite this default with %scf ConvForced false 


================================================================================
                                       INPUT FILE
================================================================================
NAME = orca.inp
|  1> ! Engrad def2-TZVPPD wB97M-D3BJ 
|  2> %pal nprocs 8 end%pal nprocs 64 end 
|  3> %tddft 
|  4>  Iroot 2 Nroots 3 
|  5> sf true 
|  6> end 
|  7> *xyz 0 3 
|  8> O   -0.32601215 -0.34896925 0.93483244
|  9> C   0.31313028 0.52853794 0.06809242
| 10> C   1.32836738 0.0098215 -0.84429539
| 11> H   0.88854075 1.35321113 0.67306704
| 12> H   -0.33782652 1.1094855 -0.50235711
| 13> H   1.46188617 -1.12531709 -0.79994868
| 14> H   1.58494133 0.49362609 -1.82539957
| 15> *
| 16> 
| 17>                          ****END OF INPUT****
================================================================================

                     *******************************
                     * Energy+Gradient Calculation *
                     *******************************

---------------------------------
CARTESIAN COORDINATES (ANGSTROEM)
---------------------------------
  O     -0.326012   -0.348969    0.934832
  C      0.313130    0.528538    0.068092
  C      1.328367    0.009822   -0.844295
  H      0.888541    1.353211    0.673067
  H     -0.337827    1.109485   -0.502357
  H      1.461886   -1.125317   -0.799949
  H      1.584941    0.493626   -1.825400

----------------------------
CARTESIAN COORDINATES (A.U.)
----------------------------
  NO LB      ZA    FRAG     MASS         X           Y           Z
   0 O     8.0000    0    15.999   -0.616074   -0.659456    1.766577
   1 C     6.0000    0    12.011    0.591730    0.998792    0.128676
   2 C     6.0000    0    12.011    2.510251    0.018560   -1.595487
   3 H     1.0000    0     1.008    1.679099    2.557198    1.271912
   4 H     1.0000    0     1.008   -0.638400    2.096624   -0.949317
   5 H     1.0000    0     1.008    2.762565   -2.126541   -1.511684
   6 H     1.0000    0     1.008    2.995105    0.932818   -3.449505

--------------------------------
INTERNAL COORDINATES (ANGSTROEM)
--------------------------------
 O      0   0   0     0.000000000000     0.00000000     0.00000000
 C      1   0   0     1.389158081932     0.00000000     0.00000000
 C      2   1   0     1.460213898776   119.03507700     0.00000000
 H      2   1   3     1.173532006438   110.35577955   240.81963134
 H      2   1   3     1.042428649459   113.96398762   127.58741599
 H      3   2   1     1.143824075843   114.17149639     3.58643704
 H      3   2   1     1.123593558693   123.46305830   153.76245489

---------------------------
INTERNAL COORDINATES (A.U.)
---------------------------
 O      0   0   0     0.000000000000     0.00000000     0.00000000
 C      1   0   0     2.625128331575     0.00000000     0.00000000
 C      2   1   0     2.759404365632   119.03507700     0.00000000
 H      2   1   3     2.217654101559   110.35577955   240.81963134
 H      2   1   3     1.969904661631   113.96398762   127.58741599
 H      3   2   1     2.161514248729   114.17149639     3.58643704
 H      3   2   1     2.123284111768   123.46305830   153.76245489

---------------------
BASIS SET INFORMATION
---------------------
There are 3 groups of distinct atoms

 Group   1 Type O   : 12s7p3d1f contracted to 6s4p3d1f pattern {621111/4111/111/1}
 Group   2 Type C   : 12s6p3d1f contracted to 6s3p3d1f pattern {621111/411/111/1}
 Group   3 Type H   : 5s3p1d contracted to 3s3p1d pattern {311/111/1}

Atom   0O    basis set group =>   1
Atom   1C    basis set group =>   2
Atom   2C    basis set group =>   2
Atom   3H    basis set group =>   3
Atom   4H    basis set group =>   3
Atom   5H    basis set group =>   3
Atom   6H    basis set group =>   3
---------------------------------
AUXILIARY/J BASIS SET INFORMATION
---------------------------------
There are 3 groups of distinct atoms

 Group   1 Type O   : 12s5p4d2f1g contracted to 6s4p3d1f1g pattern {711111/2111/211/2/1}
 Group   2 Type C   : 12s5p4d2f1g contracted to 6s4p3d1f1g pattern {711111/2111/211/2/1}
 Group   3 Type H   : 5s2p1d contracted to 3s1p1d pattern {311/2/1}

Atom   0O    basis set group =>   1
Atom   1C    basis set group =>   2
Atom   2C    basis set group =>   2
Atom   3H    basis set group =>   3
Atom   4H    basis set group =>   3
Atom   5H    basis set group =>   3
Atom   6H    basis set group =>   3
[1741610624.785135] [ohm:3429072:0]        ib_iface.c:1059 UCX  ERROR ibv_create_cq(cqe=256) failed: Connection timed out
[1741610624.786678] [ohm:3429073:0]        ib_iface.c:1059 UCX  ERROR ibv_create_cq(cqe=256) failed: Connection timed out
[1741610624.806282] [ohm:3429075:0]        ib_iface.c:1059 UCX  ERROR ibv_create_cq(cqe=256) failed: Connection timed out
[1741610624.812653] [ohm:3429071:0]        ib_iface.c:1059 UCX  ERROR ibv_create_cq(cqe=256) failed: Connection timed out
[1741610624.825645] [ohm:3429089:0]        ib_iface.c:1059 UCX  ERROR ibv_create_cq(cqe=256) failed: Connection timed out
[1741610624.839877] [ohm:3429079:0]        ib_iface.c:1059 UCX  ERROR ibv_create_cq(cqe=256) failed: Connection timed out
[1741610624.840235] [ohm:3429074:0]        ib_iface.c:1059 UCX  ERROR ibv_create_cq(cqe=256) failed: Connection timed out
[1741610624.845466] [ohm:3429078:0]        ib_iface.c:1059 UCX  ERROR ibv_create_cq(cqe=256) failed: Connection timed out
[1741610624.846478] [ohm:3429081:0]        ib_iface.c:1059 UCX  ERROR ibv_create_cq(cqe=256) failed: Connection timed out
[1741610624.869783] [ohm:3429103:0]        ib_iface.c:1059 UCX  ERROR ibv_create_cq(cqe=256) failed: Connection timed out
[1741610624.871423] [ohm:3429085:0]        ib_iface.c:1059 UCX  ERROR ibv_create_cq(cqe=256) failed: Connection timed out
[1741610624.877960] [ohm:3429114:0]        ib_iface.c:1059 UCX  ERROR ibv_create_cq(cqe=256) failed: Connection timed out
[1741610624.880403] [ohm:3429102:0]        ib_iface.c:1059 UCX  ERROR ibv_create_cq(cqe=256) failed: Connection timed out
[1741610624.887739] [ohm:3429110:0]        ib_iface.c:1059 UCX  ERROR ibv_create_cq(cqe=256) failed: Connection timed out
[1741610624.915846] [ohm:3429204:0]        ib_iface.c:1059 UCX  ERROR ibv_create_cq(cqe=256) failed: Connection timed out
[1741610624.916510] [ohm:3429120:0]        ib_iface.c:1059 UCX  ERROR ibv_create_cq(cqe=256) failed: Connection timed out
[1741610624.931906] [ohm:3429147:0]        ib_iface.c:1059 UCX  ERROR ibv_create_cq(cqe=256) failed: Connection timed out
[1741610624.969309] [ohm:3429112:0]        ib_iface.c:1059 UCX  ERROR ibv_create_cq(cqe=256) failed: Connection timed out
[1741610624.993905] [ohm:3429121:0]        ib_iface.c:1059 UCX  ERROR ibv_create_cq(cqe=256) failed: Connection timed out
[1741610624.994788] [ohm:3429127:0]        ib_iface.c:1059 UCX  ERROR ibv_create_cq(cqe=256) failed: Connection timed out
[1741610624.998169] [ohm:3429115:0]        ib_iface.c:1059 UCX  ERROR ibv_create_cq(cqe=256) failed: Connection timed out
[1741610625.002569] [ohm:3429152:0]        ib_iface.c:1059 UCX  ERROR ibv_create_cq(cqe=256) failed: Connection timed out
[1741610625.006999] [ohm:3429093:0]        ib_iface.c:1059 UCX  ERROR ibv_create_cq(cqe=256) failed: Connection timed out
[1741610625.008622] [ohm:3429131:0]        ib_iface.c:1059 UCX  ERROR ibv_create_cq(cqe=256) failed: Connection timed out
[1741610625.011604] [ohm:3429076:0]        ib_iface.c:1059 UCX  ERROR ibv_create_cq(cqe=256) failed: Connection timed out
[1741610625.012787] [ohm:3429077:0]        ib_iface.c:1059 UCX  ERROR ibv_create_cq(cqe=256) failed: Connection timed out
[1741610625.018665] [ohm:3429153:0]        ib_iface.c:1059 UCX  ERROR ibv_create_cq(cqe=256) failed: Connection timed out
[1741610625.024670] [ohm:3429185:0]        ib_iface.c:1059 UCX  ERROR ibv_create_cq(cqe=256) failed: Connection timed out
[1741610625.030274] [ohm:3429123:0]        ib_iface.c:1059 UCX  ERROR ibv_create_cq(cqe=256) failed: Connection timed out
[1741610625.037453] [ohm:3429217:0]        ib_iface.c:1059 UCX  ERROR ibv_create_cq(cqe=256) failed: Connection timed out
[1741610625.038395] [ohm:3429143:0]        ib_iface.c:1059 UCX  ERROR ibv_create_cq(cqe=256) failed: Connection timed out
[1741610625.039834] [ohm:3429116:0]        ib_iface.c:1059 UCX  ERROR ibv_create_cq(cqe=256) failed: Connection timed out
[1741610625.046810] [ohm:3429118:0]        ib_iface.c:1059 UCX  ERROR ibv_create_cq(cqe=256) failed: Connection timed out
[1741610625.055453] [ohm:3429125:0]        ib_iface.c:1059 UCX  ERROR ibv_create_cq(cqe=256) failed: Connection timed out
[1741610625.061313] [ohm:3429126:0]        ib_iface.c:1059 UCX  ERROR ibv_create_cq(cqe=256) failed: Connection timed out
[1741610625.070696] [ohm:3429117:0]        ib_iface.c:1059 UCX  ERROR ibv_create_cq(cqe=256) failed: Connection timed out
[1741610625.071030] [ohm:3429212:0]        ib_iface.c:1059 UCX  ERROR ibv_create_cq(cqe=256) failed: Connection timed out
[1741610625.073182] [ohm:3429140:0]        ib_iface.c:1059 UCX  ERROR ibv_create_cq(cqe=256) failed: Connection timed out
[1741610625.080564] [ohm:3429130:0]        ib_iface.c:1059 UCX  ERROR ibv_create_cq(cqe=256) failed: Connection timed out
[1741610625.094197] [ohm:3429135:0]        ib_iface.c:1059 UCX  ERROR ibv_create_cq(cqe=256) failed: Connection timed out
[1741610625.094279] [ohm:3429198:0]        ib_iface.c:1059 UCX  ERROR ibv_create_cq(cqe=256) failed: Connection timed out
[1741610625.097793] [ohm:3429175:0]        ib_iface.c:1059 UCX  ERROR ibv_create_cq(cqe=256) failed: Connection timed out
[1741610625.098711] [ohm:3429119:0]        ib_iface.c:1059 UCX  ERROR ibv_create_cq(cqe=256) failed: Connection timed out
[1741610625.098805] [ohm:3429194:0]        ib_iface.c:1059 UCX  ERROR ibv_create_cq(cqe=256) failed: Connection timed out
[1741610625.100173] [ohm:3429148:0]        ib_iface.c:1059 UCX  ERROR ibv_create_cq(cqe=256) failed: Connection timed out
[1741610625.101859] [ohm:3429136:0]        ib_iface.c:1059 UCX  ERROR ibv_create_cq(cqe=256) failed: Connection timed out
[1741610625.105409] [ohm:3429122:0]        ib_iface.c:1059 UCX  ERROR ibv_create_cq(cqe=256) failed: Connection timed out
[1741610625.108801] [ohm:3429170:0]        ib_iface.c:1059 UCX  ERROR ibv_create_cq(cqe=256) failed: Connection timed out
[1741610625.117820] [ohm:3429132:0]        ib_iface.c:1059 UCX  ERROR ibv_create_cq(cqe=256) failed: Connection timed out
[1741610625.120836] [ohm:3429166:0]        ib_iface.c:1059 UCX  ERROR ibv_create_cq(cqe=256) failed: Connection timed out
[1741610625.121576] [ohm:3429124:0]        ib_iface.c:1059 UCX  ERROR ibv_create_cq(cqe=256) failed: Connection timed out
[1741610625.125256] [ohm:3429203:0]        ib_iface.c:1059 UCX  ERROR ibv_create_cq(cqe=256) failed: Connection timed out
[1741610625.130438] [ohm:3429199:0]        ib_iface.c:1059 UCX  ERROR ibv_create_cq(cqe=256) failed: Connection timed out
[1741610625.130634] [ohm:3429161:0]        ib_iface.c:1059 UCX  ERROR ibv_create_cq(cqe=256) failed: Connection timed out
[1741610625.131401] [ohm:3429189:0]        ib_iface.c:1059 UCX  ERROR ibv_create_cq(cqe=256) failed: Connection timed out
[1741610625.133281] [ohm:3429179:0]        ib_iface.c:1059 UCX  ERROR ibv_create_cq(cqe=256) failed: Connection timed out
[1741610625.135267] [ohm:3429193:0]        ib_iface.c:1059 UCX  ERROR ibv_create_cq(cqe=256) failed: Connection timed out
[1741610625.137273] [ohm:3429157:0]        ib_iface.c:1059 UCX  ERROR ibv_create_cq(cqe=256) failed: Connection timed out
[1741610625.138212] [ohm:3429207:0]        ib_iface.c:1059 UCX  ERROR ibv_create_cq(cqe=256) failed: Connection timed out
[1741610625.138215] [ohm:3429177:0]        ib_iface.c:1059 UCX  ERROR ibv_create_cq(cqe=256) failed: Connection timed out
[1741610625.138352] [ohm:3429128:0]        ib_iface.c:1059 UCX  ERROR ibv_create_cq(cqe=256) failed: Connection timed out
[1741610625.138619] [ohm:3429129:0]        ib_iface.c:1059 UCX  ERROR ibv_create_cq(cqe=256) failed: Connection timed out
[1741610625.139425] [ohm:3429224:0]        ib_iface.c:1059 UCX  ERROR ibv_create_cq(cqe=256) failed: Connection timed out
[1741610625.139833] [ohm:3429182:0]        ib_iface.c:1059 UCX  ERROR ibv_create_cq(cqe=256) failed: Connection timed out


           ************************************************************
           *        Program running with 64 parallel MPI-processes    *
           *              working on a common directory               *
           ************************************************************
------------------------------------------------------------------------------
                             ORCA STARTUP CALCULATIONS
                           -- RI-GTO INTEGRALS CHOSEN --
------------------------------------------------------------------------------
------------------------------------------------------------------------------
                   ___                                                        
                  /   \      - P O W E R E D   B Y -                         
                 /     \                                                     
                 |  |  |   _    _      __       _____    __    __             
                 |  |  |  | |  | |    /  \     |  _  \  |  |  /  |          
                  \  \/   | |  | |   /    \    | | | |  |  | /  /          
                 / \  \   | |__| |  /  /\  \   | |_| |  |  |/  /          
                |  |  |   |  __  | /  /__\  \  |    /   |      \           
                |  |  |   | |  | | |   __   |  |    \   |  |\   \          
                \     /   | |  | | |  |  |  |  | |\  \  |  | \   \       
                 \___/    |_|  |_| |__|  |__|  |_| \__\ |__|  \__/        
                                                                              
                      - O R C A' S   B I G   F R I E N D -                    
                                      &                                       
                       - I N T E G R A L  F E E D E R -                       
                                                                              
 v1 FN, 2020, v2 2021, v3 2022-2024                                           
------------------------------------------------------------------------------


----------------------
SHARK INTEGRAL PACKAGE
----------------------

Number of atoms                             ...      7
Number of basis functions                   ...    182
Number of shells                            ...     68
Maximum angular momentum                    ...      3
Integral batch strategy                     ... SHARK/LIBINT Hybrid
RI-J (if used) integral strategy            ... SPLIT-RIJ (Revised 2003 algorithm where possible)
Printlevel                                  ...      1
Contraction scheme used                     ... SEGMENTED contraction
Prescreening option                         ... SCHWARTZ
   Thresh                                   ... 2.500e-11
   Tcut                                     ... 2.500e-12
   Tpresel                                  ... 2.500e-12 
Coulomb Range Separation                    ... NOT USED
Exchange Range Separation                   ... Long Range
   Mu parameter                             ... 3.000e-01
   Scaling (regular/separated)              ... 1.500e-01 8.500e-01
Multipole approximations                    ... NOT USED
Finite Nucleus Model                        ... NOT USED
CABS basis                                  ... NOT available
Auxiliary Coulomb fitting basis             ... AVAILABLE
   # of basis functions in Aux-J            ...    191
   # of shells in Aux-J                     ...     65
   Maximum angular momentum in Aux-J        ...      4
Auxiliary J/K fitting basis                 ... NOT available
Auxiliary Correlation fitting basis         ... NOT available
Auxiliary 'external' fitting basis          ... NOT available

Checking pre-screening integrals            ... done (  0.0 sec) Dimension = 68
Check shell pair data                       ... done (  0.0 sec)
Shell pair information
Shell pair cut-off parameter TPreSel        ...   2.5e-12
Total number of shell pairs                 ...      2346
Shell pairs after pre-screening             ...      2325
Total number of primitive shell pairs       ...      5434
Primitive shell pairs kept                  ...      4815
          la=0 lb=0:    455 shell pairs
          la=1 lb=0:    655 shell pairs
          la=1 lb=1:    252 shell pairs
          la=2 lb=0:    386 shell pairs
          la=2 lb=1:    285 shell pairs
          la=2 lb=2:     91 shell pairs
          la=3 lb=0:     90 shell pairs
          la=3 lb=1:     66 shell pairs
          la=3 lb=2:     39 shell pairs
          la=3 lb=3:      6 shell pairs

Calculating one electron integrals          ... done (  0.0 sec)
Calculating RI/J V-Matrix + Cholesky decomp.... done (  0.0 sec)
Calculating Nuclear repulsion               ... done (  0.0 sec) ENN=     67.247666288233 Eh

Diagonalization of the overlap matrix:
Smallest eigenvalue                        ... 1.618e-05
Time for diagonalization                   ...    0.004 sec
Threshold for overlap eigenvalues          ... 1.000e-07
Number of eigenvalues below threshold      ... 0
Time for construction of square roots      ...    0.004 sec
Total time needed                          ...    0.010 sec

-------------------
DFT GRID GENERATION
-------------------

General Integration Accuracy     IntAcc      ... 4.388
Radial Grid Type                 RadialGrid  ... OptM3 with GC (2021)
Angular Grid (max. ang.)         AngularGrid ... 4 (Lebedev-302)
Angular grid pruning method      GridPruning ... 4 (adaptive)
Weight generation scheme         WeightScheme... mBecke (2022)
Basis function cutoff            BFCut       ... 1.0000e-11
Integration weight cutoff        WCut        ... 1.0000e-14
Partially contracted basis set               ... off
Rotationally invariant grid construction     ... off
Angular grids for H and He will be reduced by one unit
Diffuse basis detected: some atoms will have their outermost
                        angular grid increased by 1.

Total number of grid points                  ...    33171
Total number of batches                      ...      522
Average number of points per batch           ...       63
Average number of grid points per atom       ...     4739

--------------------
COSX GRID GENERATION
--------------------

GRIDX 1
-------
General Integration Accuracy     IntAcc      ... 3.816
Radial Grid Type                 RadialGrid  ... OptM3 with GC (2021)
Angular Grid (max. ang.)         AngularGrid ... 1 (Lebedev-50)
Angular grid pruning method      GridPruning ... 4 (adaptive)
Weight generation scheme         WeightScheme... mBecke (2022)
Basis function cutoff            BFCut       ... 1.0000e-11
Integration weight cutoff        WCut        ... 1.0000e-14
Partially contracted basis set               ... on
Rotationally invariant grid construction     ... off
Angular grids for H and He will be reduced by one unit
Diffuse basis detected: some atoms will have their outermost
                        angular grid increased by 1.

Total number of grid points                  ...     4165
Total number of batches                      ...       36
Average number of points per batch           ...      115
Average number of grid points per atom       ...      595
UseSFitting                                  ... on

GRIDX 2
-------
General Integration Accuracy     IntAcc      ... 4.020
Radial Grid Type                 RadialGrid  ... OptM3 with GC (2021)
Angular Grid (max. ang.)         AngularGrid ... 2 (Lebedev-110)
Angular grid pruning method      GridPruning ... 4 (adaptive)
Weight generation scheme         WeightScheme... mBecke (2022)
Basis function cutoff            BFCut       ... 1.0000e-11
Integration weight cutoff        WCut        ... 1.0000e-14
Partially contracted basis set               ... on
Rotationally invariant grid construction     ... off
Angular grids for H and He will be reduced by one unit
Diffuse basis detected: some atoms will have their outermost
                        angular grid increased by 1.

Total number of grid points                  ...    10296
Total number of batches                      ...       84
Average number of points per batch           ...      122
Average number of grid points per atom       ...     1471
UseSFitting                                  ... on

GRIDX 3
-------
General Integration Accuracy     IntAcc      ... 4.338
Radial Grid Type                 RadialGrid  ... OptM3 with GC (2021)
Angular Grid (max. ang.)         AngularGrid ... 3 (Lebedev-194)
Angular grid pruning method      GridPruning ... 4 (adaptive)
Weight generation scheme         WeightScheme... mBecke (2022)
Basis function cutoff            BFCut       ... 1.0000e-11
Integration weight cutoff        WCut        ... 1.0000e-14
Partially contracted basis set               ... on
Rotationally invariant grid construction     ... off
Angular grids for H and He will be reduced by one unit
Diffuse basis detected: some atoms will have their outermost
                        angular grid increased by 1.

Total number of grid points                  ...    23173
Total number of batches                      ...      185
Average number of points per batch           ...      125
Average number of grid points per atom       ...     3310
UseSFitting                                  ... on
Initializing property integral containers    ... done (  0.0 sec)

SHARK setup successfully completed in   0.4 seconds

Maximum memory used throughout the entire STARTUP-calculation: 13.8 MB
[1741610627.199173] [ohm:3429429:0]        ib_iface.c:1059 UCX  ERROR ibv_create_cq(cqe=256) failed: Connection timed out
[1741610627.199409] [ohm:3429433:0]        ib_iface.c:1059 UCX  ERROR ibv_create_cq(cqe=256) failed: Connection timed out
[1741610627.206824] [ohm:3429437:0]        ib_iface.c:1059 UCX  ERROR ibv_create_cq(cqe=256) failed: Connection timed out
[1741610627.214738] [ohm:3429426:0]        ib_iface.c:1059 UCX  ERROR ibv_create_cq(cqe=256) failed: Connection timed out
[1741610627.216452] [ohm:3429425:0]        ib_iface.c:1059 UCX  ERROR ibv_create_cq(cqe=256) failed: Connection timed out
[1741610627.219643] [ohm:3429431:0]        ib_iface.c:1059 UCX  ERROR ibv_create_cq(cqe=256) failed: Connection timed out
[1741610627.224666] [ohm:3429424:0]        ib_iface.c:1059 UCX  ERROR ibv_create_cq(cqe=256) failed: Connection timed out
[1741610627.231133] [ohm:3429434:0]        ib_iface.c:1059 UCX  ERROR ibv_create_cq(cqe=256) failed: Connection timed out
[1741610627.232754] [ohm:3429430:0]        ib_iface.c:1059 UCX  ERROR ibv_create_cq(cqe=256) failed: Connection timed out
[1741610627.236674] [ohm:3429428:0]        ib_iface.c:1059 UCX  ERROR ibv_create_cq(cqe=256) failed: Connection timed out
[1741610627.241640] [ohm:3429427:0]        ib_iface.c:1059 UCX  ERROR ibv_create_cq(cqe=256) failed: Connection timed out
[1741610627.305851] [ohm:3429436:0]        ib_iface.c:1059 UCX  ERROR ibv_create_cq(cqe=256) failed: Connection timed out
[1741610627.310715] [ohm:3429432:0]        ib_iface.c:1059 UCX  ERROR ibv_create_cq(cqe=256) failed: Connection timed out
[1741610627.319036] [ohm:3429481:0]        ib_iface.c:1059 UCX  ERROR ibv_create_cq(cqe=256) failed: Connection timed out
[1741610627.332742] [ohm:3429455:0]        ib_iface.c:1059 UCX  ERROR ibv_create_cq(cqe=256) failed: Connection timed out
[1741610627.341821] [ohm:3429478:0]        ib_iface.c:1059 UCX  ERROR ibv_create_cq(cqe=256) failed: Connection timed out
[1741610627.349320] [ohm:3429508:0]        ib_iface.c:1059 UCX  ERROR ibv_create_cq(cqe=256) failed: Connection timed out
[1741610627.352880] [ohm:3429496:0]        ib_iface.c:1059 UCX  ERROR ibv_create_cq(cqe=256) failed: Connection timed out
[1741610627.355542] [ohm:3429487:0]        ib_iface.c:1059 UCX  ERROR ibv_create_cq(cqe=256) failed: Connection timed out
[1741610627.361149] [ohm:3429435:0]        ib_iface.c:1059 UCX  ERROR ibv_create_cq(cqe=256) failed: Connection timed out
[1741610627.364073] [ohm:3429553:0]        ib_iface.c:1059 UCX  ERROR ibv_create_cq(cqe=256) failed: Connection timed out
[1741610627.365068] [ohm:3429452:0]        ib_iface.c:1059 UCX  ERROR ibv_create_cq(cqe=256) failed: Connection timed out
[1741610627.373137] [ohm:3429563:0]        ib_iface.c:1059 UCX  ERROR ibv_create_cq(cqe=256) failed: Connection timed out
[1741610627.374927] [ohm:3429466:0]        ib_iface.c:1059 UCX  ERROR ibv_create_cq(cqe=256) failed: Connection timed out
[1741610627.375163] [ohm:3429476:0]        ib_iface.c:1059 UCX  ERROR ibv_create_cq(cqe=256) failed: Connection timed out
[1741610627.385644] [ohm:3429562:0]        ib_iface.c:1059 UCX  ERROR ibv_create_cq(cqe=256) failed: Connection timed out
[1741610627.389768] [ohm:3429475:0]        ib_iface.c:1059 UCX  ERROR ibv_create_cq(cqe=256) failed: Connection timed out
[1741610627.407329] [ohm:3429523:0]        ib_iface.c:1059 UCX  ERROR ibv_create_cq(cqe=256) failed: Connection timed out
[1741610627.408290] [ohm:3429529:0]        ib_iface.c:1059 UCX  ERROR ibv_create_cq(cqe=256) failed: Connection timed out
[1741610627.425295] [ohm:3429477:0]        ib_iface.c:1059 UCX  ERROR ibv_create_cq(cqe=256) failed: Connection timed out
[1741610627.430424] [ohm:3429519:0]        ib_iface.c:1059 UCX  ERROR ibv_create_cq(cqe=256) failed: Connection timed out
[1741610627.432965] [ohm:3429479:0]        ib_iface.c:1059 UCX  ERROR ibv_create_cq(cqe=256) failed: Connection timed out
[1741610627.435084] [ohm:3429469:0]        ib_iface.c:1059 UCX  ERROR ibv_create_cq(cqe=256) failed: Connection timed out
[1741610627.439282] [ohm:3429494:0]        ib_iface.c:1059 UCX  ERROR ibv_create_cq(cqe=256) failed: Connection timed out
[1741610627.442024] [ohm:3429535:0]        ib_iface.c:1059 UCX  ERROR ibv_create_cq(cqe=256) failed: Connection timed out
[1741610627.443350] [ohm:3429501:0]        ib_iface.c:1059 UCX  ERROR ibv_create_cq(cqe=256) failed: Connection timed out
[1741610627.445585] [ohm:3429454:0]        ib_iface.c:1059 UCX  ERROR ibv_create_cq(cqe=256) failed: Connection timed out
[1741610627.452762] [ohm:3429488:0]        ib_iface.c:1059 UCX  ERROR ibv_create_cq(cqe=256) failed: Connection timed out
[1741610627.454654] [ohm:3429538:0]        ib_iface.c:1059 UCX  ERROR ibv_create_cq(cqe=256) failed: Connection timed out
[1741610627.464816] [ohm:3429484:0]        ib_iface.c:1059 UCX  ERROR ibv_create_cq(cqe=256) failed: Connection timed out
[1741610627.478389] [ohm:3429499:0]        ib_iface.c:1059 UCX  ERROR ibv_create_cq(cqe=256) failed: Connection timed out
[1741610627.482830] [ohm:3429545:0]        ib_iface.c:1059 UCX  ERROR ibv_create_cq(cqe=256) failed: Connection timed out
[1741610627.485787] [ohm:3429490:0]        ib_iface.c:1059 UCX  ERROR ibv_create_cq(cqe=256) failed: Connection timed out
[1741610627.491942] [ohm:3429471:0]        ib_iface.c:1059 UCX  ERROR ibv_create_cq(cqe=256) failed: Connection timed out
[1741610627.492640] [ohm:3429571:0]        ib_iface.c:1059 UCX  ERROR ibv_create_cq(cqe=256) failed: Connection timed out
[1741610627.498093] [ohm:3429486:0]        ib_iface.c:1059 UCX  ERROR ibv_create_cq(cqe=256) failed: Connection timed out
[1741610627.498396] [ohm:3429489:0]        ib_iface.c:1059 UCX  ERROR ibv_create_cq(cqe=256) failed: Connection timed out
[1741610627.502434] [ohm:3429480:0]        ib_iface.c:1059 UCX  ERROR ibv_create_cq(cqe=256) failed: Connection timed out
[1741610627.505370] [ohm:3429505:0]        ib_iface.c:1059 UCX  ERROR ibv_create_cq(cqe=256) failed: Connection timed out
[1741610627.506769] [ohm:3429531:0]        ib_iface.c:1059 UCX  ERROR ibv_create_cq(cqe=256) failed: Connection timed out
[1741610627.511252] [ohm:3429513:0]        ib_iface.c:1059 UCX  ERROR ibv_create_cq(cqe=256) failed: Connection timed out
[1741610627.515069] [ohm:3429483:0]        ib_iface.c:1059 UCX  ERROR ibv_create_cq(cqe=256) failed: Connection timed out
[1741610627.520251] [ohm:3429543:0]        ib_iface.c:1059 UCX  ERROR ibv_create_cq(cqe=256) failed: Connection timed out
[1741610627.520311] [ohm:3429453:0]        ib_iface.c:1059 UCX  ERROR ibv_create_cq(cqe=256) failed: Connection timed out
[1741610627.523445] [ohm:3429461:0]        ib_iface.c:1059 UCX  ERROR ibv_create_cq(cqe=256) failed: Connection timed out
[1741610627.524580] [ohm:3429512:0]        ib_iface.c:1059 UCX  ERROR ibv_create_cq(cqe=256) failed: Connection timed out
[1741610627.524583] [ohm:3429560:0]        ib_iface.c:1059 UCX  ERROR ibv_create_cq(cqe=256) failed: Connection timed out
[1741610627.525255] [ohm:3429556:0]        ib_iface.c:1059 UCX  ERROR ibv_create_cq(cqe=256) failed: Connection timed out
[1741610627.525282] [ohm:3429474:0]        ib_iface.c:1059 UCX  ERROR ibv_create_cq(cqe=256) failed: Connection timed out
[1741610627.526986] [ohm:3429547:0]        ib_iface.c:1059 UCX  ERROR ibv_create_cq(cqe=256) failed: Connection timed out
[1741610627.530421] [ohm:3429570:0]        ib_iface.c:1059 UCX  ERROR ibv_create_cq(cqe=256) failed: Connection timed out
[1741610627.531161] [ohm:3429485:0]        ib_iface.c:1059 UCX  ERROR ibv_create_cq(cqe=256) failed: Connection timed out
[1741610627.531521] [ohm:3429482:0]        ib_iface.c:1059 UCX  ERROR ibv_create_cq(cqe=256) failed: Connection timed out
[1741610627.532318] [ohm:3429565:0]        ib_iface.c:1059 UCX  ERROR ibv_create_cq(cqe=256) failed: Connection timed out


           ************************************************************
           *        Program running with 64 parallel MPI-processes    *
           *              working on a common directory               *
           ************************************************************
-------------------------------------------------------------------------------
                                 ORCA GUESS
                   Start orbitals & Density for SCF / CASSCF
-------------------------------------------------------------------------------

------------
SCF SETTINGS
------------
Hamiltonian:
 Density Functional     Method          .... DFT(GTOs)
  Functional kind                       .... Exchange-Correlation
  Functional name                       .... wB97M-V exchange-correlation functional
  Functional family                     .... Hybrid MGGA
  Functional refs                              
    [ 0] N. Mardirossian and M. Head-Gordon.,  J. Chem. Phys. 144, 214110 (2016), doi: 10.1063/1.4952647
  Fraction of HF Exchange (short range) .... 0.1500
  Fraction of HF Exchange (long range)  .... 1.0000
  Range separation parameter mu         .... 0.3000
  Functional external parameters        .... 17
    Parameter  0 _cx00      =  8.500000e-01 : u^00 coefficient for exchange
    Parameter  1 _cx01      =  1.007000e+00 : u^01 coefficient for exchange
    Parameter  2 _cx10      =  2.590000e-01 : u^10 coefficient for exchange
    Parameter  3 _css00     =  4.430000e-01 : u^00 coefficient for same-spin correlation
    Parameter  4 _css04     = -1.437000e+00 : u^04 coefficient for same-spin correlation
    Parameter  5 _css10     = -4.535000e+00 : u^10 coefficient for same-spin correlation
    Parameter  6 _css20     = -3.390000e+00 : u^20 coefficient for same-spin correlation
    Parameter  7 _css43     =  4.278000e+00 : u^43 coefficient for same-spin correlation
    Parameter  8 _cos00     =  1.000000e+00 : u^00 coefficient for opposite-spin correlation
    Parameter  9 _cos10     =  1.358000e+00 : u^10 coefficient for opposite-spin correlation
    Parameter 10 _cos20     =  2.924000e+00 : u^20 coefficient for opposite-spin correlation
    Parameter 11 _cos21     = -8.812000e+00 : u^21 coefficient for opposite-spin correlation
    Parameter 12 _cos60     = -1.390000e+00 : u^60 coefficient for opposite-spin correlation
    Parameter 13 _cos61     =  9.142000e+00 : u^61 coefficient for opposite-spin correlation
    Parameter 14 _alpha     =  1.000000e+00 : fraction of HF exchange
    Parameter 15 _beta      = -8.500000e-01 : fraction of short-range exchange
    Parameter 16 _omega     =  3.000000e-01 : range-separation constant
 Long-range corrected/Screened/Range-Separated Hybrid DFT is turned on
   Amount of maximum screened exact exchange              ....  0.850000
   Range separation parameter mu (erf(mu*r12)/r12)        ....  0.300000
 RI-approximation to the Coulomb term is turned on
   Number of AuxJ basis functions       .... 191
   RIJ-COSX (HFX calculated with COS-X)).... on


General Settings:
 Integral files         IntName         .... orca
 Hartree-Fock type      HFTyp           .... UHF
 Total Charge           Charge          ....    0
 Multiplicity           Mult            ....    3
 Number of Electrons    NEL             ....   24
 Basis Dimension        Dim             ....  182
 Nuclear Repulsion      ENuc            ....     67.2476662882 Eh

Convergence Acceleration:
 AO-DIIS                CNVDIIS         .... on
   Start iteration      DIISMaxIt       ....    12
   Startup error        DIISStart       ....  0.200000
   # of expansion vecs  DIISMaxEq       ....     5
   Bias factor          DIISBfac        ....   1.050
   Max. coefficient     DIISMaxC        ....  10.000
 MO-DIIS                CNVKDIIS        .... off
 Trust-Rad. Augm. Hess. CNVTRAH         .... auto
   Auto Start mean grad. ratio tolernc. ....  1.125000
   Auto Start start iteration           ....    50
   Auto Start num. interpolation iter.  ....    10
   Max. Number of Micro iterations      ....    24
   Max. Number of Macro iterations      .... Maxiter - #DIIS iter
   Number of Davidson start vectors     ....     2
   Converg. threshold    (grad. norm)   ....   1.000e-05
   Grad. Scal. Fac. for Micro threshold ....   0.100
   Minimum threshold for Micro iter.    ....   1.000e-02
   NR start threshold (gradient norm)   ....   1.000e-04
   Initial trust radius                 ....   0.400
   Minimum AH scaling param. (alpha)    ....   1.000
   Maximum AH scaling param. (alpha)    .... 1000.000
   Quad. conv. algorithm                .... NR
   White noise on init. David. guess    .... on
   Maximum white noise                  ....   0.010
   Pseudo random numbers                .... off
   Inactive MOs                         .... canonical
   Orbital update algorithm             .... Taylor
   Preconditioner                       .... Diag
   Full preconditioner red. dimension   ....   250
 SOSCF                  CNVSOSCF        .... on
   Start iteration      SOSCFMaxIt      ....   150
   Startup grad/error   SOSCFStart      ....  0.003300
   Hessian update       SOSCFHessUp     .... L-BFGS
 Level Shifting         CNVShift        .... on
   Level shift para.    LevelShift      ....    0.2500
   Turn off err/grad.   ShiftErr        ....    0.0010
 Zerner damping         CNVZerner       .... off
 Static damping         CNVDamp         .... on
   Fraction old density DampFac         ....    0.7000
   Max. Damping (<1)    DampMax         ....    0.9800
   Min. Damping (>=0)   DampMin         ....    0.0000
   Turn off err/grad.   DampErr         ....    0.1000

SCF Procedure:
 Maximum # iterations   MaxIter         ....   125
 SCF integral mode      SCFMode         .... Direct
   Integral package                     .... SHARK and LIBINT hybrid scheme
 Reset frequency        DirectResetFreq ....    20
 Integral Threshold     Thresh          ....  2.500e-11 Eh
 Primitive CutOff       TCut            ....  2.500e-12 Eh

Convergence Tolerance:
 Convergence Check Mode ConvCheckMode   .... Total+1el-Energy
 Convergence forced     ConvForced      .... 1
 Energy Change          TolE            ....  1.000e-08 Eh
 1-El. energy change                    ....  1.000e-05 Eh
 Orbital Gradient       TolG            ....  1.000e-05
 Orbital Rotation angle TolX            ....  1.000e-05
 DIIS Error             TolErr          ....  5.000e-07

------------------------------
INITIAL GUESS: MODEL POTENTIAL
------------------------------
Loading Hartree-Fock densities                     ... done
Calculating cut-offs                               ... done
Initializing the effective Hamiltonian             ... done
Setting up the integral package (SHARK)            ... done
Starting the Coulomb interaction                   ... done (   0.0 sec)
Making the grid                                    ... done (   0.0 sec)
Mapping shells                                     ... done
Starting the XC term evaluation                    ... done (   0.0 sec)
  promolecular density results
     # of electrons  =     23.997483576
     EX              =    -19.445113336
     EC              =     -0.763459043
     EX+EC           =    -20.208572379
Transforming the Hamiltonian                       ... done (   0.0 sec)
Diagonalizing the Hamiltonian                      ... done (   0.0 sec)
Back transforming the eigenvectors                 ... done (   0.0 sec)
Now organizing SCF variables                       ... done
                      ------------------
                      INITIAL GUESS DONE (   0.1 sec)
                      ------------------
             **** ENERGY FILE WAS UPDATED (orca.en.tmp) ****
Finished Guess after   1.7 sec
Maximum memory used throughout the entire GUESS-calculation: 9.5 MB
[1741610629.348421] [ohm:3429758:0]        ib_iface.c:1059 UCX  ERROR ibv_create_cq(cqe=256) failed: Connection timed out
[1741610629.350499] [ohm:3429752:0]        ib_iface.c:1059 UCX  ERROR ibv_create_cq(cqe=256) failed: Connection timed out
[1741610629.365004] [ohm:3429761:0]        ib_iface.c:1059 UCX  ERROR ibv_create_cq(cqe=256) failed: Connection timed out
[1741610629.374556] [ohm:3429769:0]        ib_iface.c:1059 UCX  ERROR ibv_create_cq(cqe=256) failed: Connection timed out
[1741610629.375783] [ohm:3429763:0]        ib_iface.c:1059 UCX  ERROR ibv_create_cq(cqe=256) failed: Connection timed out
[1741610629.375997] [ohm:3429767:0]        ib_iface.c:1059 UCX  ERROR ibv_create_cq(cqe=256) failed: Connection timed out
[1741610629.383996] [ohm:3429778:0]        ib_iface.c:1059 UCX  ERROR ibv_create_cq(cqe=256) failed: Connection timed out
[1741610629.386153] [ohm:3429786:0]        ib_iface.c:1059 UCX  ERROR ibv_create_cq(cqe=256) failed: Connection timed out
[1741610629.388164] [ohm:3429756:0]        ib_iface.c:1059 UCX  ERROR ibv_create_cq(cqe=256) failed: Connection timed out
[1741610629.390571] [ohm:3429757:0]        ib_iface.c:1059 UCX  ERROR ibv_create_cq(cqe=256) failed: Connection timed out
[1741610629.403758] [ohm:3429798:0]        ib_iface.c:1059 UCX  ERROR ibv_create_cq(cqe=256) failed: Connection timed out
[1741610629.413563] [ohm:3429787:0]        ib_iface.c:1059 UCX  ERROR ibv_create_cq(cqe=256) failed: Connection timed out
[1741610629.424820] [ohm:3429784:0]        ib_iface.c:1059 UCX  ERROR ibv_create_cq(cqe=256) failed: Connection timed out
[1741610629.431395] [ohm:3429765:0]        ib_iface.c:1059 UCX  ERROR ibv_create_cq(cqe=256) failed: Connection timed out
[1741610629.431525] [ohm:3429789:0]        ib_iface.c:1059 UCX  ERROR ibv_create_cq(cqe=256) failed: Connection timed out
[1741610629.441775] [ohm:3429753:0]        ib_iface.c:1059 UCX  ERROR ibv_create_cq(cqe=256) failed: Connection timed out
[1741610629.447478] [ohm:3429788:0]        ib_iface.c:1059 UCX  ERROR ibv_create_cq(cqe=256) failed: Connection timed out
[1741610629.480457] [ohm:3429760:0]        ib_iface.c:1059 UCX  ERROR ibv_create_cq(cqe=256) failed: Connection timed out
[1741610629.492321] [ohm:3429790:0]        ib_iface.c:1059 UCX  ERROR ibv_create_cq(cqe=256) failed: Connection timed out
[1741610629.501401] [ohm:3429762:0]        ib_iface.c:1059 UCX  ERROR ibv_create_cq(cqe=256) failed: Connection timed out
[1741610629.505200] [ohm:3429906:0]        ib_iface.c:1059 UCX  ERROR ibv_create_cq(cqe=256) failed: Connection timed out
[1741610629.514716] [ohm:3429754:0]        ib_iface.c:1059 UCX  ERROR ibv_create_cq(cqe=256) failed: Connection timed out
[1741610629.518785] [ohm:3429801:0]        ib_iface.c:1059 UCX  ERROR ibv_create_cq(cqe=256) failed: Connection timed out
[1741610629.532153] [ohm:3429909:0]        ib_iface.c:1059 UCX  ERROR ibv_create_cq(cqe=256) failed: Connection timed out
[1741610629.537198] [ohm:3429795:0]        ib_iface.c:1059 UCX  ERROR ibv_create_cq(cqe=256) failed: Connection timed out
[1741610629.561266] [ohm:3429828:0]        ib_iface.c:1059 UCX  ERROR ibv_create_cq(cqe=256) failed: Connection timed out
[1741610629.561813] [ohm:3429774:0]        ib_iface.c:1059 UCX  ERROR ibv_create_cq(cqe=256) failed: Connection timed out
[1741610629.563007] [ohm:3429755:0]        ib_iface.c:1059 UCX  ERROR ibv_create_cq(cqe=256) failed: Connection timed out
[1741610629.567632] [ohm:3429859:0]        ib_iface.c:1059 UCX  ERROR ibv_create_cq(cqe=256) failed: Connection timed out
[1741610629.568972] [ohm:3429817:0]        ib_iface.c:1059 UCX  ERROR ibv_create_cq(cqe=256) failed: Connection timed out
[1741610629.576669] [ohm:3429791:0]        ib_iface.c:1059 UCX  ERROR ibv_create_cq(cqe=256) failed: Connection timed out
[1741610629.577915] [ohm:3429853:0]        ib_iface.c:1059 UCX  ERROR ibv_create_cq(cqe=256) failed: Connection timed out
[1741610629.577918] [ohm:3429792:0]        ib_iface.c:1059 UCX  ERROR ibv_create_cq(cqe=256) failed: Connection timed out
[1741610629.582168] [ohm:3429796:0]        ib_iface.c:1059 UCX  ERROR ibv_create_cq(cqe=256) failed: Connection timed out
[1741610629.591338] [ohm:3429872:0]        ib_iface.c:1059 UCX  ERROR ibv_create_cq(cqe=256) failed: Connection timed out
[1741610629.592091] [ohm:3429781:0]        ib_iface.c:1059 UCX  ERROR ibv_create_cq(cqe=256) failed: Connection timed out
[1741610629.592086] [ohm:3429809:0]        ib_iface.c:1059 UCX  ERROR ibv_create_cq(cqe=256) failed: Connection timed out
[1741610629.599230] [ohm:3429794:0]        ib_iface.c:1059 UCX  ERROR ibv_create_cq(cqe=256) failed: Connection timed out
[1741610629.599994] [ohm:3429759:0]        ib_iface.c:1059 UCX  ERROR ibv_create_cq(cqe=256) failed: Connection timed out
[1741610629.607165] [ohm:3429866:0]        ib_iface.c:1059 UCX  ERROR ibv_create_cq(cqe=256) failed: Connection timed out
[1741610629.610081] [ohm:3429899:0]        ib_iface.c:1059 UCX  ERROR ibv_create_cq(cqe=256) failed: Connection timed out
[1741610629.614523] [ohm:3429797:0]        ib_iface.c:1059 UCX  ERROR ibv_create_cq(cqe=256) failed: Connection timed out
[1741610629.615420] [ohm:3429880:0]        ib_iface.c:1059 UCX  ERROR ibv_create_cq(cqe=256) failed: Connection timed out
[1741610629.618139] [ohm:3429876:0]        ib_iface.c:1059 UCX  ERROR ibv_create_cq(cqe=256) failed: Connection timed out
[1741610629.628733] [ohm:3429840:0]        ib_iface.c:1059 UCX  ERROR ibv_create_cq(cqe=256) failed: Connection timed out
[1741610629.631586] [ohm:3429833:0]        ib_iface.c:1059 UCX  ERROR ibv_create_cq(cqe=256) failed: Connection timed out
[1741610629.634410] [ohm:3429893:0]        ib_iface.c:1059 UCX  ERROR ibv_create_cq(cqe=256) failed: Connection timed out
[1741610629.635852] [ohm:3429804:0]        ib_iface.c:1059 UCX  ERROR ibv_create_cq(cqe=256) failed: Connection timed out
[1741610629.642596] [ohm:3429832:0]        ib_iface.c:1059 UCX  ERROR ibv_create_cq(cqe=256) failed: Connection timed out
[1741610629.642769] [ohm:3429824:0]        ib_iface.c:1059 UCX  ERROR ibv_create_cq(cqe=256) failed: Connection timed out
[1741610629.642836] [ohm:3429785:0]        ib_iface.c:1059 UCX  ERROR ibv_create_cq(cqe=256) failed: Connection timed out
[1741610629.648212] [ohm:3429820:0]        ib_iface.c:1059 UCX  ERROR ibv_create_cq(cqe=256) failed: Connection timed out
[1741610629.651288] [ohm:3429849:0]        ib_iface.c:1059 UCX  ERROR ibv_create_cq(cqe=256) failed: Connection timed out
[1741610629.654497] [ohm:3429885:0]        ib_iface.c:1059 UCX  ERROR ibv_create_cq(cqe=256) failed: Connection timed out
[1741610629.654542] [ohm:3429848:0]        ib_iface.c:1059 UCX  ERROR ibv_create_cq(cqe=256) failed: Connection timed out
[1741610629.654968] [ohm:3429844:0]        ib_iface.c:1059 UCX  ERROR ibv_create_cq(cqe=256) failed: Connection timed out
[1741610629.658654] [ohm:3429810:0]        ib_iface.c:1059 UCX  ERROR ibv_create_cq(cqe=256) failed: Connection timed out
[1741610629.659418] [ohm:3429857:0]        ib_iface.c:1059 UCX  ERROR ibv_create_cq(cqe=256) failed: Connection timed out
[1741610629.660412] [ohm:3429793:0]        ib_iface.c:1059 UCX  ERROR ibv_create_cq(cqe=256) failed: Connection timed out
[1741610629.660421] [ohm:3429867:0]        ib_iface.c:1059 UCX  ERROR ibv_create_cq(cqe=256) failed: Connection timed out
[1741610629.662427] [ohm:3429883:0]        ib_iface.c:1059 UCX  ERROR ibv_create_cq(cqe=256) failed: Connection timed out
[1741610629.663829] [ohm:3429838:0]        ib_iface.c:1059 UCX  ERROR ibv_create_cq(cqe=256) failed: Connection timed out
[1741610629.664469] [ohm:3429875:0]        ib_iface.c:1059 UCX  ERROR ibv_create_cq(cqe=256) failed: Connection timed out
[1741610629.664880] [ohm:3429902:0]        ib_iface.c:1059 UCX  ERROR ibv_create_cq(cqe=256) failed: Connection timed out


           ************************************************************
           *        Program running with 64 parallel MPI-processes    *
           *              working on a common directory               *
           ************************************************************

-------------------------------------------------------------------------------------------
                                      ORCA LEAN-SCF
                              memory conserving SCF solver
-------------------------------------------------------------------------------------------

----------------------------------------D-I-I-S--------------------------------------------
Iteration    Energy (Eh)           Delta-E    RMSDP     MaxDP     DIISErr   Damp  Time(sec)
-------------------------------------------------------------------------------------------
               ***  Starting incremental Fock matrix formation  ***
    1    -153.7053382940914616     0.00e+00  8.26e-04  2.30e-02  6.50e-02  0.700   0.3
    2    -153.7286698233980076    -2.33e-02  7.31e-04  2.02e-02  3.96e-02  0.700   0.3
                               ***Turning on AO-DIIS***
    3    -153.7418979552075200    -1.32e-02  5.95e-04  1.73e-02  2.27e-02  0.700   0.3
    4    -153.7502021144800892    -8.30e-03  1.48e-03  4.28e-02  1.68e-02  0.000   0.3
    5    -153.7699184105969721    -1.97e-02  1.40e-04  3.99e-03  5.38e-03  0.000   0.3
    6    -153.7704344467798876    -5.16e-04  8.75e-05  2.16e-03  3.34e-03  0.000   0.3
                              *** Initializing SOSCF ***
---------------------------------------S-O-S-C-F--------------------------------------
Iteration    Energy (Eh)           Delta-E    RMSDP     MaxDP     MaxGrad    Time(sec)
--------------------------------------------------------------------------------------
    7    -153.7706760098046743    -2.42e-04  4.53e-05  1.06e-03  2.30e-03     0.3
               *** Restarting incremental Fock matrix formation ***
    8    -153.7707639699914921    -8.80e-05  2.24e-05  4.09e-04  1.46e-03     0.3
    9    -153.7707898385400540    -2.59e-05  3.57e-05  7.73e-04  8.86e-04     0.3
   10    -153.7708029938580694    -1.32e-05  1.32e-05  3.65e-04  6.05e-04     0.3
   11    -153.7708066864321950    -3.69e-06  1.08e-05  3.32e-04  4.51e-04     0.3
   12    -153.7708092536607012    -2.57e-06  8.46e-05  3.02e-03  4.58e-04     0.3
   13    -153.7708247007078626    -1.54e-05  1.08e-04  3.88e-03  5.77e-04     0.3
   14    -153.7708394984635447    -1.48e-05  1.27e-04  4.62e-03  7.87e-04     0.3
   15    -153.7708529905569605    -1.35e-05  5.49e-05  2.08e-03  6.67e-04     0.3
   16    -153.7708581654190709    -5.17e-06  1.04e-05  2.56e-04  2.59e-04     0.3
   17    -153.7708592417307614    -1.08e-06  5.72e-06  2.38e-04  1.07e-04     0.3
   18    -153.7708594593768794    -2.18e-07  2.74e-06  9.74e-05  6.86e-05     0.3
   19    -153.7708595258548598    -6.65e-08  1.57e-06  5.07e-05  1.82e-05     0.2
   20    -153.7708595347414473    -8.89e-09  8.74e-07  2.97e-05  5.22e-06     0.3
                 **** Energy Check signals convergence ****

               *****************************************************
               *                     SUCCESS                       *
               *           SCF CONVERGED AFTER  20 CYCLES          *
               *****************************************************

Recomputing exchange energy using gridx3       ... done (    0.181 sec)
Old exchange energy                            :     -6.189133288 Eh
New exchange energy                            :     -6.189139871 Eh
Exchange energy change after final integration :     -0.000006584 Eh
Total energy after final integration           :   -153.770866118 Eh
             **** ENERGY FILE WAS UPDATED (orca.en.tmp) ****

----------------
TOTAL SCF ENERGY
----------------

Total Energy       :       -153.77086611844476 Eh           -4184.31799 eV

Components:
Nuclear Repulsion  :         67.24766628823329 Eh            1829.90203 eV
Electronic Energy  :       -221.01852582297474 Eh           -6014.21984 eV
One Electron Energy:       -341.02906482982689 Eh           -9279.87263 eV
Two Electron Energy:        120.01053900685216 Eh            3265.65279 eV

Virial components:
Potential Energy   :       -306.93569571160140 Eh           -8352.14490 eV
Kinetic Energy     :        153.16482959315661 Eh            4167.82690 eV
Virial Ratio       :          2.00395676035352

DFT components:
N(Alpha)           :       12.999996847184 electrons
N(Beta)            :       10.999995599493 electrons
N(Total)           :       23.999992446677 electrons
E(XC)              :      -14.665953985290 Eh       

---------------
SCF CONVERGENCE
---------------

  Last Energy change         ...    8.8866e-09  Tolerance :   1.0000e-08
  Last MAX-Density change    ...    2.9748e-05  Tolerance :   1.0000e-07
  Last RMS-Density change    ...    8.7364e-07  Tolerance :   5.0000e-09
  Last DIIS Error            ...    2.3032e-03  Tolerance :   5.0000e-07
  Last Orbital Gradient      ...    5.2171e-06  Tolerance :   1.0000e-05
  Last Orbital Rotation      ...    1.8738e-04  Tolerance :   1.0000e-05


----------------------
UHF SPIN CONTAMINATION
----------------------

Warning: in a DFT calculation there is little theoretical justification to 
         calculate <S**2> as in Hartree-Fock theory. We will do it anyways
         but you should keep in mind that the values have only limited relevance

Expectation value of <S**2>     :     2.008603
Ideal value S*(S+1) for S=1.0   :     2.000000
Deviation                       :     0.008603

----------------
ORBITAL ENERGIES
----------------
                 SPIN UP ORBITALS
  NO   OCC          E(Eh)            E(eV) 
   0   1.0000     -19.398281      -527.8541 
   1   1.0000     -10.415369      -283.4166 
   2   1.0000     -10.373683      -282.2823 
   3   1.0000      -1.164883       -31.6981 
   4   1.0000      -0.887879       -24.1604 
   5   1.0000      -0.727424       -19.7942 
   6   1.0000      -0.606793       -16.5117 
   7   1.0000      -0.593171       -16.1410 
   8   1.0000      -0.555842       -15.1252 
   9   1.0000      -0.495832       -13.4923 
  10   1.0000      -0.456480       -12.4215 
  11   1.0000      -0.422370       -11.4933 
  12   1.0000      -0.316443        -8.6108 
  13   0.0000       0.039669         1.0795 
  14   0.0000       0.060640         1.6501 
  15   0.0000       0.081174         2.2089 
  16   0.0000       0.082376         2.2416 
  17   0.0000       0.106407         2.8955 
  18   0.0000       0.122110         3.3228 
  19   0.0000       0.135610         3.6901 
  20   0.0000       0.136957         3.7268 
  21   0.0000       0.170327         4.6348 
  22   0.0000       0.189548         5.1579 
  23   0.0000       0.195254         5.3131 

                 SPIN DOWN ORBITALS
  NO   OCC          E(Eh)            E(eV) 
   0   1.0000     -19.375233      -527.2269 
   1   1.0000     -10.416765      -283.4546 
   2   1.0000     -10.360065      -281.9117 
   3   1.0000      -1.111452       -30.2441 
   4   1.0000      -0.857914       -23.3450 
   5   1.0000      -0.699983       -19.0475 
   6   1.0000      -0.582261       -15.8441 
   7   1.0000      -0.547811       -14.9067 
   8   1.0000      -0.525655       -14.3038 
   9   1.0000      -0.479789       -13.0557 
  10   1.0000      -0.393577       -10.7098 
  11   0.0000      -0.063648        -1.7320 
  12   0.0000       0.006092         0.1658 
  13   0.0000       0.039521         1.0754 
  14   0.0000       0.060961         1.6588 
  15   0.0000       0.081298         2.2122 
  16   0.0000       0.083139         2.2623 
  17   0.0000       0.108850         2.9619 
  18   0.0000       0.123425         3.3586 
  19   0.0000       0.137770         3.7489 
  20   0.0000       0.141132         3.8404 
  21   0.0000       0.173899         4.7320 
*Only the first 10 virtual orbitals were printed.

                    ********************************
                    * MULLIKEN POPULATION ANALYSIS *
                    ********************************

--------------------------------------------
MULLIKEN ATOMIC CHARGES AND SPIN POPULATIONS
--------------------------------------------
   0 O :   -0.333508    0.900696
   1 C :    0.064307   -0.002450
   2 C :   -0.625977    0.879934
   3 H :    0.193211    0.131760
   4 H :    0.225298    0.053870
   5 H :    0.231812    0.017942
   6 H :    0.244857    0.018247
Sum of atomic charges         :    0.0000000
Sum of atomic spin populations:    2.0000000

-----------------------------------------------------
MULLIKEN REDUCED ORBITAL CHARGES AND SPIN POPULATIONS
-----------------------------------------------------
CHARGE
  0 O s       :     4.007116  s :     4.007116
      pz      :     1.168120  p :     4.303325
      px      :     1.637102
      py      :     1.498103
      dz2     :     0.006750  d :     0.021892
      dxz     :     0.003220
      dyz     :     0.004700
      dx2y2   :     0.002516
      dxy     :     0.004705
      f0      :     0.000079  f :     0.001175
      f+1     :     0.000122
      f-1     :     0.000204
      f+2     :     0.000153
      f-2     :     0.000315
      f+3     :     0.000176
      f-3     :     0.000126

  1 C s       :     3.174594  s :     3.174594
      pz      :     0.836244  p :     2.569036
      px      :     0.892409
      py      :     0.840383
      dz2     :     0.027727  d :     0.181963
      dxz     :     0.034110
      dyz     :     0.048064
      dx2y2   :     0.035764
      dxy     :     0.036299
      f0      :     0.000710  f :     0.010100
      f+1     :     0.001297
      f-1     :     0.001086
      f+2     :     0.002388
      f-2     :     0.002207
      f+3     :     0.001045
      f-3     :     0.001366

  2 C s       :     3.584344  s :     3.584344
      pz      :     1.006739  p :     3.004615
      px      :     0.886319
      py      :     1.111556
      dz2     :     0.018144  d :     0.033247
      dxz     :     0.007783
      dyz     :    -0.002847
      dx2y2   :     0.013005
      dxy     :    -0.002838
      f0      :     0.000288  f :     0.003771
      f+1     :     0.000947
      f-1     :     0.000521
      f+2     :     0.000654
      f-2     :     0.000592
      f+3     :     0.000254
      f-3     :     0.000515

  3 H s       :     0.780164  s :     0.780164
      pz      :     0.006609  p :     0.024323
      px      :     0.008307
      py      :     0.009407
      dz2     :     0.000372  d :     0.002302
      dxz     :     0.000424
      dyz     :     0.000463
      dx2y2   :     0.000472
      dxy     :     0.000571

  4 H s       :     0.736365  s :     0.736365
      pz      :     0.013879  p :     0.035458
      px      :     0.012271
      py      :     0.009309
      dz2     :     0.000663  d :     0.002879
      dxz     :     0.000528
      dyz     :     0.000592
      dx2y2   :     0.000625
      dxy     :     0.000472

  5 H s       :     0.722790  s :     0.722790
      pz      :     0.016504  p :     0.043148
      px      :     0.012553
      py      :     0.014090
      dz2     :     0.000197  d :     0.002250
      dxz     :     0.000019
      dyz     :     0.000684
      dx2y2   :     0.000560
      dxy     :     0.000790

  6 H s       :     0.706219  s :     0.706219
      pz      :     0.022929  p :     0.046779
      px      :     0.012016
      py      :     0.011834
      dz2     :     0.000694  d :     0.002145
      dxz     :     0.000592
      dyz     :     0.000505
      dx2y2   :     0.000171
      dxy     :     0.000183


SPIN
  0 O s       :    -0.003900  s :    -0.003900
      pz      :     0.541395  p :     0.908773
      px      :     0.169255
      py      :     0.198122
      dz2     :    -0.002271  d :    -0.003998
      dxz     :     0.000137
      dyz     :    -0.000469
      dx2y2   :     0.000133
      dxy     :    -0.001528
      f0      :    -0.000053  f :    -0.000178
      f+1     :    -0.000034
      f-1     :    -0.000056
      f+2     :    -0.000032
      f-2     :    -0.000070
      f+3     :     0.000037
      f-3     :     0.000029

  1 C s       :     0.001074  s :     0.001074
      pz      :    -0.024774  p :    -0.088703
      px      :    -0.028676
      py      :    -0.035254
      dz2     :     0.026180  d :     0.082714
      dxz     :    -0.000769
      dyz     :     0.026551
      dx2y2   :     0.008500
      dxy     :     0.022252
      f0      :     0.000496  f :     0.002466
      f+1     :     0.000540
      f-1     :     0.000743
      f+2     :     0.000171
      f-2     :     0.000126
      f+3     :     0.000349
      f-3     :     0.000041

  2 C s       :     0.001702  s :     0.001702
      pz      :     0.252544  p :     0.890677
      px      :     0.556674
      py      :     0.081459
      dz2     :    -0.001188  d :    -0.011491
      dxz     :    -0.002206
      dyz     :    -0.008768
      dx2y2   :     0.000856
      dxy     :    -0.000184
      f0      :    -0.000049  f :    -0.000955
      f+1     :    -0.000302
      f-1     :    -0.000093
      f+2     :    -0.000120
      f-2     :    -0.000161
      f+3     :    -0.000052
      f-3     :    -0.000178

  3 H s       :     0.124699  s :     0.124699
      pz      :     0.000898  p :     0.006922
      px      :     0.002004
      py      :     0.004020
      dz2     :    -0.000001  d :     0.000139
      dxz     :     0.000034
      dyz     :     0.000044
      dx2y2   :     0.000017
      dxy     :     0.000046

  4 H s       :     0.049151  s :     0.049151
      pz      :     0.000625  p :     0.004713
      px      :     0.003020
      py      :     0.001068
      dz2     :    -0.000021  d :     0.000006
      dxz     :     0.000005
      dyz     :     0.000037
      dx2y2   :    -0.000033
      dxy     :     0.000019

  5 H s       :    -0.007154  s :    -0.007154
      pz      :     0.011679  p :     0.024228
      px      :     0.009447
      py      :     0.003101
      dz2     :     0.000000  d :     0.000868
      dxz     :     0.000009
      dyz     :     0.000291
      dx2y2   :     0.000007
      dxy     :     0.000561

  6 H s       :    -0.006955  s :    -0.006955
      pz      :     0.011751  p :     0.024284
      px      :     0.010008
      py      :     0.002525
      dz2     :     0.000271  d :     0.000918
      dxz     :     0.000370
      dyz     :     0.000071
      dx2y2   :     0.000037
      dxy     :     0.000170



                     *******************************
                     * LOEWDIN POPULATION ANALYSIS *
                     *******************************

-------------------------------------------
LOEWDIN ATOMIC CHARGES AND SPIN POPULATIONS
-------------------------------------------
   0 O :    0.057535    0.838075
   1 C :   -0.267491    0.217392
   2 C :    0.200143    0.686432
   3 H :    0.086248    0.096419
   4 H :   -0.033318    0.026925
   5 H :   -0.014019    0.062891
   6 H :   -0.029098    0.071866

----------------------------------------------------
LOEWDIN REDUCED ORBITAL CHARGES AND SPIN POPULATIONS
----------------------------------------------------
CHARGE
  0 O s       :     3.491736  s :     3.491736
      pz      :     1.179351  p :     4.202926
      px      :     1.555200
      py      :     1.468375
      dz2     :     0.048585  d :     0.244221
      dxz     :     0.047655
      dyz     :     0.056363
      dx2y2   :     0.044462
      dxy     :     0.047156
      f0      :     0.000273  f :     0.003582
      f+1     :     0.000408
      f-1     :     0.000690
      f+2     :     0.000682
      f-2     :     0.000792
      f+3     :     0.000401
      f-3     :     0.000335

  1 C s       :     2.648802  s :     2.648802
      pz      :     0.871507  p :     2.614472
      px      :     0.899581
      py      :     0.843384
      dz2     :     0.120835  d :     0.922856
      dxz     :     0.233599
      dyz     :     0.225277
      dx2y2   :     0.159721
      dxy     :     0.183424
      f0      :     0.009937  f :     0.081361
      f+1     :     0.010124
      f-1     :     0.009459
      f+2     :     0.014781
      f-2     :     0.014915
      f+3     :     0.010632
      f-3     :     0.011514

  2 C s       :     2.754788  s :     2.754788
      pz      :     0.888208  p :     2.619824
      px      :     0.796493
      py      :     0.935123
      dz2     :     0.103434  d :     0.400965
      dxz     :     0.069178
      dyz     :     0.083865
      dx2y2   :     0.083455
      dxy     :     0.061033
      f0      :     0.002058  f :     0.024280
      f+1     :     0.004834
      f-1     :     0.004258
      f+2     :     0.003918
      f-2     :     0.003467
      f+3     :     0.001911
      f-3     :     0.003834

  3 H s       :     0.652468  s :     0.652468
      pz      :     0.076001  p :     0.237596
      px      :     0.075626
      py      :     0.085970
      dz2     :     0.003353  d :     0.023688
      dxz     :     0.004044
      dyz     :     0.005517
      dx2y2   :     0.005321
      dxy     :     0.005454

  4 H s       :     0.696408  s :     0.696408
      pz      :     0.100680  p :     0.299867
      px      :     0.104445
      py      :     0.094741
      dz2     :     0.007185  d :     0.037043
      dxz     :     0.007984
      dyz     :     0.007028
      dx2y2   :     0.006708
      dxy     :     0.008138

  5 H s       :     0.715444  s :     0.715444
      pz      :     0.069495  p :     0.272824
      px      :     0.071103
      py      :     0.132226
      dz2     :     0.002748  d :     0.025752
      dxz     :     0.000139
      dyz     :     0.007181
      dx2y2   :     0.008042
      dxy     :     0.007642

  6 H s       :     0.725826  s :     0.725826
      pz      :     0.118146  p :     0.276279
      px      :     0.072061
      py      :     0.086072
      dz2     :     0.009550  d :     0.026993
      dxz     :     0.006433
      dyz     :     0.007190
      dx2y2   :     0.001891
      dxy     :     0.001930


SPIN
  0 O s       :     0.009050  s :     0.009050
      pz      :     0.485435  p :     0.820117
      px      :     0.155770
      py      :     0.178912
      dz2     :     0.004540  d :     0.008949
      dxz     :    -0.000121
      dyz     :     0.001714
      dx2y2   :    -0.000585
      dxy     :     0.003400
      f0      :    -0.000051  f :    -0.000041
      f+1     :    -0.000000
      f-1     :     0.000030
      f+2     :     0.000029
      f-2     :    -0.000082
      f+3     :     0.000027
      f-3     :     0.000007

  1 C s       :    -0.005231  s :    -0.005231
      pz      :    -0.008462  p :    -0.025734
      px      :    -0.002333
      py      :    -0.014939
      dz2     :     0.082843  d :     0.227282
      dxz     :     0.003727
      dyz     :     0.052758
      dx2y2   :     0.036487
      dxy     :     0.051466
      f0      :     0.005207  f :     0.021076
      f+1     :     0.003986
      f-1     :     0.005770
      f+2     :     0.001465
      f-2     :     0.000875
      f+3     :     0.003235
      f-3     :     0.000537

  2 C s       :     0.023573  s :     0.023573
      pz      :     0.174084  p :     0.657590
      px      :     0.425933
      py      :     0.057573
      dz2     :     0.003541  d :     0.005489
      dxz     :    -0.001355
      dyz     :     0.000130
      dx2y2   :     0.001987
      dxy     :     0.001187
      f0      :    -0.000012  f :    -0.000220
      f+1     :    -0.000235
      f-1     :     0.000133
      f+2     :    -0.000020
      f-2     :     0.000120
      f+3     :    -0.000022
      f-3     :    -0.000183

  3 H s       :     0.085983  s :     0.085983
      pz      :     0.005224  p :     0.010877
      px      :     0.002503
      py      :     0.003151
      dz2     :    -0.000106  d :    -0.000441
      dxz     :    -0.000040
      dyz     :    -0.000086
      dx2y2   :    -0.000054
      dxy     :    -0.000155

  4 H s       :     0.026610  s :     0.026610
      pz      :    -0.000201  p :     0.000601
      px      :     0.001514
      py      :    -0.000712
      dz2     :    -0.000190  d :    -0.000286
      dxz     :    -0.000048
      dyz     :     0.000083
      dx2y2   :    -0.000282
      dxy     :     0.000152

  5 H s       :    -0.013741  s :    -0.013741
      pz      :     0.018212  p :     0.068377
      px      :     0.041342
      py      :     0.008823
      dz2     :     0.000204  d :     0.008255
      dxz     :     0.000069
      dyz     :     0.002199
      dx2y2   :     0.000745
      dxy     :     0.005038

  6 H s       :    -0.010117  s :    -0.010117
      pz      :     0.023928  p :     0.073086
      px      :     0.042959
      py      :     0.006200
      dz2     :     0.003180  d :     0.008896
      dxz     :     0.003488
      dyz     :     0.000518
      dx2y2   :     0.000111
      dxy     :     0.001601



                      *****************************
                      * MAYER POPULATION ANALYSIS *
                      *****************************

  NA   - Mulliken gross atomic population
  ZA   - Total nuclear charge
  QA   - Mulliken gross atomic charge
  VA   - Mayer's total valence
  BVA  - Mayer's bonded valence
  FA   - Mayer's free valence

  ATOM       NA         ZA         QA         VA         BVA        FA
  0 O      8.3335     8.0000    -0.3335     1.8128     1.0347     0.7781
  1 C      5.9357     6.0000     0.0643     3.4932     3.4806     0.0127
  2 C      6.6260     6.0000    -0.6260     3.5427     2.7885     0.7542
  3 H      0.8068     1.0000     0.1932     0.9768     0.9603     0.0165
  4 H      0.7747     1.0000     0.2253     1.0132     1.0114     0.0018
  5 H      0.7682     1.0000     0.2318     0.9868     0.9863     0.0006
  6 H      0.7551     1.0000     0.2449     0.9929     0.9921     0.0008

  Mayer bond orders larger than 0.100000
B(  0-O ,  1-C ) :   0.9106 B(  1-C ,  2-C ) :   0.7579 B(  1-C ,  3-H ) :   0.9041 
B(  1-C ,  4-H ) :   0.9730 B(  2-C ,  5-H ) :   0.9770 B(  2-C ,  6-H ) :   1.0078 


-------
TIMINGS
-------

Total SCF time: 0 days 0 hours 0 min 7 sec 

Total time                  ....       7.525 sec
Sum of individual times     ....       7.481 sec  ( 99.4%)

SCF preparation             ....       1.614 sec  ( 21.5%)
Fock matrix formation       ....       4.603 sec  ( 61.2%)
  Startup                   ....       0.072 sec  (  1.6% of F)
  Split-RI-J                ....       0.468 sec  ( 10.2% of F)
  Chain of spheres X        ....       2.540 sec  ( 55.2% of F)
  XC integration            ....       1.246 sec  ( 27.1% of F)
    XC Preparation          ....       0.000 sec  (  0.0% of XC)
    Basis function eval.    ....       0.052 sec  (  4.2% of XC)
    Density eval.           ....       0.232 sec  ( 18.6% of XC)
    XC-Functional eval.     ....       0.015 sec  (  1.2% of XC)
    XC-Potential eval.      ....       0.362 sec  ( 29.1% of XC)
Diagonalization             ....       0.000 sec  (  0.0%)
Density matrix formation    ....       0.165 sec  (  2.2%)
Total Energy calculation    ....       0.138 sec  (  1.8%)
Population analysis         ....       0.037 sec  (  0.5%)
Orbital Transformation      ....       0.082 sec  (  1.1%)
[...]
[1741610648.102652] [ohm:3430918:0]        ib_iface.c:1059 UCX  ERROR ibv_create_cq(cqe=256) failed: Connection timed out
[1741610648.103060] [ohm:3430853:0]        ib_iface.c:1059 UCX  ERROR ibv_create_cq(cqe=256) failed: Connection timed out
[1741610648.103722] [ohm:3430841:0]        ib_iface.c:1059 UCX  ERROR ibv_create_cq(cqe=256) failed: Connection timed out
[1741610648.104612] [ohm:3430902:0]        ib_iface.c:1059 UCX  ERROR ibv_create_cq(cqe=256) failed: Connection timed out
[1741610648.104701] [ohm:3430933:0]        ib_iface.c:1059 UCX  ERROR ibv_create_cq(cqe=256) failed: Connection timed out
[1741610648.104652] [ohm:3430923:0]        ib_iface.c:1059 UCX  ERROR ibv_create_cq(cqe=256) failed: Connection timed out
[1741610648.105439] [ohm:3430891:0]        ib_iface.c:1059 UCX  ERROR ibv_create_cq(cqe=256) failed: Connection timed out
[1741610648.105266] [ohm:3430940:0]        ib_iface.c:1059 UCX  ERROR ibv_create_cq(cqe=256) failed: Connection timed out
[1741610648.105673] [ohm:3430905:0]        ib_iface.c:1059 UCX  ERROR ibv_create_cq(cqe=256) failed: Connection timed out
[1741610648.105717] [ohm:3430934:0]        ib_iface.c:1059 UCX  ERROR ibv_create_cq(cqe=256) failed: Connection timed out


           ************************************************************
           *        Program running with 64 parallel MPI-processes    *
           *              working on a common directory               *
           ************************************************************

------------------------------------------------------------------------------
                              ORCA PROPERTY CALCULATIONS
------------------------------------------------------------------------------

GBWName                                 ... orca.gbw
Number of atoms                         ...      7
Number of basis functions               ...    182
Max core memory                         ...   1024 MB

Electric properties:
Dipole moment                           ... YES
Quadrupole moment                       ...  NO
Static polarizability (Dipole/Dipole)   ...  NO
Static polarizability (Dipole/Quad.)    ...  NO
Static polarizability (Quad./Quad.)     ...  NO
Static polarizability (Velocity)        ...  NO

Atomic electric properties:
Dipole moment                           ...  NO
Quadrupole moment                       ...  NO
Static polarizability                   ...  NO

Choice of electric origin               ... Center of mass
Position of electric origin             ...     0.777565     0.117053     0.135516

General magnetic properties:
Magnetizability                         ...  NO

EPR properties:
g-Tensor (aka g-matrix)                 ...  NO
Zero-Field splitting spin-orbit         ...  NO
Zero-field splitting spin-spin          ...  NO
Hyperfine couplings                     ...  NO (   0 nuclei)
Quadrupole couplings                    ...  NO (   0 nuclei)
Contact density                         ...  NO (   0 nuclei)

NMR properties:
Chemical shifts                         ...  NO (   0 nuclei)
Spin-rotation constants                 ...  NO (   0 nuclei)
Spin-spin couplings                     ...  NO (   0 nuclei,    0 pairs)

Choice of magnetic origin               ... GIAO
Position of magnetic origin             ...     0.000000     0.000000     0.000000

Properties with geometric perturbations:
SCF Hessian                             ...  NO
IR spectrum                             ...  NO
VCD spectrum                            ...  NO
X-ray spectroscopy properties:
SCF XES/XAS/RIXS spectra                ...  NO


-------------
DIPOLE MOMENT
-------------

Method             : SCF
Type of density    : Electron Density
Multiplicity       :   3
Irrep              :   0
Energy             :  -153.7708661184447578 Eh
Relativity type    : 
Basis              : AO
                                X                 Y                 Z
Electronic contribution:     -1.556765784      -0.941569014       2.042168659
Nuclear contribution   :      1.820096664       1.479279207      -2.559233394
                        -----------------------------------------
Total Dipole Moment    :      0.263330880       0.537710192      -0.517064734
                        -----------------------------------------
Magnitude (a.u.)       :      0.791095028
Magnitude (Debye)      :      2.010803759



--------------------
Rotational spectrum 
--------------------
 
Rotational constants in cm-1:             1.561476             0.337828             0.293739 
Rotational constants in MHz :         46811.861858         10127.817803          8806.078067 

Dipole components along the rotational axes: 
x,y,z [a.u.] :    -0.630296     0.471158     0.081049 
x,y,z [Debye]:    -1.602084     1.197589     0.206010 

 

-------------
DIPOLE MOMENT
-------------

Method             : TDA/CIS
Type of density    : Electron Density
Level              : Relaxed density
State              :   2
Multiplicity       :   3
Irrep              :   0
Energy             :     0.0000000000000000 Eh
Relativity type    : 
Basis              : AO
                                X                 Y                 Z
Electronic contribution:     -1.577130702      -0.955272304       1.989925562
Nuclear contribution   :      1.820096664       1.479279207      -2.559233394
                        -----------------------------------------
Total Dipole Moment    :      0.242965962       0.524006903      -0.569307832
                        -----------------------------------------
Magnitude (a.u.)       :      0.811003761
Magnitude (Debye)      :      2.061407738



--------------------
Rotational spectrum 
--------------------
 
Rotational constants in cm-1:             1.561476             0.337828             0.293739 
Rotational constants in MHz :         46811.861858         10127.817803          8806.078067 

Dipole components along the rotational axes: 
x,y,z [a.u.] :    -0.653563     0.461413     0.132967 
x,y,z [Debye]:    -1.661225     1.172820     0.337976 

 

Dipole moment calculation done in   0.0 sec 

Maximum memory used throughout the entire PROP-calculation: 7.4 MB
[1741610649.823133] [ohm:3431182:0]        ib_iface.c:1059 UCX  ERROR ibv_create_cq(cqe=256) failed: Connection timed out
[1741610649.839615] [ohm:3431158:0]        ib_iface.c:1059 UCX  ERROR ibv_create_cq(cqe=256) failed: Connection timed out
[1741610649.850629] [ohm:3431159:0]        ib_iface.c:1059 UCX  ERROR ibv_create_cq(cqe=256) failed: Connection timed out
[1741610649.858760] [ohm:3431156:0]        ib_iface.c:1059 UCX  ERROR ibv_create_cq(cqe=256) failed: Connection timed out
[1741610649.864311] [ohm:3431157:0]        ib_iface.c:1059 UCX  ERROR ibv_create_cq(cqe=256) failed: Connection timed out
[1741610649.867707] [ohm:3431160:0]        ib_iface.c:1059 UCX  ERROR ibv_create_cq(cqe=256) failed: Connection timed out
[1741610649.876304] [ohm:3431161:0]        ib_iface.c:1059 UCX  ERROR ibv_create_cq(cqe=256) failed: Connection timed out
[1741610649.882650] [ohm:3431163:0]        ib_iface.c:1059 UCX  ERROR ibv_create_cq(cqe=256) failed: Connection timed out
[1741610649.884236] [ohm:3431166:0]        ib_iface.c:1059 UCX  ERROR ibv_create_cq(cqe=256) failed: Connection timed out
[1741610649.885187] [ohm:3431192:0]        ib_iface.c:1059 UCX  ERROR ibv_create_cq(cqe=256) failed: Connection timed out
[1741610649.885317] [ohm:3431209:0]        ib_iface.c:1059 UCX  ERROR ibv_create_cq(cqe=256) failed: Connection timed out
[1741610649.885367] [ohm:3431162:0]        ib_iface.c:1059 UCX  ERROR ibv_create_cq(cqe=256) failed: Connection timed out
[1741610649.887811] [ohm:3431185:0]        ib_iface.c:1059 UCX  ERROR ibv_create_cq(cqe=256) failed: Connection timed out
[1741610649.915805] [ohm:3431260:0]        ib_iface.c:1059 UCX  ERROR ibv_create_cq(cqe=256) failed: Connection timed out
[1741610649.921815] [ohm:3431241:0]        ib_iface.c:1059 UCX  ERROR ibv_create_cq(cqe=256) failed: Connection timed out
[1741610649.929275] [ohm:3431256:0]        ib_iface.c:1059 UCX  ERROR ibv_create_cq(cqe=256) failed: Connection timed out
[1741610649.932172] [ohm:3431167:0]        ib_iface.c:1059 UCX  ERROR ibv_create_cq(cqe=256) failed: Connection timed out
[1741610649.964052] [ohm:3431245:0]        ib_iface.c:1059 UCX  ERROR ibv_create_cq(cqe=256) failed: Connection timed out
[1741610649.966466] [ohm:3431252:0]        ib_iface.c:1059 UCX  ERROR ibv_create_cq(cqe=256) failed: Connection timed out
[1741610649.968281] [ohm:3431284:0]        ib_iface.c:1059 UCX  ERROR ibv_create_cq(cqe=256) failed: Connection timed out
[1741610649.969909] [ohm:3431232:0]        ib_iface.c:1059 UCX  ERROR ibv_create_cq(cqe=256) failed: Connection timed out
[1741610649.971769] [ohm:3431271:0]        ib_iface.c:1059 UCX  ERROR ibv_create_cq(cqe=256) failed: Connection timed out
[1741610649.984984] [ohm:3431279:0]        ib_iface.c:1059 UCX  ERROR ibv_create_cq(cqe=256) failed: Connection timed out
[1741610650.000331] [ohm:3431266:0]        ib_iface.c:1059 UCX  ERROR ibv_create_cq(cqe=256) failed: Connection timed out
[1741610650.006358] [ohm:3431301:0]        ib_iface.c:1059 UCX  ERROR ibv_create_cq(cqe=256) failed: Connection timed out
[1741610650.010332] [ohm:3431272:0]        ib_iface.c:1059 UCX  ERROR ibv_create_cq(cqe=256) failed: Connection timed out
[1741610650.021356] [ohm:3431306:0]        ib_iface.c:1059 UCX  ERROR ibv_create_cq(cqe=256) failed: Connection timed out
[1741610650.021346] [ohm:3431280:0]        ib_iface.c:1059 UCX  ERROR ibv_create_cq(cqe=256) failed: Connection timed out
[1741610650.023319] [ohm:3431295:0]        ib_iface.c:1059 UCX  ERROR ibv_create_cq(cqe=256) failed: Connection timed out
[1741610650.025050] [ohm:3431164:0]        ib_iface.c:1059 UCX  ERROR ibv_create_cq(cqe=256) failed: Connection timed out
[1741610650.028781] [ohm:3431303:0]        ib_iface.c:1059 UCX  ERROR ibv_create_cq(cqe=256) failed: Connection timed out
[1741610650.032690] [ohm:3431286:0]        ib_iface.c:1059 UCX  ERROR ibv_create_cq(cqe=256) failed: Connection timed out
[1741610650.041120] [ohm:3431263:0]        ib_iface.c:1059 UCX  ERROR ibv_create_cq(cqe=256) failed: Connection timed out
[1741610650.084211] [ohm:3431285:0]        ib_iface.c:1059 UCX  ERROR ibv_create_cq(cqe=256) failed: Connection timed out
[1741610650.091432] [ohm:3431190:0]        ib_iface.c:1059 UCX  ERROR ibv_create_cq(cqe=256) failed: Connection timed out
[1741610650.092738] [ohm:3431312:0]        ib_iface.c:1059 UCX  ERROR ibv_create_cq(cqe=256) failed: Connection timed out
[1741610650.094555] [ohm:3431213:0]        ib_iface.c:1059 UCX  ERROR ibv_create_cq(cqe=256) failed: Connection timed out
[1741610650.097059] [ohm:3431211:0]        ib_iface.c:1059 UCX  ERROR ibv_create_cq(cqe=256) failed: Connection timed out
[1741610650.099002] [ohm:3431188:0]        ib_iface.c:1059 UCX  ERROR ibv_create_cq(cqe=256) failed: Connection timed out
[1741610650.102189] [ohm:3431198:0]        ib_iface.c:1059 UCX  ERROR ibv_create_cq(cqe=256) failed: Connection timed out
[1741610650.104915] [ohm:3431291:0]        ib_iface.c:1059 UCX  ERROR ibv_create_cq(cqe=256) failed: Connection timed out
[1741610650.108139] [ohm:3431219:0]        ib_iface.c:1059 UCX  ERROR ibv_create_cq(cqe=256) failed: Connection timed out
[1741610650.128365] [ohm:3431244:0]        ib_iface.c:1059 UCX  ERROR ibv_create_cq(cqe=256) failed: Connection timed out
[1741610650.132737] [ohm:3431215:0]        ib_iface.c:1059 UCX  ERROR ibv_create_cq(cqe=256) failed: Connection timed out
[1741610650.135449] [ohm:3431207:0]        ib_iface.c:1059 UCX  ERROR ibv_create_cq(cqe=256) failed: Connection timed out
[1741610650.136265] [ohm:3431222:0]        ib_iface.c:1059 UCX  ERROR ibv_create_cq(cqe=256) failed: Connection timed out
[1741610650.137860] [ohm:3431165:0]        ib_iface.c:1059 UCX  ERROR ibv_create_cq(cqe=256) failed: Connection timed out
[1741610650.138650] [ohm:3431227:0]        ib_iface.c:1059 UCX  ERROR ibv_create_cq(cqe=256) failed: Connection timed out
[1741610650.139552] [ohm:3431206:0]        ib_iface.c:1059 UCX  ERROR ibv_create_cq(cqe=256) failed: Connection timed out
[1741610650.140987] [ohm:3431212:0]        ib_iface.c:1059 UCX  ERROR ibv_create_cq(cqe=256) failed: Connection timed out
[1741610650.148304] [ohm:3431186:0]        ib_iface.c:1059 UCX  ERROR ibv_create_cq(cqe=256) failed: Connection timed out
[1741610650.150572] [ohm:3431210:0]        ib_iface.c:1059 UCX  ERROR ibv_create_cq(cqe=256) failed: Connection timed out
[1741610650.150648] [ohm:3431220:0]        ib_iface.c:1059 UCX  ERROR ibv_create_cq(cqe=256) failed: Connection timed out
[1741610650.150898] [ohm:3431218:0]        ib_iface.c:1059 UCX  ERROR ibv_create_cq(cqe=256) failed: Connection timed out
[1741610650.154667] [ohm:3431168:0]        ib_iface.c:1059 UCX  ERROR ibv_create_cq(cqe=256) failed: Connection timed out
[1741610650.157598] [ohm:3431181:0]        ib_iface.c:1059 UCX  ERROR ibv_create_cq(cqe=256) failed: Connection timed out
[1741610650.158048] [ohm:3431214:0]        ib_iface.c:1059 UCX  ERROR ibv_create_cq(cqe=256) failed: Connection timed out
[1741610650.160162] [ohm:3431217:0]        ib_iface.c:1059 UCX  ERROR ibv_create_cq(cqe=256) failed: Connection timed out
[1741610650.161561] [ohm:3431199:0]        ib_iface.c:1059 UCX  ERROR ibv_create_cq(cqe=256) failed: Connection timed out
[1741610650.162661] [ohm:3431205:0]        ib_iface.c:1059 UCX  ERROR ibv_create_cq(cqe=256) failed: Connection timed out
[1741610650.164879] [ohm:3431216:0]        ib_iface.c:1059 UCX  ERROR ibv_create_cq(cqe=256) failed: Connection timed out
[1741610650.167022] [ohm:3431183:0]        ib_iface.c:1059 UCX  ERROR ibv_create_cq(cqe=256) failed: Connection timed out
[1741610650.169238] [ohm:3431238:0]        ib_iface.c:1059 UCX  ERROR ibv_create_cq(cqe=256) failed: Connection timed out
[1741610650.169568] [ohm:3431184:0]        ib_iface.c:1059 UCX  ERROR ibv_create_cq(cqe=256) failed: Connection timed out

--------------------------------
SUGGESTED CITATIONS FOR THIS RUN
--------------------------------

Below you find a list of papers that are relevant to this ORCA run
We neither can nor want to force you to cite these papers, but we appreciate if you do
You receive ORCA, which is the product of decades of hard work by many enthusiastic individuals, for free
The only thing we kindly ask in return is that you cite our papers,
We deeply appreciate it, if you show your appreciation for ORCA by not just citing the generic ORCA reference.

Please note that relegating all ORCA citations to the supporting information does *not* help us.
SI sections are not indexed - citations you put there will not count into any citation statistics
But we need these citations in order to attract the funding resources that allow us to do what we are doing

Therefore, if you are a happy ORCA user, please consider citing a few of the papers listed below in the main body of your paper

In addition to the list printed below, the program has created the file orca.bibtex that contains the list in bibtex format
You can import this file easily into all common literature databanks and citation aid programs


List of essential papers. We consider these as the minimum necessary citations

  1. Neese,F.
     Software update: the ORCA program system, version 5.0
     WIRES Comput. Molec. Sci., 2022 12(1)e1606
     doi.org/10.1002/wcms.1606

List of papers to cite with high priority. The work reported in these papers was absolutely
necessary for this run to complete.
Our perspective: the developers of density functionals and basis sets usually get cited in chemistry papers
Good! But without the algorithms to do something with them, the functionals or basis sets would not do anything.
Hence, in our opinion, the algorithm design and method developments papers are equally worthy of getting cited

  1. Neese,F.; Olbrich,G.
     Efficient use of the resolution of the identity approximation in time-dependent density functional calculations with hybrid density functionals
     Chem. Phys. Lett., 2002 362 170-178
     doi.org/10.1016/s0009-2614(02)01053-9
  2. Neese,F.
     An improvement of the resolution of the identity approximation for the formation of the Coulomb matrix
     J. Comp. Chem., 2003 24(14)1740-1747
     doi.org/10.1002/jcc.10318
  3. Neese,F.; Wennmohs,F.; Hansen,A.; Becker,U.
     Efficient, approximate and parallel Hartree-Fock and hybrid DFT calculations. A 'chain-of-spheres' algorithm for the Hartree-Fock exchange
     Chem. Phys., 2009 356(1-3)98-109
     doi.org/10.1016/j.chemphys.2008.10.036
  4. Petrenko,T.; Kossmann,S.; Neese,F.
     Efficient time-dependent density functional theory approximations for hybrid density functionals: Analytical gradients and parallelization
     J. Chem. Phys., 2011 134 054116
     doi.org/10.1063/1.3533441
  5. Helmich-Paris,B.; de Souza,B.; Neese,F.; Izsák,R.
     An improved chain of spheres for exchange algorithm
     J. Chem. Phys., 2021 155 104109
     doi.org/doi: 10.1063/5.0058766.
  6. Neese,F.
     The SHARK Integral Generation and Digestion System
     J. Comp. Chem., 2022  1-16
     doi.org/10.1002/jcc.26942
  7. Lehtola,S.; Steigemann,C.; Oliveira,M.; Marques,M.
     Recent developments in Libxc - A comprehensive library of functionals for density functional theory
     Software X, 2018 7 
     doi.org/10.1016/j.softx.2017.11.002
  8. Grimme,S.; Antony,J.; Ehrlich,S.; Krieg,H.
     A consistent and accurate ab initio parametrization of density functional dispersion correction (DFT-D) for the 94 elements H-Pu
     J. Chem. Phys., 2010 132 154104-XXXX
     doi.org/10.1063/1.3382344
  9. Grimme,S.; Ehrlich,S.; Goerigk,L.
     Effect of the damping function in dispersion corrected density functional theory
     J. Comput. Chem., 2011 32(7)1456-1465
     doi.org/10.1002/jcc.21759

List of suggested additional citations. These are papers that are important in the 'surrounding' of 
of this run, or papers that preceded the highly important papers. If you like your results we are grateful for a citation.

  1. Izsak,R.; Neese,F.
     An overlap fitted chain of spheres exchange method
     J. Chem. Phys., 2011 135 144105
     doi.org/10.1063/1.3646921
  2. Izsak,R.; Hansen,A.; Neese,F.
     The resolution of identity and chain of spheres approximations for the LPNO-CCSD singles Fock term
     Molec. Phys., 2012 110 2413-2417
     doi.org/10.1080/00268976.2012.687466
  3. Neese,F.
     The ORCA program system
     WIRES Comput. Molec. Sci., 2012 2(1)73-78
     doi.org/10.1002/wcms.81
  4. Izsak,R.; Neese,F.; Klopper,W.
     Robust fitting techniques in the chain of spheres approximation to the Fock exchange: The role of the complementary space
     J. Chem. Phys., 2013 139 
     doi.org/10.1063/1.4819264
  5. Neese,F.
     Software update: the ORCA program system, version 4.0
     WIRES Comput. Molec. Sci., 2018 8(1)1-6
     doi.org/10.1002/wcms.1327
  6. Neese,F.; Wennmohs,F.; Becker,U.; Riplinger,C.
     The ORCA quantum chemistry program package
     J. Chem. Phys., 2020 152 Art. No. L224108
     doi.org/10.1063/5.0004608

List of optional additional citations

  1. Neese,F.
     Approximate second-order SCF convergence for spin unrestricted wavefunctions
     Chem. Phys. Lett., 2000 325(1-3)93-98
     doi.org/10.1016/s0009-2614(00)00662-x

Timings for individual modules:

Sum of individual times          ...       24.966 sec (=   0.416 min)
Startup calculation              ...        2.392 sec (=   0.040 min)   9.6 %
SCF iterations                   ...       10.157 sec (=   0.169 min)  40.7 %
Property integrals               ...        2.318 sec (=   0.039 min)   9.3 %
Property calculations            ...        2.382 sec (=   0.040 min)   9.5 %
CIS module                       ...        7.718 sec (=   0.129 min)  30.9 %
                             ****ORCA TERMINATED NORMALLY****
TOTAL RUN TIME: 0 days 0 hours 0 minutes 27 seconds 114 msec
