30
Properties=species:S:1:pos:R:3:momenta:R:3:forces:R:3 Coordinates=T from=T ORCA-job=T orca=T E=T -908.914928737927=T energy=-24728.88619006626 free_energy=-24728.88619006626 stress="3.8081636027963895e-07 1.7740711090248636e-06 1.8785506754944856e-07 1.7740711090248636e-06 3.3365699497860115e-06 1.5630606960129963e-06 1.8785506754944856e-07 1.5630606960129963e-06 9.602541015662619e-08" pbc="F F F"
O        2.98104474       1.16988282      -0.65066552       0.81297680      -0.30964873      -0.90015656      -0.81254900      -0.80295590       0.72224846
O       -0.59669904       0.57108862      -2.00886000       0.09282421      -0.06490451      -0.47504734      -0.67154773       0.35098961       0.39810276
O        1.13876946      -2.90326846      -1.71474050       0.20994886       0.25404971       0.09002683       0.34806854       1.04059367       0.63755031
O       -2.93777001      -1.40555415       1.28255229      -0.32390353       1.06569604      -0.59754901      -0.49232351      -0.87770015       0.43883387
N        0.66059540      -2.03565814       0.32123788       0.30093400      -0.64300078      -0.15483019      -0.61173369      -0.84138480       0.48524012
N       -2.36056975       0.76140654       1.63837588       0.36102887       0.47131897      -0.61963109      -0.37600347      -0.81159418      -0.01633132
N        1.94088662      -0.83562915      -1.11719412      -0.65619780       0.59396903      -0.30177160       1.11390158       0.98812697      -0.62845674
N       -2.07357080      -0.25716475      -0.45416433       0.48914010       0.01224532       0.64990338       0.02704748      -1.25949592      -0.30204823
C        1.72947151       0.00768320       1.06608918       0.45317128      -0.44961855       1.02647792       0.18386271       0.20767600       0.45698046
C       -1.04743121       1.88620980      -0.03772442      -0.29602859      -0.08131102      -1.78034574       0.32472229       0.55193755      -0.69846906
C        0.90877748      -1.08211572       1.31022136      -0.23791348      -0.20817569       0.51978493      -0.56206142      -0.69937115      -0.85061507
C       -1.65350376       1.86102674       1.26549781      -0.85150651       0.24090066       1.68207113      -0.52177812       0.68619750       0.73809727
C        2.20228214       0.90666214       2.16263264       0.81206394      -0.76931005       0.24792387      -1.26430173      -1.36794555      -0.21272689
C       -0.15774545       3.08685711      -0.38211094      -0.31163298       0.23802390       0.79642652      -0.83251466      -1.22018954      -0.93384359
C        2.27449126       0.22907476      -0.24079442       0.16865253      -1.02842219       0.03036116       0.31413457      -0.29283977      -1.37085808
C       -1.22597398       0.76334408      -0.94789703      -0.78786726       0.36810839       0.12034524       1.19541262       0.36263018       0.48108025
C        1.27785437      -1.98408479      -0.88585509      -0.74362727       0.38945672       0.42082570      -0.93953777      -1.52705064      -0.72921432
C       -2.49736292      -0.39310639       0.83911008       0.52367099       0.16691723       0.14039263       0.61433041       1.27069181       0.06976952
H        0.38935051      -1.32277598       2.20558843      -0.03717057       0.11474348      -0.28432053       0.00315084       0.31771017       0.60141857
H       -1.71471889       2.70780395       1.97598398       0.08642356       0.01302526      -0.09837874       0.38758819      -0.52015030      -0.64142821
H        2.10290857       1.91160874       1.92105506      -0.11227701      -0.00423927       0.02058733      -0.25014425       1.51091764      -0.42437333
H        1.62235667       0.66443775       3.03358731       0.05189670       0.02167416      -0.12061667      -0.00815655       0.13054009       0.54688118
H        3.21985113       0.74753793       2.33752808       0.30073952      -0.10292235      -0.19400102       1.36427712      -0.29931629       0.35725968
H       -0.32265958       3.40403707      -1.43038671      -0.00642169      -0.07746988       0.02543166      -0.10185505      -0.21748081       0.39210722
H       -0.36159831       3.92035737       0.25785297       0.04536209       0.03036122      -0.04822646      -0.04802990       0.21165496       0.39566423
H        0.89098648       2.80941566      -0.35512592      -0.16981754       0.00200980      -0.04292341       0.20246141      -0.09232246       0.22148809
H        0.08129604      -2.92894516       0.41036517      -0.15029158      -0.12756723      -0.19317745       0.87543252       1.49534315       0.31219472
H       -2.82170952       0.65340130       2.54945290      -0.09404939      -0.13531151       0.19981878       0.38681977       0.27775853      -0.51445091
H        2.20116969      -0.73785734      -2.08777163      -0.02712341       0.15804686      -0.09644775       0.14090150       0.20408196       0.09301652
H       -2.00063179      -1.21863854      -0.86427711       0.09699516      -0.13864500      -0.06295350       0.01042531       1.22294766      -0.02511750
