
                                 *****************
                                 * O   R   C   A *
                                 *****************

                                            #,                                       
                                            ###                                      
                                            ####                                     
                                            #####                                    
                                            ######                                   
                                           ########,                                 
                                     ,,################,,,,,                         
                               ,,#################################,,                 
                          ,,##########################################,,             
                       ,#########################################, ''#####,          
                    ,#############################################,,   '####,        
                  ,##################################################,,,,####,       
                ,###########''''           ''''###############################       
              ,#####''   ,,,,##########,,,,          '''####'''          '####       
            ,##' ,,,,###########################,,,                        '##       
           ' ,,###''''                  '''############,,,                           
         ,,##''                                '''############,,,,        ,,,,,,###''
      ,#''                                            '''#######################'''  
     '                                                          ''''####''''         
             ,#######,   #######,   ,#######,      ##                                
            ,#'     '#,  ##    ##  ,#'     '#,    #''#        ,####,   ,####,        
            ##       ##  ##   ,#'  ##            #'  '#       #'       #'  '#        
            ##       ##  #######   ##           ,######,      #####,   #    #        
            '#,     ,#'  ##    ##  '#,     ,#' ,#      #,     #,   #   #,  ,#        
             '#######'   ##     ##  '#######'  #'      '#     '####' # '####'        



                #########################################################
                #                        -***-                          #
                #          Department of theory and spectroscopy        #
                #                                                       #
                #                      Frank Neese                      #
                #                                                       #
                #     Directorship, Architecture, Infrastructure        #
                #                    SHARK, DRIVERS                     #
                #        Core code/Algorithms in most modules           #
                #                                                       #
                #        Max Planck Institute fuer Kohlenforschung      #
                #                Kaiser Wilhelm Platz 1                 #
                #                 D-45470 Muelheim/Ruhr                 #
                #                      Germany                          #
                #                                                       #
                #                  All rights reserved                  #
                #                        -***-                          #
                #########################################################


                         Program Version 6.0.0  -   RELEASE  -


 With contributions from (in alphabetic order):
   Daniel Aravena         : Magnetic Suceptibility
   Michael Atanasov       : Ab Initio Ligand Field Theory (pilot matlab implementation)
   Alexander A. Auer      : GIAO ZORA, VPT2 properties, NMR spectrum
   Ute Becker             : All parallelization in ORCA, NUMFREQ, NUMCALC
   Giovanni Bistoni       : ED, misc. LED, open-shell LED, HFLD
   Martin Brehm           : Molecular dynamics
   Dmytro Bykov           : pre 5.0 version of the SCF Hessian
   Marcos Casanova-Páez   : Triplet and SCS-CIS(D). UHF-(DLPNO)-IP/EA/STEOM-CCSD. UHF-CVS-IP/STEOM-CCSD
   Vijay G. Chilkuri      : MRCI spin determinant printing, contributions to CSF-ICE
   Pauline Colinet        : FMM embedding
   Dipayan Datta          : RHF DLPNO-CCSD density
   Achintya Kumar Dutta   : EOM-CC, STEOM-CC
   Nicolas Foglia         : Exact transition moments, OPA infrastructure, MCD improvements
   Dmitry Ganyushin       : Spin-Orbit,Spin-Spin,Magnetic field MRCI
   Miquel Garcia          : C-PCM and meta-GGA Hessian, CCSD/C-PCM, Gaussian charge scheme
   Tiago L. C. Gouveia    : GS-ROHF, GS-ROCIS
   Yang Guo               : DLPNO-NEVPT2, F12-NEVPT2, CIM, IAO-localization
   Andreas Hansen         : Spin unrestricted coupled pair/coupled cluster methods
   Ingolf Harden          : AUTO-CI MPn and infrastructure 
   Benjamin Helmich-Paris : MC-RPA, TRAH-(SCF,CASSCF), AVAS, COSX integrals, SCF dyn. polar.
   Lee Huntington         : MR-EOM, pCC
   Robert Izsak           : Overlap fitted RIJCOSX, COSX-SCS-MP3, EOM
   Riya Kayal             : Wick's Theorem for AUTO-CI, AUTO-CI UHF-CCSDT
   Emily Kempfer          : AUTO-CI, RHF CISDT and CCSDT
   Christian Kollmar      : KDIIS, OOCD, Brueckner-CCSD(T), CCSD density, CASPT2, CASPT2-K, improved NEVPT2
   Axel Koslowski         : Symmetry handling
   Simone Kossmann        : Meta GGA functionals, TD-DFT gradient, OOMP2, (MP2 Hessian; deprecated post 5.0)
   Lucas Lang             : DCDCAS
   Marvin Lechner         : AUTO-CI (C++ implementation), FIC-MRCC
   Spencer Leger          : CASSCF response
   Dagmar Lenk            : GEPOL surface, SMD, ORCA-2-JSON
   Dimitrios Liakos       : Extrapolation schemes; Compound Job, initial MDCI parallelization
   Dimitrios Manganas     : Further ROCIS development; embedding schemes. LFT, Crystal Embedding
   Dimitrios Pantazis     : SARC Basis sets
   Anastasios Papadopoulos: AUTO-CI, single reference methods and gradients
   Taras Petrenko         : pre 6.0 DFT Hessian and TD-DFT gradient, (ASA, deprecated), ECA, 1-Electron XAS/XES, NRVS
   Peter Pinski           : DLPNO-MP2, DLPNO-MP2 Gradient
   Christoph Reimann      : Effective Core Potentials
   Marius Retegan         : Local ZFS, SOC
   Christoph Riplinger    : Optimizer, TS searches, QM/MM, DLPNO-CCSD(T), (RO)-DLPNO pert. Triples
   Michael Roemelt        : Original ROCIS implementation
   Masaaki Saitow         : Open-shell DLPNO-CCSD energy and density
   Barbara Sandhoefer     : DKH picture change effects
   Kantharuban Sivalingam : CASSCF convergence/infrastructure, NEVPT2 and variants, FIC-MRCI
   Bernardo de Souza      : ESD, SOC TD-DFT
   Georgi Stoychev        : AutoAux, RI-MP2 NMR, DLPNO-MP2 response, X2C
   Van Anh Tran           : RI-MP2 g-tensors
   Willem Van den Heuvel  : Paramagnetic NMR
   Zikuan Wang            : NOTCH, Electric field optimization 
   Frank Wennmohs         : Technical directorship and infrastructure
   Hang Xu                : AUTO-CI-Response properties 


 We gratefully acknowledge several colleagues who have allowed us to
 interface, adapt or use parts of their codes:
   Stefan Grimme, W. Hujo, H. Kruse, P. Pracht,  : VdW corrections, initial TS optimization,
                  C. Bannwarth, S. Ehlert,         DFT functionals, gCP, sTDA/sTD-DF
                  L. Wittmann, M. Mueller
   Ed Valeev, F. Pavosevic, A. Kumar             : LibInt (2-el integral package), F12 methods
   Garnet Chan, S. Sharma, J. Yang, R. Olivares  : DMRG
   Ulf Ekstrom                                   : XCFun DFT Library
   Mihaly Kallay                                 : mrcc  (arbitrary order and MRCC methods)
   Frank Weinhold                                : gennbo (NPA and NBO analysis)
   Simon Mueller                                 : openCOSMO-RS
   Christopher J. Cramer and Donald G. Truhlar   : smd solvation model
   Lars Goerigk                                  : TD-DFT with DH, B97 family of functionals
   V. Asgeirsson, H. Jonsson                     : NEB implementation
   FAccTs GmbH                                   : IRC, NEB, NEB-TS, DLPNO-Multilevel, CI-OPT
                                                   MM, QMMM, 2- and 3-layer-ONIOM, Crystal-QMMM,
                                                   LR-CPCM, SF, NACMEs, symmetry and pop. for TD-DFT,
                                                   nearIR, NL-DFT gradient (VV10), updates on ESD,
                                                   ML-optimized integration grids, MBIS, APM,
                                                   GOAT, DOCKER, SOLVATOR, interface openCOSMO-RS
   S Lehtola, MJT Oliveira, MAL Marques          : LibXC Library
   Liviu Ungur et al                             : ANISO software


 Your calculation uses the libint2 library for the computation of 2-el integrals
 For citations please refer to: http://libint.valeyev.net

 Your ORCA version has been built with support for libXC version: 6.2.2
 For citations please refer to: https://libxc.gitlab.io

 This ORCA versions uses:
   CBLAS   interface :  Fast vector & matrix operations
   LAPACKE interface :  Fast linear algebra routines
   SCALAPACK package :  Parallel linear algebra routines
   Shared memory     :  Shared parallel matrices
   BLAS/LAPACK       :  OpenBLAS 0.3.27  USE64BITINT DYNAMIC_ARCH NO_AFFINITY Zen SINGLE_THREADED
        Core in use  :  Zen
   Copyright (c) 2011-2014, The OpenBLAS Project


Your calculation utilizes the atom-pairwise dispersion correction
with the Becke-Johnson damping scheme (D3BJ)


Warning: RI is on but no J-basis has been assigned. Assigning Def2/J (nothing to worry about!)
================================================================================

----- Orbital basis set information -----
Your calculation utilizes the basis: def2-TZVPPD
   F. Weigend and R. Ahlrichs, Phys. Chem. Chem. Phys. 7, 3297 (2005).
   D. Rappoport and F. Furche, J. Chem. Phys. 133, 134105 (2010)
   D. Rappoport, J. Chem. Phys. 155, 124102 (2021).

----- AuxJ basis set information -----
Your calculation utilizes the auxiliary basis: def2/J
   F. Weigend, Phys. Chem. Chem. Phys. 8, 1057 (2006).

================================================================================
                                        WARNINGS
                       Please study these warnings very carefully!
================================================================================

Using LibXC functional ID 531 : wB97M-V exchange-correlation functional
[ 1]  N. Mardirossian and M. Head-Gordon.,  J. Chem. Phys. 144, 214110 (2016)
Using LibXC functional ID 531 : wB97M-V exchange-correlation functional
[ 1]  N. Mardirossian and M. Head-Gordon.,  J. Chem. Phys. 144, 214110 (2016)

WARNING: B97M-V or wB97M-V functional requested.
  ===> : libXC variant has now been activated.
         Any manually given DFX/HFX/RangeSep scaling parameters are IGNORED!

Your calculation utilizes LibXC
 by S Lehtola, C Steigemann, MJT Oliveira & MAL Marques
Please cite in your paper:
 S Lehtola, C Steigemann, MJT Oliveira & MAL Marques, SoftwareX, 7, (2018), 1.
   


WARNING: your system is open-shell and RHF/RKS was chosen
  ===> : WILL SWITCH to UHF/UKS

INFO   : Checking CIS options ...

WARNING: CIS/ROCIS methods need fully converged wavefunctions
  ===> : Setting SCFConvForced true
         You can overwrite this default with %scf ConvForced false 


================================================================================
                                       INPUT FILE
================================================================================
NAME = orca.inp
|  1> ! Engrad wB97M-D3BJ def2-TZVPPD 
|  2> %pal nprocs 8 end%pal nprocs 16 end 
|  3> %tddft nroots 2 Iroot 2
|  4>  sf true 
|  5> end 
|  6> *xyz 0 3 
|  7> O   0.06360989212729 0.81062802957299 -4.812986939e-05
|  8> C   0.72680097431536 -0.41964347017847 6.2856758e-05
|  9> C   -0.71488250055864 -0.45432903922845 -7.957221077e-05
| 10> H   1.26323638044955 -0.66282152513654 0.91154314160057
| 11> H   1.26311261073609 -0.66313440286579 -0.91143065467447
| 12> H   -1.24941467601732 -0.63615352940733 -0.92082017837772
| 13> H   -1.24923592472663 -0.63623585195596 0.92077253677377
| 14> *
| 15> 
| 16>                          ****END OF INPUT****
================================================================================

                     *******************************
                     * Energy+Gradient Calculation *
                     *******************************

---------------------------------
CARTESIAN COORDINATES (ANGSTROEM)
---------------------------------
  O      0.063610    0.810628   -0.000048
  C      0.726801   -0.419643    0.000063
  C     -0.714883   -0.454329   -0.000080
  H      1.263236   -0.662822    0.911543
  H      1.263113   -0.663134   -0.911431
  H     -1.249415   -0.636154   -0.920820
  H     -1.249236   -0.636236    0.920773

----------------------------
CARTESIAN COORDINATES (A.U.)
----------------------------
  NO LB      ZA    FRAG     MASS         X           Y           Z
   0 O     8.0000    0    15.999    0.120205    1.531865   -0.000091
   1 C     6.0000    0    12.011    1.373455   -0.793011    0.000119
   2 C     6.0000    0    12.011   -1.350932   -0.858557   -0.000150
   3 H     1.0000    0     1.008    2.387171   -1.252551    1.722567
   4 H     1.0000    0     1.008    2.386937   -1.253142   -1.722354
   5 H     1.0000    0     1.008   -2.361052   -1.202156   -1.740098
   6 H     1.0000    0     1.008   -2.360714   -1.202312    1.740008

--------------------------------
INTERNAL COORDINATES (ANGSTROEM)
--------------------------------
 O      0   0   0     0.000000000000     0.00000000     0.00000000
 C      1   0   0     1.397637430421     0.00000000     0.00000000
 C      2   1   0     1.442100672877    63.05085255     0.00000000
 H      2   1   3     1.085216485787   115.58634480   248.61684010
 H      2   1   3     1.085236576533   115.59004678   111.35918777
 H      3   2   1     1.080068542119   119.92697826   100.39401032
 H      3   2   1     1.080089013488   119.90440598   259.59872934

---------------------------
INTERNAL COORDINATES (A.U.)
---------------------------
 O      0   0   0     0.000000000000     0.00000000     0.00000000
 C      1   0   0     2.641151978012     0.00000000     0.00000000
 C      2   1   0     2.725175329280    63.05085255     0.00000000
 H      2   1   3     2.050761954154   115.58634480   248.61684010
 H      2   1   3     2.050799920161   115.59004678   111.35918777
 H      3   2   1     2.041033750468   119.92697826   100.39401032
 H      3   2   1     2.041072435750   119.90440598   259.59872934

---------------------
BASIS SET INFORMATION
---------------------
There are 3 groups of distinct atoms

 Group   1 Type O   : 12s7p3d1f contracted to 6s4p3d1f pattern {621111/4111/111/1}
 Group   2 Type C   : 12s6p3d1f contracted to 6s3p3d1f pattern {621111/411/111/1}
 Group   3 Type H   : 5s3p1d contracted to 3s3p1d pattern {311/111/1}

Atom   0O    basis set group =>   1
Atom   1C    basis set group =>   2
Atom   2C    basis set group =>   2
Atom   3H    basis set group =>   3
Atom   4H    basis set group =>   3
Atom   5H    basis set group =>   3
Atom   6H    basis set group =>   3
---------------------------------
AUXILIARY/J BASIS SET INFORMATION
---------------------------------
There are 3 groups of distinct atoms

 Group   1 Type O   : 12s5p4d2f1g contracted to 6s4p3d1f1g pattern {711111/2111/211/2/1}
 Group   2 Type C   : 12s5p4d2f1g contracted to 6s4p3d1f1g pattern {711111/2111/211/2/1}
 Group   3 Type H   : 5s2p1d contracted to 3s1p1d pattern {311/2/1}

Atom   0O    basis set group =>   1
Atom   1C    basis set group =>   2
Atom   2C    basis set group =>   2
Atom   3H    basis set group =>   3
Atom   4H    basis set group =>   3
Atom   5H    basis set group =>   3
Atom   6H    basis set group =>   3
[1739830887.005965] [ohm:3864758:0]        ib_iface.c:1059 UCX  ERROR ibv_create_cq(cqe=256) failed: Connection timed out
[1739830887.005943] [ohm:3864760:0]        ib_iface.c:1059 UCX  ERROR ibv_create_cq(cqe=256) failed: Connection timed out
[1739830887.015622] [ohm:3864759:0]        ib_iface.c:1059 UCX  ERROR ibv_create_cq(cqe=256) failed: Connection timed out
[1739830887.015892] [ohm:3864755:0]        ib_iface.c:1059 UCX  ERROR ibv_create_cq(cqe=256) failed: Connection timed out
[1739830887.015902] [ohm:3864757:0]        ib_iface.c:1059 UCX  ERROR ibv_create_cq(cqe=256) failed: Connection timed out
[1739830887.016216] [ohm:3864756:0]        ib_iface.c:1059 UCX  ERROR ibv_create_cq(cqe=256) failed: Connection timed out
[1739830887.018294] [ohm:3864762:0]        ib_iface.c:1059 UCX  ERROR ibv_create_cq(cqe=256) failed: Connection timed out
[1739830887.018448] [ohm:3864765:0]        ib_iface.c:1059 UCX  ERROR ibv_create_cq(cqe=256) failed: Connection timed out
[1739830887.024901] [ohm:3864761:0]        ib_iface.c:1059 UCX  ERROR ibv_create_cq(cqe=256) failed: Connection timed out
[1739830887.028365] [ohm:3864778:0]        ib_iface.c:1059 UCX  ERROR ibv_create_cq(cqe=256) failed: Connection timed out
[1739830887.041105] [ohm:3864763:0]        ib_iface.c:1059 UCX  ERROR ibv_create_cq(cqe=256) failed: Connection timed out
[1739830887.041159] [ohm:3864767:0]        ib_iface.c:1059 UCX  ERROR ibv_create_cq(cqe=256) failed: Connection timed out
[1739830887.041869] [ohm:3864768:0]        ib_iface.c:1059 UCX  ERROR ibv_create_cq(cqe=256) failed: Connection timed out
[1739830887.045717] [ohm:3864772:0]        ib_iface.c:1059 UCX  ERROR ibv_create_cq(cqe=256) failed: Connection timed out
[1739830887.045709] [ohm:3864782:0]        ib_iface.c:1059 UCX  ERROR ibv_create_cq(cqe=256) failed: Connection timed out
[1739830887.046190] [ohm:3864784:0]        ib_iface.c:1059 UCX  ERROR ibv_create_cq(cqe=256) failed: Connection timed out


           ************************************************************
           *        Program running with 16 parallel MPI-processes    *
           *              working on a common directory               *
           ************************************************************
------------------------------------------------------------------------------
                             ORCA STARTUP CALCULATIONS
                           -- RI-GTO INTEGRALS CHOSEN --
------------------------------------------------------------------------------
------------------------------------------------------------------------------
                   ___                                                        
                  /   \      - P O W E R E D   B Y -                         
                 /     \                                                     
                 |  |  |   _    _      __       _____    __    __             
                 |  |  |  | |  | |    /  \     |  _  \  |  |  /  |          
                  \  \/   | |  | |   /    \    | | | |  |  | /  /          
                 / \  \   | |__| |  /  /\  \   | |_| |  |  |/  /          
                |  |  |   |  __  | /  /__\  \  |    /   |      \           
                |  |  |   | |  | | |   __   |  |    \   |  |\   \          
                \     /   | |  | | |  |  |  |  | |\  \  |  | \   \       
                 \___/    |_|  |_| |__|  |__|  |_| \__\ |__|  \__/        
                                                                              
                      - O R C A' S   B I G   F R I E N D -                    
                                      &                                       
                       - I N T E G R A L  F E E D E R -                       
                                                                              
 v1 FN, 2020, v2 2021, v3 2022-2024                                           
------------------------------------------------------------------------------


----------------------
SHARK INTEGRAL PACKAGE
----------------------

Number of atoms                             ...      7
Number of basis functions                   ...    182
Number of shells                            ...     68
Maximum angular momentum                    ...      3
Integral batch strategy                     ... SHARK/LIBINT Hybrid
RI-J (if used) integral strategy            ... SPLIT-RIJ (Revised 2003 algorithm where possible)
Printlevel                                  ...      1
Contraction scheme used                     ... SEGMENTED contraction
Prescreening option                         ... SCHWARTZ
   Thresh                                   ... 2.500e-11
   Tcut                                     ... 2.500e-12
   Tpresel                                  ... 2.500e-12 
Coulomb Range Separation                    ... NOT USED
Exchange Range Separation                   ... Long Range
   Mu parameter                             ... 3.000e-01
   Scaling (regular/separated)              ... 1.500e-01 8.500e-01
Multipole approximations                    ... NOT USED
Finite Nucleus Model                        ... NOT USED
CABS basis                                  ... NOT available
Auxiliary Coulomb fitting basis             ... AVAILABLE
   # of basis functions in Aux-J            ...    191
   # of shells in Aux-J                     ...     65
   Maximum angular momentum in Aux-J        ...      4
Auxiliary J/K fitting basis                 ... NOT available
Auxiliary Correlation fitting basis         ... NOT available
Auxiliary 'external' fitting basis          ... NOT available

Checking pre-screening integrals            ... done (  0.0 sec) Dimension = 68
Check shell pair data                       ... done (  0.0 sec)
Shell pair information
Shell pair cut-off parameter TPreSel        ...   2.5e-12
Total number of shell pairs                 ...      2346
Shell pairs after pre-screening             ...      2341
Total number of primitive shell pairs       ...      5434
Primitive shell pairs kept                  ...      4919
          la=0 lb=0:    460 shell pairs
          la=1 lb=0:    660 shell pairs
          la=1 lb=1:    253 shell pairs
          la=2 lb=0:    390 shell pairs
          la=2 lb=1:    286 shell pairs
          la=2 lb=2:     91 shell pairs
          la=3 lb=0:     90 shell pairs
          la=3 lb=1:     66 shell pairs
          la=3 lb=2:     39 shell pairs
          la=3 lb=3:      6 shell pairs

Calculating one electron integrals          ... done (  0.0 sec)
Calculating RI/J V-Matrix + Cholesky decomp.... done (  0.0 sec)
Calculating Nuclear repulsion               ... done (  0.0 sec) ENN=     75.293548830547 Eh

Diagonalization of the overlap matrix:
Smallest eigenvalue                        ... 9.472e-06
Time for diagonalization                   ...    0.003 sec
Threshold for overlap eigenvalues          ... 1.000e-07
Number of eigenvalues below threshold      ... 0
Time for construction of square roots      ...    0.001 sec
Total time needed                          ...    0.005 sec

-------------------
DFT GRID GENERATION
-------------------

General Integration Accuracy     IntAcc      ... 4.388
Radial Grid Type                 RadialGrid  ... OptM3 with GC (2021)
Angular Grid (max. ang.)         AngularGrid ... 4 (Lebedev-302)
Angular grid pruning method      GridPruning ... 4 (adaptive)
Weight generation scheme         WeightScheme... mBecke (2022)
Basis function cutoff            BFCut       ... 1.0000e-11
Integration weight cutoff        WCut        ... 1.0000e-14
Partially contracted basis set               ... off
Rotationally invariant grid construction     ... off
Angular grids for H and He will be reduced by one unit
Diffuse basis detected: some atoms will have their outermost
                        angular grid increased by 1.

Total number of grid points                  ...    33058
Total number of batches                      ...      520
Average number of points per batch           ...       63
Average number of grid points per atom       ...     4723

--------------------
COSX GRID GENERATION
--------------------

GRIDX 1
-------
General Integration Accuracy     IntAcc      ... 3.816
Radial Grid Type                 RadialGrid  ... OptM3 with GC (2021)
Angular Grid (max. ang.)         AngularGrid ... 1 (Lebedev-50)
Angular grid pruning method      GridPruning ... 4 (adaptive)
Weight generation scheme         WeightScheme... mBecke (2022)
Basis function cutoff            BFCut       ... 1.0000e-11
Integration weight cutoff        WCut        ... 1.0000e-14
Partially contracted basis set               ... on
Rotationally invariant grid construction     ... off
Angular grids for H and He will be reduced by one unit
Diffuse basis detected: some atoms will have their outermost
                        angular grid increased by 1.

Total number of grid points                  ...     4164
Total number of batches                      ...       37
Average number of points per batch           ...      112
Average number of grid points per atom       ...      595
UseSFitting                                  ... on

GRIDX 2
-------
General Integration Accuracy     IntAcc      ... 4.020
Radial Grid Type                 RadialGrid  ... OptM3 with GC (2021)
Angular Grid (max. ang.)         AngularGrid ... 2 (Lebedev-110)
Angular grid pruning method      GridPruning ... 4 (adaptive)
Weight generation scheme         WeightScheme... mBecke (2022)
Basis function cutoff            BFCut       ... 1.0000e-11
Integration weight cutoff        WCut        ... 1.0000e-14
Partially contracted basis set               ... on
Rotationally invariant grid construction     ... off
Angular grids for H and He will be reduced by one unit
Diffuse basis detected: some atoms will have their outermost
                        angular grid increased by 1.

Total number of grid points                  ...    10261
Total number of batches                      ...       84
Average number of points per batch           ...      122
Average number of grid points per atom       ...     1466
UseSFitting                                  ... on

GRIDX 3
-------
General Integration Accuracy     IntAcc      ... 4.338
Radial Grid Type                 RadialGrid  ... OptM3 with GC (2021)
Angular Grid (max. ang.)         AngularGrid ... 3 (Lebedev-194)
Angular grid pruning method      GridPruning ... 4 (adaptive)
Weight generation scheme         WeightScheme... mBecke (2022)
Basis function cutoff            BFCut       ... 1.0000e-11
Integration weight cutoff        WCut        ... 1.0000e-14
Partially contracted basis set               ... on
Rotationally invariant grid construction     ... off
Angular grids for H and He will be reduced by one unit
Diffuse basis detected: some atoms will have their outermost
                        angular grid increased by 1.

Total number of grid points                  ...    23020
Total number of batches                      ...      182
Average number of points per batch           ...      126
Average number of grid points per atom       ...     3289
UseSFitting                                  ... on
Initializing property integral containers    ... done (  0.0 sec)

SHARK setup successfully completed in   0.3 seconds

Maximum memory used throughout the entire STARTUP-calculation: 13.8 MB
[1739830888.010892] [ohm:3864841:0]        ib_iface.c:1059 UCX  ERROR ibv_create_cq(cqe=256) failed: Connection timed out
[1739830888.011812] [ohm:3864843:0]        ib_iface.c:1059 UCX  ERROR ibv_create_cq(cqe=256) failed: Connection timed out
[1739830888.012023] [ohm:3864839:0]        ib_iface.c:1059 UCX  ERROR ibv_create_cq(cqe=256) failed: Connection timed out
[1739830888.051501] [ohm:3864845:0]        ib_iface.c:1059 UCX  ERROR ibv_create_cq(cqe=256) failed: Connection timed out
[1739830888.052597] [ohm:3864844:0]        ib_iface.c:1059 UCX  ERROR ibv_create_cq(cqe=256) failed: Connection timed out
[1739830888.052593] [ohm:3864840:0]        ib_iface.c:1059 UCX  ERROR ibv_create_cq(cqe=256) failed: Connection timed out
[1739830888.052999] [ohm:3864838:0]        ib_iface.c:1059 UCX  ERROR ibv_create_cq(cqe=256) failed: Connection timed out
[1739830888.053163] [ohm:3864842:0]        ib_iface.c:1059 UCX  ERROR ibv_create_cq(cqe=256) failed: Connection timed out
[1739830888.056943] [ohm:3864855:0]        ib_iface.c:1059 UCX  ERROR ibv_create_cq(cqe=256) failed: Connection timed out
[1739830888.057559] [ohm:3864848:0]        ib_iface.c:1059 UCX  ERROR ibv_create_cq(cqe=256) failed: Connection timed out
[1739830888.057569] [ohm:3864864:0]        ib_iface.c:1059 UCX  ERROR ibv_create_cq(cqe=256) failed: Connection timed out
[1739830888.060659] [ohm:3864850:0]        ib_iface.c:1059 UCX  ERROR ibv_create_cq(cqe=256) failed: Connection timed out
[1739830888.060724] [ohm:3864859:0]        ib_iface.c:1059 UCX  ERROR ibv_create_cq(cqe=256) failed: Connection timed out
[1739830888.060723] [ohm:3864867:0]        ib_iface.c:1059 UCX  ERROR ibv_create_cq(cqe=256) failed: Connection timed out
[1739830888.060740] [ohm:3864846:0]        ib_iface.c:1059 UCX  ERROR ibv_create_cq(cqe=256) failed: Connection timed out
[1739830888.064525] [ohm:3864870:0]        ib_iface.c:1059 UCX  ERROR ibv_create_cq(cqe=256) failed: Connection timed out


           ************************************************************
           *        Program running with 16 parallel MPI-processes    *
           *              working on a common directory               *
           ************************************************************
-------------------------------------------------------------------------------
                                 ORCA GUESS
                   Start orbitals & Density for SCF / CASSCF
-------------------------------------------------------------------------------

------------
SCF SETTINGS
------------
Hamiltonian:
 Density Functional     Method          .... DFT(GTOs)
  Functional kind                       .... Exchange-Correlation
  Functional name                       .... wB97M-V exchange-correlation functional
  Functional family                     .... Hybrid MGGA
  Functional refs                              
    [ 0] N. Mardirossian and M. Head-Gordon.,  J. Chem. Phys. 144, 214110 (2016), doi: 10.1063/1.4952647
  Fraction of HF Exchange (short range) .... 0.1500
  Fraction of HF Exchange (long range)  .... 1.0000
  Range separation parameter mu         .... 0.3000
  Functional external parameters        .... 17
    Parameter  0 _cx00      =  8.500000e-01 : u^00 coefficient for exchange
    Parameter  1 _cx01      =  1.007000e+00 : u^01 coefficient for exchange
    Parameter  2 _cx10      =  2.590000e-01 : u^10 coefficient for exchange
    Parameter  3 _css00     =  4.430000e-01 : u^00 coefficient for same-spin correlation
    Parameter  4 _css04     = -1.437000e+00 : u^04 coefficient for same-spin correlation
    Parameter  5 _css10     = -4.535000e+00 : u^10 coefficient for same-spin correlation
    Parameter  6 _css20     = -3.390000e+00 : u^20 coefficient for same-spin correlation
    Parameter  7 _css43     =  4.278000e+00 : u^43 coefficient for same-spin correlation
    Parameter  8 _cos00     =  1.000000e+00 : u^00 coefficient for opposite-spin correlation
    Parameter  9 _cos10     =  1.358000e+00 : u^10 coefficient for opposite-spin correlation
    Parameter 10 _cos20     =  2.924000e+00 : u^20 coefficient for opposite-spin correlation
    Parameter 11 _cos21     = -8.812000e+00 : u^21 coefficient for opposite-spin correlation
    Parameter 12 _cos60     = -1.390000e+00 : u^60 coefficient for opposite-spin correlation
    Parameter 13 _cos61     =  9.142000e+00 : u^61 coefficient for opposite-spin correlation
    Parameter 14 _alpha     =  1.000000e+00 : fraction of HF exchange
    Parameter 15 _beta      = -8.500000e-01 : fraction of short-range exchange
    Parameter 16 _omega     =  3.000000e-01 : range-separation constant
 Long-range corrected/Screened/Range-Separated Hybrid DFT is turned on
   Amount of maximum screened exact exchange              ....  0.850000
   Range separation parameter mu (erf(mu*r12)/r12)        ....  0.300000
 RI-approximation to the Coulomb term is turned on
   Number of AuxJ basis functions       .... 191
   RIJ-COSX (HFX calculated with COS-X)).... on


General Settings:
 Integral files         IntName         .... orca
 Hartree-Fock type      HFTyp           .... UHF
 Total Charge           Charge          ....    0
 Multiplicity           Mult            ....    3
 Number of Electrons    NEL             ....   24
 Basis Dimension        Dim             ....  182
 Nuclear Repulsion      ENuc            ....     75.2935488305 Eh

Convergence Acceleration:
 AO-DIIS                CNVDIIS         .... on
   Start iteration      DIISMaxIt       ....    12
   Startup error        DIISStart       ....  0.200000
   # of expansion vecs  DIISMaxEq       ....     5
   Bias factor          DIISBfac        ....   1.050
   Max. coefficient     DIISMaxC        ....  10.000
 MO-DIIS                CNVKDIIS        .... off
 Trust-Rad. Augm. Hess. CNVTRAH         .... auto
   Auto Start mean grad. ratio tolernc. ....  1.125000
   Auto Start start iteration           ....    50
   Auto Start num. interpolation iter.  ....    10
   Max. Number of Micro iterations      ....    24
   Max. Number of Macro iterations      .... Maxiter - #DIIS iter
   Number of Davidson start vectors     ....     2
   Converg. threshold    (grad. norm)   ....   1.000e-05
   Grad. Scal. Fac. for Micro threshold ....   0.100
   Minimum threshold for Micro iter.    ....   1.000e-02
   NR start threshold (gradient norm)   ....   1.000e-04
   Initial trust radius                 ....   0.400
   Minimum AH scaling param. (alpha)    ....   1.000
   Maximum AH scaling param. (alpha)    .... 1000.000
   Quad. conv. algorithm                .... NR
   White noise on init. David. guess    .... on
   Maximum white noise                  ....   0.010
   Pseudo random numbers                .... off
   Inactive MOs                         .... canonical
   Orbital update algorithm             .... Taylor
   Preconditioner                       .... Diag
   Full preconditioner red. dimension   ....   250
 SOSCF                  CNVSOSCF        .... on
   Start iteration      SOSCFMaxIt      ....   150
   Startup grad/error   SOSCFStart      ....  0.003300
   Hessian update       SOSCFHessUp     .... L-BFGS
 Level Shifting         CNVShift        .... on
   Level shift para.    LevelShift      ....    0.2500
   Turn off err/grad.   ShiftErr        ....    0.0010
 Zerner damping         CNVZerner       .... off
 Static damping         CNVDamp         .... on
   Fraction old density DampFac         ....    0.7000
   Max. Damping (<1)    DampMax         ....    0.9800
   Min. Damping (>=0)   DampMin         ....    0.0000
   Turn off err/grad.   DampErr         ....    0.1000

SCF Procedure:
 Maximum # iterations   MaxIter         ....   125
 SCF integral mode      SCFMode         .... Direct
   Integral package                     .... SHARK and LIBINT hybrid scheme
 Reset frequency        DirectResetFreq ....    20
 Integral Threshold     Thresh          ....  2.500e-11 Eh
 Primitive CutOff       TCut            ....  2.500e-12 Eh

Convergence Tolerance:
 Convergence Check Mode ConvCheckMode   .... Total+1el-Energy
 Convergence forced     ConvForced      .... 1
 Energy Change          TolE            ....  1.000e-08 Eh
 1-El. energy change                    ....  1.000e-05 Eh
 Orbital Gradient       TolG            ....  1.000e-05
 Orbital Rotation angle TolX            ....  1.000e-05
 DIIS Error             TolErr          ....  5.000e-07

------------------------------
INITIAL GUESS: MODEL POTENTIAL
------------------------------
Loading Hartree-Fock densities                     ... done
Calculating cut-offs                               ... done
Initializing the effective Hamiltonian             ... done
Setting up the integral package (SHARK)            ... done
Starting the Coulomb interaction                   ... done (   0.0 sec)
Making the grid                                    ... done (   0.0 sec)
Mapping shells                                     ... done
Starting the XC term evaluation                    ... done (   0.0 sec)
  promolecular density results
     # of electrons  =     23.997144549
     EX              =    -19.545255590
     EC              =     -0.782588534
     EX+EC           =    -20.327844124
Transforming the Hamiltonian                       ... done (   0.0 sec)
Diagonalizing the Hamiltonian                      ... done (   0.0 sec)
Back transforming the eigenvectors                 ... done (   0.0 sec)
Now organizing SCF variables                       ... done
                      ------------------
                      INITIAL GUESS DONE (   0.1 sec)
                      ------------------
             **** ENERGY FILE WAS UPDATED (orca.en.tmp) ****
Finished Guess after   0.5 sec
Maximum memory used throughout the entire GUESS-calculation: 9.7 MB
[1739830888.806295] [ohm:3864922:0]        ib_iface.c:1059 UCX  ERROR ibv_create_cq(cqe=256) failed: Connection timed out
[1739830888.806351] [ohm:3864926:0]        ib_iface.c:1059 UCX  ERROR ibv_create_cq(cqe=256) failed: Connection timed out
[1739830888.814885] [ohm:3864931:0]        ib_iface.c:1059 UCX  ERROR ibv_create_cq(cqe=256) failed: Connection timed out
[1739830888.818009] [ohm:3864927:0]        ib_iface.c:1059 UCX  ERROR ibv_create_cq(cqe=256) failed: Connection timed out
[1739830888.818010] [ohm:3864929:0]        ib_iface.c:1059 UCX  ERROR ibv_create_cq(cqe=256) failed: Connection timed out
[1739830888.818092] [ohm:3864923:0]        ib_iface.c:1059 UCX  ERROR ibv_create_cq(cqe=256) failed: Connection timed out
[1739830888.818169] [ohm:3864925:0]        ib_iface.c:1059 UCX  ERROR ibv_create_cq(cqe=256) failed: Connection timed out
[1739830888.819760] [ohm:3864921:0]        ib_iface.c:1059 UCX  ERROR ibv_create_cq(cqe=256) failed: Connection timed out
[1739830888.820177] [ohm:3864928:0]        ib_iface.c:1059 UCX  ERROR ibv_create_cq(cqe=256) failed: Connection timed out
[1739830888.826921] [ohm:3864924:0]        ib_iface.c:1059 UCX  ERROR ibv_create_cq(cqe=256) failed: Connection timed out
[1739830888.840072] [ohm:3864934:0]        ib_iface.c:1059 UCX  ERROR ibv_create_cq(cqe=256) failed: Connection timed out
[1739830888.840046] [ohm:3864949:0]        ib_iface.c:1059 UCX  ERROR ibv_create_cq(cqe=256) failed: Connection timed out
[1739830888.840640] [ohm:3864941:0]        ib_iface.c:1059 UCX  ERROR ibv_create_cq(cqe=256) failed: Connection timed out
[1739830888.842125] [ohm:3864946:0]        ib_iface.c:1059 UCX  ERROR ibv_create_cq(cqe=256) failed: Connection timed out
[1739830888.842224] [ohm:3864936:0]        ib_iface.c:1059 UCX  ERROR ibv_create_cq(cqe=256) failed: Connection timed out
[1739830888.842272] [ohm:3864933:0]        ib_iface.c:1059 UCX  ERROR ibv_create_cq(cqe=256) failed: Connection timed out


           ************************************************************
           *        Program running with 16 parallel MPI-processes    *
           *              working on a common directory               *
           ************************************************************

-------------------------------------------------------------------------------------------
                                      ORCA LEAN-SCF
                              memory conserving SCF solver
-------------------------------------------------------------------------------------------

----------------------------------------D-I-I-S--------------------------------------------
Iteration    Energy (Eh)           Delta-E    RMSDP     MaxDP     DIISErr   Damp  Time(sec)
-------------------------------------------------------------------------------------------
               ***  Starting incremental Fock matrix formation  ***
    1    -153.5331048645319925     0.00e+00  1.87e-03  2.06e-01  9.81e-02  0.700   0.4
    2    -153.5671330241982560    -3.40e-02  2.59e-03  3.33e-01  5.86e-02  0.700   0.3
                               ***Turning on AO-DIIS***
    3    -153.5852259485043874    -1.81e-02  2.32e-03  3.12e-01  3.01e-02  0.700   0.3
    4    -153.5962772638675347    -1.11e-02  6.70e-03  9.19e-01  2.04e-02  0.000   0.3
    5    -153.6217782218456307    -2.55e-02  2.17e-03  3.00e-01  7.78e-03  0.000   0.3
    6    -153.6226377676006223    -8.60e-04  2.04e-03  2.71e-01  5.74e-03  0.000   0.3
                              *** Initializing SOSCF ***
---------------------------------------S-O-S-C-F--------------------------------------
Iteration    Energy (Eh)           Delta-E    RMSDP     MaxDP     MaxGrad    Time(sec)
--------------------------------------------------------------------------------------
    7    -153.6233781312744782    -7.40e-04  1.43e-03  1.71e-01  3.02e-03     0.3
               *** Restarting incremental Fock matrix formation ***
    8    -153.6239191014620928    -5.41e-04  1.13e-03  8.42e-02  4.42e-03     0.4
    9    -153.6243695089893606    -4.50e-04  5.53e-03  4.45e-01  3.34e-03     0.4
   10    -153.6251975230338758    -8.28e-04  8.84e-04  5.99e-02  2.51e-03     0.4
   11    -153.6253170626503959    -1.20e-04  3.76e-04  2.53e-02  1.82e-03     0.4
   12    -153.6253414363942511    -2.44e-05  3.21e-04  3.44e-02  6.08e-04     0.4
   13    -153.6253513306529328    -9.89e-06  3.21e-04  3.03e-02  2.55e-04     0.4
   14    -153.6253543982144265    -3.07e-06  2.09e-04  1.75e-02  1.69e-04     0.3
   15    -153.6253554710593505    -1.07e-06  4.15e-04  2.52e-02  1.37e-04     0.3
   16    -153.6253567333642422    -1.26e-06  2.68e-04  2.11e-02  1.53e-04     0.4
   17    -153.6253572523761193    -5.19e-07  1.87e-04  1.78e-02  1.10e-04     0.3
   18    -153.6253574990128925    -2.47e-07  4.98e-05  4.86e-03  4.80e-05     0.3
   19    -153.6253575504309481    -5.14e-08  1.86e-05  1.14e-03  2.43e-05     0.3
   20    -153.6253575606448578    -1.02e-08  1.38e-05  1.06e-03  5.37e-06     0.3
   21    -153.6253575629293948    -2.28e-09  4.10e-06  3.12e-04  3.35e-06     0.3
                 **** Energy Check signals convergence ****

               *****************************************************
               *                     SUCCESS                       *
               *           SCF CONVERGED AFTER  21 CYCLES          *
               *****************************************************

Recomputing exchange energy using gridx3       ... done (    0.442 sec)
Old exchange energy                            :     -6.168476081 Eh
New exchange energy                            :     -6.168467187 Eh
Exchange energy change after final integration :      0.000008894 Eh
Total energy after final integration           :   -153.625348669 Eh
             **** ENERGY FILE WAS UPDATED (orca.en.tmp) ****

----------------
TOTAL SCF ENERGY
----------------

Total Energy       :       -153.62534866901899 Eh           -4180.35826 eV

Components:
Nuclear Repulsion  :         75.29354883054685 Eh            2048.84162 eV
Electronic Energy  :       -228.91890639347625 Eh           -6229.20013 eV
One Electron Energy:       -355.69855134532645 Eh           -9679.04966 eV
Two Electron Energy:        126.77964495185020 Eh            3449.84953 eV

Virial components:
Potential Energy   :       -307.29633464651442 Eh           -8361.95838 eV
Kinetic Energy     :        153.67098597749541 Eh            4181.60012 eV
Virial Ratio       :          1.99970301935537

DFT components:
N(Alpha)           :       12.999283092533 electrons
N(Beta)            :       11.000003447587 electrons
N(Total)           :       23.999286540120 electrons
E(XC)              :      -14.716507416753 Eh       

---------------
SCF CONVERGENCE
---------------

  Last Energy change         ...    2.2845e-09  Tolerance :   1.0000e-08
  Last MAX-Density change    ...    3.1168e-04  Tolerance :   1.0000e-07
  Last RMS-Density change    ...    4.1043e-06  Tolerance :   5.0000e-09
  Last DIIS Error            ...    3.0235e-03  Tolerance :   5.0000e-07
  Last Orbital Gradient      ...    3.3491e-06  Tolerance :   1.0000e-05
  Last Orbital Rotation      ...    3.9974e-05  Tolerance :   1.0000e-05


----------------------
UHF SPIN CONTAMINATION
----------------------

Warning: in a DFT calculation there is little theoretical justification to 
         calculate <S**2> as in Hartree-Fock theory. We will do it anyways
         but you should keep in mind that the values have only limited relevance

Expectation value of <S**2>     :     2.005313
Ideal value S*(S+1) for S=1.0   :     2.000000
Deviation                       :     0.005313

----------------
ORBITAL ENERGIES
----------------
                 SPIN UP ORBITALS
  NO   OCC          E(Eh)            E(eV) 
   0   1.0000     -19.492349      -530.4138 
   1   1.0000     -10.434695      -283.9425 
   2   1.0000     -10.394299      -282.8433 
   3   1.0000      -1.318331       -35.8736 
   4   1.0000      -0.873256       -23.7625 
   5   1.0000      -0.797340       -21.6967 
   6   1.0000      -0.704018       -19.1573 
   7   1.0000      -0.666143       -18.1267 
   8   1.0000      -0.589294       -16.0355 
   9   1.0000      -0.521711       -14.1965 
  10   1.0000      -0.511985       -13.9318 
  11   1.0000      -0.482631       -13.1331 
  12   1.0000      -0.128839        -3.5059 
  13   0.0000       0.033840         0.9208 
  14   0.0000       0.057657         1.5689 
  15   0.0000       0.068484         1.8635 
  16   0.0000       0.086203         2.3457 
  17   0.0000       0.104879         2.8539 
  18   0.0000       0.127020         3.4564 
  19   0.0000       0.135787         3.6949 
  20   0.0000       0.140530         3.8240 
  21   0.0000       0.151245         4.1156 
  22   0.0000       0.191992         5.2244 
  23   0.0000       0.195069         5.3081 

                 SPIN DOWN ORBITALS
  NO   OCC          E(Eh)            E(eV) 
   0   1.0000     -19.460189      -529.5387 
   1   1.0000     -10.434499      -283.9372 
   2   1.0000     -10.388344      -282.6812 
   3   1.0000      -1.253048       -34.0972 
   4   1.0000      -0.840889       -22.8818 
   5   1.0000      -0.780144       -21.2288 
   6   1.0000      -0.645883       -17.5754 
   7   1.0000      -0.635690       -17.2980 
   8   1.0000      -0.552648       -15.0383 
   9   1.0000      -0.498773       -13.5723 
  10   1.0000      -0.459086       -12.4924 
  11   0.0000      -0.133716        -3.6386 
  12   0.0000       0.032999         0.8980 
  13   0.0000       0.055754         1.5171 
  14   0.0000       0.064318         1.7502 
  15   0.0000       0.069933         1.9030 
  16   0.0000       0.109309         2.9744 
  17   0.0000       0.114997         3.1292 
  18   0.0000       0.124519         3.3883 
  19   0.0000       0.147528         4.0144 
  20   0.0000       0.153340         4.1726 
  21   0.0000       0.159710         4.3459 
*Only the first 10 virtual orbitals were printed.

                    ********************************
                    * MULLIKEN POPULATION ANALYSIS *
                    ********************************

--------------------------------------------
MULLIKEN ATOMIC CHARGES AND SPIN POPULATIONS
--------------------------------------------
   0 O :   -0.345970    1.353757
   1 C :    0.141795   -0.180538
   2 C :   -0.379739    0.408591
   3 H :    0.154709    0.079249
   4 H :    0.154761    0.079248
   5 H :    0.137215    0.129852
   6 H :    0.137229    0.129840
Sum of atomic charges         :    0.0000000
Sum of atomic spin populations:    2.0000000

-----------------------------------------------------
MULLIKEN REDUCED ORBITAL CHARGES AND SPIN POPULATIONS
-----------------------------------------------------
CHARGE
  0 O s       :     4.127909  s :     4.127909
      pz      :     1.088958  p :     4.169525
      px      :     1.542922
      py      :     1.537644
      dz2     :     0.006007  d :     0.046744
      dxz     :     0.000687
      dyz     :     0.009563
      dx2y2   :     0.014499
      dxy     :     0.015989
      f0      :     0.000194  f :     0.001793
      f+1     :     0.000081
      f-1     :     0.000292
      f+2     :     0.000084
      f-2     :     0.000190
      f+3     :     0.000396
      f-3     :     0.000556

  1 C s       :     3.270190  s :     3.270190
      pz      :     1.095571  p :     2.500660
      px      :     0.906050
      py      :     0.499040
      dz2     :     0.033171  d :     0.076052
      dxz     :    -0.008973
      dyz     :     0.009583
      dx2y2   :     0.028225
      dxy     :     0.014046
      f0      :     0.001185  f :     0.011303
      f+1     :     0.000875
      f-1     :     0.000834
      f+2     :     0.000898
      f-2     :     0.001229
      f+3     :     0.003259
      f-3     :     0.003023

  2 C s       :     3.497250  s :     3.497250
      pz      :     1.168910  p :     2.771584
      px      :     0.832595
      py      :     0.770079
      dz2     :     0.021228  d :     0.100960
      dxz     :    -0.022976
      dyz     :     0.003265
      dx2y2   :     0.059638
      dxy     :     0.039806
      f0      :     0.000934  f :     0.009945
      f+1     :     0.000794
      f-1     :     0.001040
      f+2     :     0.000831
      f-2     :     0.000965
      f+3     :     0.003169
      f-3     :     0.002213

  3 H s       :     0.776049  s :     0.776049
      pz      :     0.015149  p :     0.066689
      px      :     0.016370
      py      :     0.035170
      dz2     :     0.000768  d :     0.002553
      dxz     :     0.000629
      dyz     :     0.000516
      dx2y2   :     0.000321
      dxy     :     0.000320

  4 H s       :     0.776006  s :     0.776006
      pz      :     0.015136  p :     0.066680
      px      :     0.016379
      py      :     0.035165
      dz2     :     0.000767  d :     0.002553
      dxz     :     0.000629
      dyz     :     0.000516
      dx2y2   :     0.000321
      dxy     :     0.000319

  5 H s       :     0.716014  s :     0.716014
      pz      :     0.020101  p :     0.144279
      px      :     0.012332
      py      :     0.111845
      dz2     :     0.000715  d :     0.002492
      dxz     :     0.000550
      dyz     :     0.000652
      dx2y2   :     0.000269
      dxy     :     0.000306

  6 H s       :     0.716009  s :     0.716009
      pz      :     0.020088  p :     0.144270
      px      :     0.012342
      py      :     0.111840
      dz2     :     0.000715  d :     0.002492
      dxz     :     0.000550
      dyz     :     0.000652
      dx2y2   :     0.000269
      dxy     :     0.000306


SPIN
  0 O s       :     0.215964  s :     0.215964
      pz      :     0.846039  p :     1.129527
      px      :     0.058663
      py      :     0.224825
      dz2     :     0.001326  d :     0.008482
      dxz     :    -0.000613
      dyz     :    -0.005649
      dx2y2   :     0.008929
      dxy     :     0.004488
      f0      :    -0.000073  f :    -0.000216
      f+1     :    -0.000072
      f-1     :    -0.000115
      f+2     :    -0.000002
      f-2     :     0.000006
      f+3     :     0.000027
      f-3     :     0.000014

  1 C s       :    -0.007132  s :    -0.007132
      pz      :     0.002510  p :    -0.204757
      px      :    -0.002706
      py      :    -0.204560
      dz2     :     0.033810  d :     0.028663
      dxz     :    -0.000528
      dyz     :     0.008477
      dx2y2   :     0.001182
      dxy     :    -0.014277
      f0      :     0.000470  f :     0.002688
      f+1     :     0.000013
      f-1     :     0.000025
      f+2     :     0.000556
      f-2     :     0.000511
      f+3     :     0.001174
      f-3     :    -0.000062

  2 C s       :     0.087007  s :     0.087007
      pz      :     0.036853  p :     0.255041
      px      :     0.032595
      py      :     0.185593
      dz2     :     0.013148  d :     0.064289
      dxz     :     0.000043
      dyz     :     0.002353
      dx2y2   :     0.034168
      dxy     :     0.014577
      f0      :     0.000261  f :     0.002255
      f+1     :    -0.000068
      f-1     :     0.000529
      f+2     :     0.000287
      f-2     :     0.000380
      f+3     :     0.000904
      f-3     :    -0.000039

  3 H s       :     0.050409  s :     0.050409
      pz      :     0.000541  p :     0.028876
      px      :     0.001057
      py      :     0.027278
      dz2     :    -0.000009  d :    -0.000036
      dxz     :     0.000009
      dyz     :    -0.000040
      dx2y2   :     0.000011
      dxy     :    -0.000007

  4 H s       :     0.050416  s :     0.050416
      pz      :     0.000536  p :     0.028868
      px      :     0.001063
      py      :     0.027270
      dz2     :    -0.000009  d :    -0.000036
      dxz     :     0.000009
      dyz     :    -0.000040
      dx2y2   :     0.000011
      dxy     :    -0.000007

  5 H s       :     0.020981  s :     0.020981
      pz      :     0.005371  p :     0.108562
      px      :     0.000216
      py      :     0.102975
      dz2     :    -0.000000  d :     0.000309
      dxz     :     0.000004
      dyz     :     0.000237
      dx2y2   :     0.000009
      dxy     :     0.000060

  6 H s       :     0.020976  s :     0.020976
      pz      :     0.005366  p :     0.108554
      px      :     0.000222
      py      :     0.102966
      dz2     :    -0.000000  d :     0.000309
      dxz     :     0.000004
      dyz     :     0.000237
      dx2y2   :     0.000009
      dxy     :     0.000060



                     *******************************
                     * LOEWDIN POPULATION ANALYSIS *
                     *******************************

-------------------------------------------
LOEWDIN ATOMIC CHARGES AND SPIN POPULATIONS
-------------------------------------------
   0 O :    0.103255    1.107685
   1 C :    0.001896    0.131053
   2 C :   -0.005255    0.380435
   3 H :    0.012634    0.055549
   4 H :    0.012638    0.055562
   5 H :   -0.062586    0.134857
   6 H :   -0.062581    0.134859

----------------------------------------------------
LOEWDIN REDUCED ORBITAL CHARGES AND SPIN POPULATIONS
----------------------------------------------------
CHARGE
  0 O s       :     3.443959  s :     3.443959
      pz      :     1.009253  p :     4.020082
      px      :     1.442882
      py      :     1.567947
      dz2     :     0.037111  d :     0.426011
      dxz     :     0.052763
      dyz     :     0.081833
      dx2y2   :     0.120222
      dxy     :     0.134082
      f0      :     0.000691  f :     0.006693
      f+1     :     0.000215
      f-1     :     0.001068
      f+2     :     0.000188
      f-2     :     0.000948
      f+3     :     0.001064
      f-3     :     0.002519

  1 C s       :     2.651005  s :     2.651005
      pz      :     0.916882  p :     2.547373
      px      :     0.924574
      py      :     0.705917
      dz2     :     0.099369  d :     0.715119
      dxz     :     0.200374
      dyz     :     0.057170
      dx2y2   :     0.195268
      dxy     :     0.162938
      f0      :     0.007751  f :     0.084607
      f+1     :     0.007890
      f-1     :     0.009288
      f+2     :     0.006673
      f-2     :     0.005993
      f+3     :     0.022775
      f-3     :     0.024238

  2 C s       :     2.667930  s :     2.667930
      pz      :     0.924015  p :     2.562641
      px      :     0.876087
      py      :     0.762539
      dz2     :     0.107689  d :     0.699967
      dxz     :     0.182943
      dyz     :     0.038540
      dx2y2   :     0.201020
      dxy     :     0.169774
      f0      :     0.006230  f :     0.074718
      f+1     :     0.007756
      f-1     :     0.009206
      f+2     :     0.005515
      f-2     :     0.004033
      f+3     :     0.024103
      f-3     :     0.017874

  3 H s       :     0.682408  s :     0.682408
      pz      :     0.115068  p :     0.274955
      px      :     0.081228
      py      :     0.078659
      dz2     :     0.009375  d :     0.030003
      dxz     :     0.008754
      dyz     :     0.005893
      dx2y2   :     0.003370
      dxy     :     0.002610

  4 H s       :     0.682397  s :     0.682397
      pz      :     0.115062  p :     0.274964
      px      :     0.081232
      py      :     0.078670
      dz2     :     0.009373  d :     0.030002
      dxz     :     0.008753
      dyz     :     0.005894
      dx2y2   :     0.003371
      dxy     :     0.002610

  5 H s       :     0.683273  s :     0.683273
      pz      :     0.115104  p :     0.348736
      px      :     0.077054
      py      :     0.156577
      dz2     :     0.009181  d :     0.030578
      dxz     :     0.008680
      dyz     :     0.007228
      dx2y2   :     0.002891
      dxy     :     0.002598

  6 H s       :     0.683266  s :     0.683266
      pz      :     0.115108  p :     0.348739
      px      :     0.077056
      py      :     0.156575
      dz2     :     0.009182  d :     0.030577
      dxz     :     0.008679
      dyz     :     0.007229
      dx2y2   :     0.002890
      dxy     :     0.002596


SPIN
  0 O s       :     0.101616  s :     0.101616
      pz      :     0.748757  p :     0.974200
      px      :     0.056615
      py      :     0.168828
      dz2     :     0.006281  d :     0.031268
      dxz     :    -0.001547
      dyz     :     0.014210
      dx2y2   :     0.001216
      dxy     :     0.011108
      f0      :     0.000160  f :     0.000602
      f+1     :     0.000034
      f-1     :     0.000257
      f+2     :     0.000026
      f-2     :    -0.000003
      f+3     :     0.000126
      f-3     :     0.000002

  1 C s       :     0.002851  s :     0.002851
      pz      :     0.012622  p :     0.023929
      px      :     0.009328
      py      :     0.001979
      dz2     :     0.008768  d :     0.085648
      dxz     :     0.011231
      dyz     :     0.052083
      dx2y2   :     0.004097
      dxy     :     0.009468
      f0      :     0.002981  f :     0.018625
      f+1     :     0.000475
      f-1     :     0.000735
      f+2     :     0.004209
      f-2     :     0.002855
      f+3     :     0.007604
      f-3     :    -0.000235

  2 C s       :     0.018981  s :     0.018981
      pz      :     0.021816  p :     0.215345
      px      :     0.009003
      py      :     0.184526
      dz2     :     0.013467  d :     0.128900
      dxz     :     0.007584
      dyz     :     0.034422
      dx2y2   :     0.036324
      dxy     :     0.037102
      f0      :     0.001705  f :     0.017209
      f+1     :     0.000424
      f-1     :     0.002023
      f+2     :     0.002335
      f-2     :     0.001951
      f+3     :     0.008947
      f-3     :    -0.000176

  3 H s       :     0.024049  s :     0.024049
      pz      :     0.000884  p :     0.031765
      px      :     0.000550
      py      :     0.030331
      dz2     :    -0.000018  d :    -0.000265
      dxz     :     0.000074
      dyz     :    -0.000293
      dx2y2   :     0.000097
      dxy     :    -0.000124

  4 H s       :     0.024057  s :     0.024057
      pz      :     0.000885  p :     0.031770
      px      :     0.000550
      py      :     0.030336
      dz2     :    -0.000019  d :    -0.000265
      dxz     :     0.000074
      dyz     :    -0.000293
      dx2y2   :     0.000097
      dxy     :    -0.000124

  5 H s       :     0.015366  s :     0.015366
      pz      :     0.001946  p :     0.116151
      px      :     0.000946
      py      :     0.113259
      dz2     :     0.000153  d :     0.003339
      dxz     :     0.000232
      dyz     :     0.002478
      dx2y2   :     0.000042
      dxy     :     0.000435

  6 H s       :     0.015371  s :     0.015371
      pz      :     0.001946  p :     0.116149
      px      :     0.000947
      py      :     0.113255
      dz2     :     0.000153  d :     0.003339
      dxz     :     0.000232
      dyz     :     0.002478
      dx2y2   :     0.000042
      dxy     :     0.000434



                      *****************************
                      * MAYER POPULATION ANALYSIS *
                      *****************************

  NA   - Mulliken gross atomic population
  ZA   - Total nuclear charge
  QA   - Mulliken gross atomic charge
  VA   - Mayer's total valence
  BVA  - Mayer's bonded valence
  FA   - Mayer's free valence

  ATOM       NA         ZA         QA         VA         BVA        FA
  0 O      8.3460     8.0000    -0.3460     2.6785     1.7189     0.9596
  1 C      5.8582     6.0000     0.1418     3.0634     3.0458     0.0176
  2 C      6.3797     6.0000    -0.3797     3.4925     3.3962     0.0964
  3 H      0.8453     1.0000     0.1547     1.0879     1.0852     0.0027
  4 H      0.8452     1.0000     0.1548     1.0878     1.0851     0.0027
  5 H      0.8628     1.0000     0.1372     1.1957     1.1806     0.0151
  6 H      0.8628     1.0000     0.1372     1.1956     1.1805     0.0151

  Mayer bond orders larger than 0.100000
B(  0-O ,  1-C ) :   0.6530 B(  0-O ,  2-C ) :   0.6892 B(  0-O ,  5-H ) :   0.1287 
B(  0-O ,  6-H ) :   0.1286 B(  1-C ,  2-C ) :   0.6125 B(  1-C ,  3-H ) :   0.9794 
B(  1-C ,  4-H ) :   0.9794 B(  2-C ,  5-H ) :   1.0565 B(  2-C ,  6-H ) :   1.0565 


-------
TIMINGS
-------

Total SCF time: 0 days 0 hours 0 min 7 sec 

Total time                  ....       7.928 sec
Sum of individual times     ....       7.912 sec  ( 99.8%)

SCF preparation             ....       0.401 sec  (  5.1%)
Fock matrix formation       ....       6.769 sec  ( 85.4%)
  Startup                   ....       0.042 sec  (  0.6% of F)
  Split-RI-J                ....       0.292 sec  (  4.3% of F)
  Chain of spheres X        ....       4.370 sec  ( 64.6% of F)
  XC integration            ....       1.919 sec  ( 28.3% of F)
    XC Preparation          ....       0.000 sec  (  0.0% of XC)
    Basis function eval.    ....       0.123 sec  (  6.4% of XC)
    Density eval.           ....       0.580 sec  ( 30.2% of XC)
    XC-Functional eval.     ....       0.054 sec  (  2.8% of XC)
    XC-Potential eval.      ....       1.032 sec  ( 53.8% of XC)
Diagonalization             ....       0.000 sec  (  0.0%)
Density matrix formation    ....       0.100 sec  (  1.3%)
Total Energy calculation    ....       0.071 sec  (  0.9%)
Population analysis         ....       0.025 sec  (  0.3%)
Orbital Transformation      ....       0.052 sec  (  0.7%)
Orbital Orthonormalization  ....       0.000 sec  (  0.0%)
DIIS solution               ....       0.260 sec  (  3.3%)
SOSCF solution              ....       0.231 sec  (  2.9%)
Finished LeanSCF after   7.9 sec

Maximum memory used throughout the entire LEANSCF-calculation: 14.8 MB
[1739830897.036208] [ohm:3865057:0]        ib_iface.c:1059 UCX  ERROR ibv_create_cq(cqe=256) failed: Connection timed out
[1739830897.036196] [ohm:3865059:0]        ib_iface.c:1059 UCX  ERROR ibv_create_cq(cqe=256) failed: Connection timed out
[1739830897.041601] [ohm:3865055:0]        ib_iface.c:1059 UCX  ERROR ibv_create_cq(cqe=256) failed: Connection timed out
[1739830897.041984] [ohm:3865054:0]        ib_iface.c:1059 UCX  ERROR ibv_create_cq(cqe=256) failed: Connection timed out
[1739830897.041998] [ohm:3865058:0]        ib_iface.c:1059 UCX  ERROR ibv_create_cq(cqe=256) failed: Connection timed out
[1739830897.043807] [ohm:3865056:0]        ib_iface.c:1059 UCX  ERROR ibv_create_cq(cqe=256) failed: Connection timed out
[1739830897.049845] [ohm:3865066:0]        ib_iface.c:1059 UCX  ERROR ibv_create_cq(cqe=256) failed: Connection timed out
[1739830897.055433] [ohm:3865064:0]        ib_iface.c:1059 UCX  ERROR ibv_create_cq(cqe=256) failed: Connection timed out
[1739830897.059447] [ohm:3865061:0]        ib_iface.c:1059 UCX  ERROR ibv_create_cq(cqe=256) failed: Connection timed out
[1739830897.078152] [ohm:3865060:0]        ib_iface.c:1059 UCX  ERROR ibv_create_cq(cqe=256) failed: Connection timed out
[1739830897.078177] [ohm:3865062:0]        ib_iface.c:1059 UCX  ERROR ibv_create_cq(cqe=256) failed: Connection timed out
[1739830897.088094] [ohm:3865067:0]        ib_iface.c:1059 UCX  ERROR ibv_create_cq(cqe=256) failed: Connection timed out
[1739830897.088087] [ohm:3865080:0]        ib_iface.c:1059 UCX  ERROR ibv_create_cq(cqe=256) failed: Connection timed out
[1739830897.096655] [ohm:3865083:0]        ib_iface.c:1059 UCX  ERROR ibv_create_cq(cqe=256) failed: Connection timed out
[1739830897.096657] [ohm:3865069:0]        ib_iface.c:1059 UCX  ERROR ibv_create_cq(cqe=256) failed: Connection timed out
[1739830897.097493] [ohm:3865086:0]        ib_iface.c:1059 UCX  ERROR ibv_create_cq(cqe=256) failed: Connection timed out


           ************************************************************
           *        Program running with 16 parallel MPI-processes    *
           *              working on a common directory               *
           ************************************************************

------------------------------------------------------------------------------
                         ORCA PROPERTY INTEGRAL CALCULATIONS
------------------------------------------------------------------------------

GBWName                                   ... orca.gbw
Number of atoms                           ...      7
Number of basis functions                 ...    182
Max core memory                           ...   1024 MB

Dipole integrals                          ... YES
Quadrupole integrals                      ...  NO
Linear momentum integrals                 ... YES
Angular momentum integrals                ... YES
Higher moments length integrals           ...  NO
Higher moments velocity integrals         ...  NO
Kinetic energy integrals                  ...  NO
GIAO right hand sides                     ...  NO
GIAO dipole derivative integrals          ...  NO
SOC integrals                             ...  NO
EPR diamagnetic integrals (GIAO)          ...  NO
EPR gauge integrals                       ...  NO
Field gradient integrals                  ...  NO (   0 nuclei)
Spin-dipole/Fermi contact integrals       ...  NO (   0 nuclei)
Contact density integrals                 ...  NO (   0 nuclei)
Nucleus-orbit integrals                   ...  NO (   0 nuclei)
Geometric perturbations                   ...  NO (   7 nuclei)

Choice of electric origin   ... Center of mass
Position of electric origin ... (  0.0510, -0.0063, -0.0000) 
Choice of magnetic origin   ... GIAO
Position of magnetic origin ... (  0.0000,  0.0000,  0.0000) 

Calculating integrals                     ... Electric Dipole (Length)     done (  0.0 sec)
Calculating integrals                     ... Linear Momentum              done (  0.0 sec)
Calculating integrals                     ... Angular Momentum  (ElOri)    done (  0.0 sec)

Property integrals calculated in   0.0 sec

Maximum memory used throughout the entire PROPINT-calculation: 10.4 MB
[1739830897.731214] [ohm:3865142:0]        ib_iface.c:1059 UCX  ERROR ibv_create_cq(cqe=256) failed: Connection timed out
[1739830897.731351] [ohm:3865138:0]        ib_iface.c:1059 UCX  ERROR ibv_create_cq(cqe=256) failed: Connection timed out
[1739830897.750040] [ohm:3865137:0]        ib_iface.c:1059 UCX  ERROR ibv_create_cq(cqe=256) failed: Connection timed out
[1739830897.750100] [ohm:3865139:0]        ib_iface.c:1059 UCX  ERROR ibv_create_cq(cqe=256) failed: Connection timed out
[1739830897.750972] [ohm:3865141:0]        ib_iface.c:1059 UCX  ERROR ibv_create_cq(cqe=256) failed: Connection timed out
[1739830897.751162] [ohm:3865140:0]        ib_iface.c:1059 UCX  ERROR ibv_create_cq(cqe=256) failed: Connection timed out
[1739830897.753608] [ohm:3865146:0]        ib_iface.c:1059 UCX  ERROR ibv_create_cq(cqe=256) failed: Connection timed out
[1739830897.754341] [ohm:3865143:0]        ib_iface.c:1059 UCX  ERROR ibv_create_cq(cqe=256) failed: Connection timed out
[1739830897.767564] [ohm:3865157:0]        ib_iface.c:1059 UCX  ERROR ibv_create_cq(cqe=256) failed: Connection timed out
[1739830897.767851] [ohm:3865144:0]        ib_iface.c:1059 UCX  ERROR ibv_create_cq(cqe=256) failed: Connection timed out
[1739830897.768036] [ohm:3865153:0]        ib_iface.c:1059 UCX  ERROR ibv_create_cq(cqe=256) failed: Connection timed out
[1739830897.769916] [ohm:3865148:0]        ib_iface.c:1059 UCX  ERROR ibv_create_cq(cqe=256) failed: Connection timed out
[1739830897.771104] [ohm:3865149:0]        ib_iface.c:1059 UCX  ERROR ibv_create_cq(cqe=256) failed: Connection timed out
[1739830897.782356] [ohm:3865161:0]        ib_iface.c:1059 UCX  ERROR ibv_create_cq(cqe=256) failed: Connection timed out
[1739830897.782360] [ohm:3865166:0]        ib_iface.c:1059 UCX  ERROR ibv_create_cq(cqe=256) failed: Connection timed out
[1739830897.782627] [ohm:3865164:0]        ib_iface.c:1059 UCX  ERROR ibv_create_cq(cqe=256) failed: Connection timed out


           ************************************************************
           *        Program running with 16 parallel MPI-processes    *
           *              working on a common directory               *
           ************************************************************
------------------------------------------------------------------------------
                        ORCA TD-DFT/TDA CALCULATION
------------------------------------------------------------------------------

Input orbitals are from        ... orca.gbw
CI-vector output               ... orca.cis
Solver                         ... FN-2001
Tamm-Dancoff approximation     ... operative
CIS-Integral strategy          ... AO-integrals
Integral handling              ... AO integral Direct
Max. core memory used          ... 512 MB
Reference state                ... UHF
Follow IRoot                   ... off
Number of operators            ... 2
Orbital ranges used for CIS calculation:
 Operator 0:  Orbitals   3... 12  to  11...181

-------------------
XC-INTEGRATION GRID
-------------------

General Integration Accuracy     IntAcc      ... 3.467
Radial Grid Type                 RadialGrid  ... OptM3 with GC (2021)
Angular Grid (max. ang.)         AngularGrid ... 1 (Lebedev-50)
Angular grid pruning method      GridPruning ... 4 (adaptive)
Weight generation scheme         WeightScheme... mBecke (2022)
Basis function cutoff            BFCut       ... 1.0000e-11
Integration weight cutoff        WCut        ... 1.0000e-14
Partially contracted basis set               ... off
Rotationally invariant grid construction     ... off
Angular grids for H and He will be reduced by one unit
Diffuse basis detected: some atoms will have their outermost
                        angular grid increased by 1.

Total number of grid points                  ...     4732
Total number of batches                      ...       76
Average number of points per batch           ...       62
Average number of grid points per atom       ...      676

---------------------
COSX-INTEGRATION GRID
---------------------

General Integration Accuracy     IntAcc      ... 3.067
Radial Grid Type                 RadialGrid  ... OptM3 with GC (2021)
Angular Grid (max. ang.)         AngularGrid ... 1 (Lebedev-50)
Angular grid pruning method      GridPruning ... 4 (adaptive)
Weight generation scheme         WeightScheme... mBecke (2022)
Basis function cutoff            BFCut       ... 1.0000e-11
Integration weight cutoff        WCut        ... 1.0000e-14
Partially contracted basis set               ... on
Rotationally invariant grid construction     ... off
Angular grids for H and He will be reduced by one unit
Diffuse basis detected: some atoms will have their outermost
                        angular grid increased by 1.

Total number of grid points                  ...     2153
Total number of batches                      ...       22
Average number of points per batch           ...       97
Average number of grid points per atom       ...      308

---------------
TD-DFT XC SETUP
---------------

DFT calculation                         ... on
Name of the grid file                   ... orca.grid_cis.tmp
RI-approximation                        ... on
Aux-basis dimension                     ... 0
Functional (TD-DFT)
  Functional kind                       .... Exchange-Correlation
  Functional name                       .... wB97M-V exchange-correlation functional
  Functional family                     .... Hybrid MGGA
  Functional refs                              
    [ 0] N. Mardirossian and M. Head-Gordon.,  J. Chem. Phys. 144, 214110 (2016), doi: 10.1063/1.4952647
  Fraction of HF Exchange (short range) .... 0.1500
  Fraction of HF Exchange (long range)  .... 1.0000
  Range separation parameter mu         .... 0.3000
  Functional external parameters        .... 17
    Parameter  0 _cx00      =  8.500000e-01 : u^00 coefficient for exchange
    Parameter  1 _cx01      =  1.007000e+00 : u^01 coefficient for exchange
    Parameter  2 _cx10      =  2.590000e-01 : u^10 coefficient for exchange
    Parameter  3 _css00     =  4.430000e-01 : u^00 coefficient for same-spin correlation
    Parameter  4 _css04     = -1.437000e+00 : u^04 coefficient for same-spin correlation
    Parameter  5 _css10     = -4.535000e+00 : u^10 coefficient for same-spin correlation
    Parameter  6 _css20     = -3.390000e+00 : u^20 coefficient for same-spin correlation
    Parameter  7 _css43     =  4.278000e+00 : u^43 coefficient for same-spin correlation
    Parameter  8 _cos00     =  1.000000e+00 : u^00 coefficient for opposite-spin correlation
    Parameter  9 _cos10     =  1.358000e+00 : u^10 coefficient for opposite-spin correlation
    Parameter 10 _cos20     =  2.924000e+00 : u^20 coefficient for opposite-spin correlation
    Parameter 11 _cos21     = -8.812000e+00 : u^21 coefficient for opposite-spin correlation
    Parameter 12 _cos60     = -1.390000e+00 : u^60 coefficient for opposite-spin correlation
    Parameter 13 _cos61     =  9.142000e+00 : u^61 coefficient for opposite-spin correlation
    Parameter 14 _alpha     =  1.000000e+00 : fraction of HF exchange
    Parameter 15 _beta      = -8.500000e-01 : fraction of short-range exchange
    Parameter 16 _omega     =  3.000000e-01 : range-separation constant
Hybrid DFT                              ... on
   Exchange mixing (TD-DFT)             ...  0.150
   GGA exch. scaling (TD-DFT)           ...  0.000
   GGA corr. scaling (TD-DFT)           ...  1.000
Range-Separated Exchange                ... on
   Range Range separation parameter mu  .... 0.300
   Max. amount of RS exchange (TD-DFT)  ...  0.850

Building densities             ... done
Calculating rho(r) on the grid ... done
Building xc-kernel on the grid ... done
                    *** TD-DFT CALCULATION INITIALIZED ***

------------------------
DAVIDSON-DIAGONALIZATION
------------------------

Dimension of the eigenvalue problem            ...   1710
Number of roots to be determined               ...      2
Maximum size of the expansion space            ...     20
Maximum number of iterations                   ...    100
Convergence tolerance for the residual         ...    2.500e-07
Convergence tolerance for the energies         ...    2.500e-07
Orthogonality tolerance                        ...    1.000e-14
Level Shift                                    ...    0.000e+00
Constructing the preconditioner                ... o.k.
Building the initial guess                     ... o.k.
Number of trial vectors determined             ...     20


                       ****Iteration    0****
   Time for iteration     :  TOTAL=0.2 TRAFO=0.0 COSX=0.2
   Size of expansion space: 6
   Lowest Energy          :     0.011876843158
   Maximum Energy change  :     0.034599553309 (vector 1)
   Maximum residual norm  :     0.001250182459

                       ****Iteration    1****
   Time for iteration     :  TOTAL=0.1 TRAFO=0.0 RIJ=0.0 COSX=0.1
   Size of expansion space: 8
   Lowest Energy          :     0.005547517949
   Maximum Energy change  :     0.006329325208 (vector 0)
   Maximum residual norm  :     0.000127339659

                       ****Iteration    2****
   Time for iteration     :  TOTAL=0.1 TRAFO=0.0 COSX=0.1
   Size of expansion space: 10
   Lowest Energy          :     0.004996677214
   Maximum Energy change  :     0.000618805054 (vector 1)
   Maximum residual norm  :     0.000072767872

                       ****Iteration    3****
   Time for iteration     :  TOTAL=0.1 TRAFO=0.0 COSX=0.1
   Size of expansion space: 12
   Lowest Energy          :    -0.212750910620
   Maximum Energy change  :     0.217747587834 (vector 0)
   Maximum residual norm  :     0.020846421461

                       ****Iteration    4****
   Time for iteration     :  TOTAL=0.1 TRAFO=0.0 COSX=0.1
   Size of expansion space: 14
   Lowest Energy          :    -0.243797882821
   Maximum Energy change  :     0.031046972201 (vector 0)
   Maximum residual norm  :     0.000271062901

                       ****Iteration    5****
   Time for iteration     :  TOTAL=0.1 TRAFO=0.0 COSX=0.1
   Size of expansion space: 16
   Lowest Energy          :    -0.244176359466
   Maximum Energy change  :     0.000378476644 (vector 0)
   Maximum residual norm  :     0.000021369808

                       ****Iteration    6****
   Time for iteration     :  TOTAL=0.1 TRAFO=0.0 COSX=0.1
   Size of expansion space: 18
   Lowest Energy          :    -0.244183382882
   Maximum Energy change  :     0.000086416567 (vector 1)
   Maximum residual norm  :     0.000010755277

                       ****Iteration    7****
   Time for iteration     :  TOTAL=0.1 TRAFO=0.0 RIJ=0.0 COSX=0.1
   Size of expansion space: 20
   Lowest Energy          :    -0.244183492050
   Maximum Energy change  :     0.000011401367 (vector 1)
   Maximum residual norm  :     0.000000710011
   Rebuilding the expansion space

                       ****Iteration    8****
   Time for iteration     :  TOTAL=0.2 TRAFO=0.0 RIJ=0.0 COSX=0.1
   Size of expansion space: 4
   Lowest Energy          :    -0.244180312894
   Maximum Energy change  :     0.000003179157 (vector 0)
   Maximum residual norm  :     0.000000116638

      *** CONVERGENCE OF RESIDUAL NORM REACHED ***

Storing the converged CI vectors               ... orca.cis3

                 *** DAVIDSON DONE ***

Total time for solving the CIS problem:     1.353sec

---------------------
SF-TDA EXCITED STATES
---------------------

the weight of the individual excitations are printed if larger than 1.0e-02

UHF/UKS reference: multiplicity estimated based on rounded <S**2> value, RELEVANCE IS LIMITED!

(SPIN-FLIP GROUND STATE)
STATE  1:  E=  -0.244180 au     -6.644 eV   -53591.4 cm**-1 <S**2> =   0.023901 Mult 1
    12a ->  11b  :     0.991149 (c=  0.99556448)

STATE  2:  E=   0.004745 au      0.129 eV     1041.4 cm**-1 <S**2> =   1.008549 Mult 3
    12a ->  12b  :     0.679919 (c=  0.82457200)
    12a ->  13b  :     0.235557 (c= -0.48534165)
    12a ->  15b  :     0.010832 (c=  0.10407479)
    12a ->  17b  :     0.046240 (c= -0.21503392)


-----------------------------
TD-DFT/TDA-EXCITATION SPECTRA
-----------------------------

Center of mass = (  0.0510, -0.0063, -0.0000)
Generating CIS-Spin-flip transition densities           ... done

UHF/UKS reference: multiplicity estimated based on rounded <S**2> value, use it judiciously!

----------------------------------------------------------------------------------------------------
          SPIN FLIP ABSORPTION SPECTRUM VIA TRANSITION ELECTRIC DIPOLE MOMENTS    
----------------------------------------------------------------------------------------------------
     Transition      Energy     Energy  Wavelength fosc(D2)      D2        DX        DY        DZ   
[...]
      dz2     :    -0.029418  d :     0.019069
      dxz     :     0.003726
      dyz     :     0.032345
      dx2y2   :     0.011054
      dxy     :     0.001363
      f0      :     0.001462  f :     0.008027
      f+1     :     0.000086
      f-1     :     0.000363
      f+2     :     0.002569
      f-2     :     0.002004
      f+3     :     0.001684
      f-3     :    -0.000141
  3 H s       :     0.015607  s :     0.015607
      pz      :    -0.046456  p :    -0.051049
      px      :     0.000025
      py      :    -0.004618
      dz2     :    -0.000845  d :    -0.001205
      dxz     :    -0.000013
      dyz     :    -0.000234
      dx2y2   :     0.000041
      dxy     :    -0.000154
  4 H s       :     0.015766  s :     0.015766
      pz      :    -0.046074  p :    -0.050583
      px      :     0.000046
      py      :    -0.004555
      dz2     :    -0.000847  d :    -0.001201
      dxz     :    -0.000009
      dyz     :    -0.000233
      dx2y2   :     0.000041
      dxy     :    -0.000153
  5 H s       :     0.003595  s :     0.003595
      pz      :    -0.054610  p :    -0.057125
      px      :    -0.004201
      py      :     0.001686
      dz2     :    -0.000873  d :    -0.000188
      dxz     :    -0.000084
      dyz     :     0.000694
      dx2y2   :     0.000034
      dxy     :     0.000041
  6 H s       :     0.003424  s :     0.003424
      pz      :    -0.055208  p :    -0.057743
      px      :    -0.004211
      py      :     0.001676
      dz2     :    -0.000871  d :    -0.000185
      dxz     :    -0.000085
      dyz     :     0.000698
      dx2y2   :     0.000034
      dxy     :     0.000039


                      *****************************
                      * MAYER POPULATION ANALYSIS *
                      *****************************

  NA   - Mulliken gross atomic population
  ZA   - Total nuclear charge
  QA   - Mulliken gross atomic charge
  VA   - Mayer's total valence
  BVA  - Mayer's bonded valence
  FA   - Mayer's free valence

  ATOM       NA         ZA         QA         VA         BVA        FA
  0 O      7.2402     8.0000     0.7598     0.8350     0.2123     0.6227
  1 C      7.5647     6.0000    -1.5647     4.7772     2.4737     2.3035
  2 C      8.1922     6.0000    -2.1922     4.4152     0.2927     4.1225
  3 H      0.3969     1.0000     0.6031     0.1732     0.0426     0.1306
  4 H      0.4017     1.0000     0.5983     0.1743     0.0516     0.1228
  5 H      0.1146     1.0000     0.8854    -0.6215    -1.1481     0.5266
  6 H      0.0897     1.0000     0.9103    -0.6676    -1.1756     0.5080

  Mayer bond orders larger than 0.100000
B(  0-O ,  1-C ) :  -0.6581 B(  0-O ,  2-C ) :  -1.3161 B(  0-O ,  3-H ) :   0.3952 
B(  0-O ,  4-H ) :   0.3919 B(  0-O ,  5-H ) :   0.6978 B(  0-O ,  6-H ) :   0.7017 
B(  1-C ,  2-C ) :   8.1921 B(  1-C ,  5-H ) :  -2.5917 B(  1-C ,  6-H ) :  -2.5517 
B(  2-C ,  3-H ) :  -1.9344 B(  2-C ,  4-H ) :  -1.9578 B(  2-C ,  5-H ) :  -1.3035 
B(  2-C ,  6-H ) :  -1.3875 B(  3-H ,  4-H ) :   0.2842 B(  3-H ,  5-H ) :   0.5708 
B(  3-H ,  6-H ) :   0.7073 B(  4-H ,  5-H ) :   0.6968 B(  4-H ,  6-H ) :   0.5729 
B(  5-H ,  6-H ) :   0.7817 


-------
TIMINGS
-------

Total TD-DFT gradient time  ....        6.504 sec

Fock matrix formation       ....       1.192 sec  ( 18.3%)
  Coulomb formation         ....       0.923 sec  ( 77.4% of F)
  XC integration            ....       0.269 sec  ( 22.6% of F)
Z-vector equation           ....       2.474 sec  ( 38.0%)
Densities                   ....       0.000 sec  (  0.0%)
One electron gradient       ....       0.009 sec  (  0.1%)
RI-J Coulomb gradient       ....       0.096 sec  (  1.5%)
COSX gradient               ....       0.485 sec  (  7.5%)
XC gradient                 ....       2.010 sec  ( 30.9%)

Maximum memory used throughout the entire CIS-calculation: 35.8 MB
=> NOW LEAVING ORCA_CIS


-------------------------------------------------------------------------------
                          DFT DISPERSION CORRECTION                            
                                                                               
                              DFTD3 V3.1  Rev 1                                
                          USING Becke-Johnson damping                          
-------------------------------------------------------------------------------
The WB97M functional is recognized
Active option DFTDOPT                   ...         4   

molecular C6(AA) [au] = 350.809520 


            DFT-D V3
 parameters
 s6 scaling factor         :     1.0000 
 a1 scaling factor         :     0.5660 
 s8 scaling factor         :     0.3908 
 a2 scaling factor         :     3.1280 
 ad hoc parameters k1-k3   :    16.0000     1.3333    -4.0000 

 Edisp/kcal,au: -3.283781646593  -0.005233038595 
 E6   /kcal   :  -2.648549290 
 E8   /kcal   :  -0.635232357 
 % E8         :  19.344537044 

-------------------------   ----------------
Dispersion correction           -0.005233039
-------------------------   ----------------


-------------------------   --------------------
FINAL SINGLE POINT ENERGY      -153.625836924853
-------------------------   --------------------

[1739830906.413600] [ohm:3865262:0]        ib_iface.c:1059 UCX  ERROR ibv_create_cq(cqe=256) failed: Connection timed out
[1739830906.423166] [ohm:3865261:0]        ib_iface.c:1059 UCX  ERROR ibv_create_cq(cqe=256) failed: Connection timed out
[1739830906.426288] [ohm:3865258:0]        ib_iface.c:1059 UCX  ERROR ibv_create_cq(cqe=256) failed: Connection timed out
[1739830906.428014] [ohm:3865257:0]        ib_iface.c:1059 UCX  ERROR ibv_create_cq(cqe=256) failed: Connection timed out
[1739830906.429058] [ohm:3865267:0]        ib_iface.c:1059 UCX  ERROR ibv_create_cq(cqe=256) failed: Connection timed out
[1739830906.430321] [ohm:3865259:0]        ib_iface.c:1059 UCX  ERROR ibv_create_cq(cqe=256) failed: Connection timed out
[1739830906.431781] [ohm:3865270:0]        ib_iface.c:1059 UCX  ERROR ibv_create_cq(cqe=256) failed: Connection timed out
[1739830906.435185] [ohm:3865264:0]        ib_iface.c:1059 UCX  ERROR ibv_create_cq(cqe=256) failed: Connection timed out
[1739830906.437145] [ohm:3865260:0]        ib_iface.c:1059 UCX  ERROR ibv_create_cq(cqe=256) failed: Connection timed out
[1739830906.437760] [ohm:3865263:0]        ib_iface.c:1059 UCX  ERROR ibv_create_cq(cqe=256) failed: Connection timed out
[1739830906.439640] [ohm:3865265:0]        ib_iface.c:1059 UCX  ERROR ibv_create_cq(cqe=256) failed: Connection timed out
[1739830906.447121] [ohm:3865280:0]        ib_iface.c:1059 UCX  ERROR ibv_create_cq(cqe=256) failed: Connection timed out
[1739830906.448298] [ohm:3865274:0]        ib_iface.c:1059 UCX  ERROR ibv_create_cq(cqe=256) failed: Connection timed out
[1739830906.448301] [ohm:3865284:0]        ib_iface.c:1059 UCX  ERROR ibv_create_cq(cqe=256) failed: Connection timed out
[1739830906.449887] [ohm:3865269:0]        ib_iface.c:1059 UCX  ERROR ibv_create_cq(cqe=256) failed: Connection timed out
[1739830906.452235] [ohm:3865286:0]        ib_iface.c:1059 UCX  ERROR ibv_create_cq(cqe=256) failed: Connection timed out


           ************************************************************
           *        Program running with 16 parallel MPI-processes    *
           *              working on a common directory               *
           ************************************************************

------------------------------------------------------------------------------
                              ORCA PROPERTY CALCULATIONS
------------------------------------------------------------------------------

GBWName                                 ... orca.gbw
Number of atoms                         ...      7
Number of basis functions               ...    182
Max core memory                         ...   1024 MB

Electric properties:
Dipole moment                           ... YES
Quadrupole moment                       ...  NO
Static polarizability (Dipole/Dipole)   ...  NO
Static polarizability (Dipole/Quad.)    ...  NO
Static polarizability (Quad./Quad.)     ...  NO
Static polarizability (Velocity)        ...  NO

Atomic electric properties:
Dipole moment                           ...  NO
Quadrupole moment                       ...  NO
Static polarizability                   ...  NO

Choice of electric origin               ... Center of mass
Position of electric origin             ...     0.050994    -0.006313    -0.000039

General magnetic properties:
Magnetizability                         ...  NO

EPR properties:
g-Tensor (aka g-matrix)                 ...  NO
Zero-Field splitting spin-orbit         ...  NO
Zero-field splitting spin-spin          ...  NO
Hyperfine couplings                     ...  NO (   0 nuclei)
Quadrupole couplings                    ...  NO (   0 nuclei)
Contact density                         ...  NO (   0 nuclei)

NMR properties:
Chemical shifts                         ...  NO (   0 nuclei)
Spin-rotation constants                 ...  NO (   0 nuclei)
Spin-spin couplings                     ...  NO (   0 nuclei,    0 pairs)

Choice of magnetic origin               ... GIAO
Position of magnetic origin             ...     0.000000     0.000000     0.000000

Properties with geometric perturbations:
SCF Hessian                             ...  NO
IR spectrum                             ...  NO
VCD spectrum                            ...  NO
X-ray spectroscopy properties:
SCF XES/XAS/RIXS spectra                ...  NO


-------------
DIPOLE MOMENT
-------------

Method             : SCF
Type of density    : Electron Density
Multiplicity       :   3
Irrep              :   0
Energy             :  -153.6253486690189902 Eh
Relativity type    : 
Basis              : AO
                                X                 Y                 Z
Electronic contribution:      0.753701736       2.442044967      -0.000085803
Nuclear contribution   :     -0.074738892      -2.413130730       0.000137559
                        -----------------------------------------
Total Dipole Moment    :      0.678962844       0.028914237       0.000051756
                        -----------------------------------------
Magnitude (a.u.)       :      0.679578237
Magnitude (Debye)      :      1.727350603



--------------------
Rotational spectrum 
--------------------
 
Rotational constants in cm-1:             0.851287             0.744133             0.472359 
Rotational constants in MHz :         25520.951802         22308.535246         14160.966982 

Dipole components along the rotational axes: 
x,y,z [a.u.] :    -0.641419    -0.224518    -0.000023 
x,y,z [Debye]:    -1.630357    -0.570680    -0.000058 

 

-------------
DIPOLE MOMENT
-------------

Method             : TDA/CIS
Type of density    : Electron Density
Level              : Relaxed density
State              :   2
Multiplicity       :   3
Irrep              :   0
Energy             :     0.0000000000000000 Eh
Relativity type    : 
Basis              : AO
                                X                 Y                 Z
Electronic contribution:      0.433316212       2.609128112      -0.013969927
Nuclear contribution   :     -0.074738892      -2.413130730       0.000137559
                        -----------------------------------------
Total Dipole Moment    :      0.358577320       0.195997382      -0.013832368
                        -----------------------------------------
Magnitude (a.u.)       :      0.408881404
Magnitude (Debye)      :      1.039293935



--------------------
Rotational spectrum 
--------------------
 
Rotational constants in cm-1:             0.851287             0.744133             0.472359 
Rotational constants in MHz :         25520.951802         22308.535246         14160.966982 

Dipole components along the rotational axes: 
x,y,z [a.u.] :    -0.405660     0.049311    -0.013866 
x,y,z [Debye]:    -1.031106     0.125339    -0.035244 

 

Dipole moment calculation done in   0.0 sec 

Maximum memory used throughout the entire PROP-calculation: 7.6 MB
[1739830907.087071] [ohm:3865356:0]        ib_iface.c:1059 UCX  ERROR ibv_create_cq(cqe=256) failed: Connection timed out
[1739830907.087117] [ohm:3865358:0]        ib_iface.c:1059 UCX  ERROR ibv_create_cq(cqe=256) failed: Connection timed out
[1739830907.087070] [ohm:3865360:0]        ib_iface.c:1059 UCX  ERROR ibv_create_cq(cqe=256) failed: Connection timed out
[1739830907.091088] [ohm:3865357:0]        ib_iface.c:1059 UCX  ERROR ibv_create_cq(cqe=256) failed: Connection timed out
[1739830907.091089] [ohm:3865359:0]        ib_iface.c:1059 UCX  ERROR ibv_create_cq(cqe=256) failed: Connection timed out
[1739830907.093927] [ohm:3865355:0]        ib_iface.c:1059 UCX  ERROR ibv_create_cq(cqe=256) failed: Connection timed out
[1739830907.107341] [ohm:3865362:0]        ib_iface.c:1059 UCX  ERROR ibv_create_cq(cqe=256) failed: Connection timed out
[1739830907.107803] [ohm:3865361:0]        ib_iface.c:1059 UCX  ERROR ibv_create_cq(cqe=256) failed: Connection timed out
[1739830907.111900] [ohm:3865365:0]        ib_iface.c:1059 UCX  ERROR ibv_create_cq(cqe=256) failed: Connection timed out
[1739830907.126451] [ohm:3865382:0]        ib_iface.c:1059 UCX  ERROR ibv_create_cq(cqe=256) failed: Connection timed out
[1739830907.129885] [ohm:3865377:0]        ib_iface.c:1059 UCX  ERROR ibv_create_cq(cqe=256) failed: Connection timed out
[1739830907.132082] [ohm:3865368:0]        ib_iface.c:1059 UCX  ERROR ibv_create_cq(cqe=256) failed: Connection timed out
[1739830907.132746] [ohm:3865363:0]        ib_iface.c:1059 UCX  ERROR ibv_create_cq(cqe=256) failed: Connection timed out
[1739830907.132749] [ohm:3865367:0]        ib_iface.c:1059 UCX  ERROR ibv_create_cq(cqe=256) failed: Connection timed out
[1739830907.132751] [ohm:3865370:0]        ib_iface.c:1059 UCX  ERROR ibv_create_cq(cqe=256) failed: Connection timed out
[1739830907.133057] [ohm:3865384:0]        ib_iface.c:1059 UCX  ERROR ibv_create_cq(cqe=256) failed: Connection timed out

--------------------------------
SUGGESTED CITATIONS FOR THIS RUN
--------------------------------

Below you find a list of papers that are relevant to this ORCA run
We neither can nor want to force you to cite these papers, but we appreciate if you do
You receive ORCA, which is the product of decades of hard work by many enthusiastic individuals, for free
The only thing we kindly ask in return is that you cite our papers,
We deeply appreciate it, if you show your appreciation for ORCA by not just citing the generic ORCA reference.

Please note that relegating all ORCA citations to the supporting information does *not* help us.
SI sections are not indexed - citations you put there will not count into any citation statistics
But we need these citations in order to attract the funding resources that allow us to do what we are doing

Therefore, if you are a happy ORCA user, please consider citing a few of the papers listed below in the main body of your paper

In addition to the list printed below, the program has created the file orca.bibtex that contains the list in bibtex format
You can import this file easily into all common literature databanks and citation aid programs


List of essential papers. We consider these as the minimum necessary citations

  1. Neese,F.
     Software update: the ORCA program system, version 5.0
     WIRES Comput. Molec. Sci., 2022 12(1)e1606
     doi.org/10.1002/wcms.1606

List of papers to cite with high priority. The work reported in these papers was absolutely
necessary for this run to complete.
Our perspective: the developers of density functionals and basis sets usually get cited in chemistry papers
Good! But without the algorithms to do something with them, the functionals or basis sets would not do anything.
Hence, in our opinion, the algorithm design and method developments papers are equally worthy of getting cited

  1. Neese,F.; Olbrich,G.
     Efficient use of the resolution of the identity approximation in time-dependent density functional calculations with hybrid density functionals
     Chem. Phys. Lett., 2002 362 170-178
     doi.org/10.1016/s0009-2614(02)01053-9
  2. Neese,F.
     An improvement of the resolution of the identity approximation for the formation of the Coulomb matrix
     J. Comp. Chem., 2003 24(14)1740-1747
     doi.org/10.1002/jcc.10318
  3. Neese,F.; Wennmohs,F.; Hansen,A.; Becker,U.
     Efficient, approximate and parallel Hartree-Fock and hybrid DFT calculations. A 'chain-of-spheres' algorithm for the Hartree-Fock exchange
     Chem. Phys., 2009 356(1-3)98-109
     doi.org/10.1016/j.chemphys.2008.10.036
  4. Petrenko,T.; Kossmann,S.; Neese,F.
     Efficient time-dependent density functional theory approximations for hybrid density functionals: Analytical gradients and parallelization
     J. Chem. Phys., 2011 134 054116
     doi.org/10.1063/1.3533441
  5. Helmich-Paris,B.; de Souza,B.; Neese,F.; Izsák,R.
     An improved chain of spheres for exchange algorithm
     J. Chem. Phys., 2021 155 104109
     doi.org/doi: 10.1063/5.0058766.
  6. Neese,F.
     The SHARK Integral Generation and Digestion System
     J. Comp. Chem., 2022  1-16
     doi.org/10.1002/jcc.26942
  7. Lehtola,S.; Steigemann,C.; Oliveira,M.; Marques,M.
     Recent developments in Libxc - A comprehensive library of functionals for density functional theory
     Software X, 2018 7 
     doi.org/10.1016/j.softx.2017.11.002
  8. Grimme,S.; Antony,J.; Ehrlich,S.; Krieg,H.
     A consistent and accurate ab initio parametrization of density functional dispersion correction (DFT-D) for the 94 elements H-Pu
     J. Chem. Phys., 2010 132 154104-XXXX
     doi.org/10.1063/1.3382344
  9. Grimme,S.; Ehrlich,S.; Goerigk,L.
     Effect of the damping function in dispersion corrected density functional theory
     J. Comput. Chem., 2011 32(7)1456-1465
     doi.org/10.1002/jcc.21759

List of suggested additional citations. These are papers that are important in the 'surrounding' of 
of this run, or papers that preceded the highly important papers. If you like your results we are grateful for a citation.

  1. Izsak,R.; Neese,F.
     An overlap fitted chain of spheres exchange method
     J. Chem. Phys., 2011 135 144105
     doi.org/10.1063/1.3646921
  2. Izsak,R.; Hansen,A.; Neese,F.
     The resolution of identity and chain of spheres approximations for the LPNO-CCSD singles Fock term
     Molec. Phys., 2012 110 2413-2417
     doi.org/10.1080/00268976.2012.687466
  3. Neese,F.
     The ORCA program system
     WIRES Comput. Molec. Sci., 2012 2(1)73-78
     doi.org/10.1002/wcms.81
  4. Izsak,R.; Neese,F.; Klopper,W.
     Robust fitting techniques in the chain of spheres approximation to the Fock exchange: The role of the complementary space
     J. Chem. Phys., 2013 139 
     doi.org/10.1063/1.4819264
  5. Neese,F.
     Software update: the ORCA program system, version 4.0
     WIRES Comput. Molec. Sci., 2018 8(1)1-6
     doi.org/10.1002/wcms.1327
  6. Neese,F.; Wennmohs,F.; Becker,U.; Riplinger,C.
     The ORCA quantum chemistry program package
     J. Chem. Phys., 2020 152 Art. No. L224108
     doi.org/10.1063/5.0004608

List of optional additional citations

  1. Neese,F.
     Approximate second-order SCF convergence for spin unrestricted wavefunctions
     Chem. Phys. Lett., 2000 325(1-3)93-98
     doi.org/10.1016/s0009-2614(00)00662-x

Timings for individual modules:

Sum of individual times          ...       20.041 sec (=   0.334 min)
Startup calculation              ...        0.989 sec (=   0.016 min)   4.9 %
SCF iterations                   ...        9.028 sec (=   0.150 min)  45.0 %
Property integrals               ...        0.714 sec (=   0.012 min)   3.6 %
Property calculations            ...        0.687 sec (=   0.011 min)   3.4 %
CIS module                       ...        8.623 sec (=   0.144 min)  43.0 %
                             ****ORCA TERMINATED NORMALLY****
TOTAL RUN TIME: 0 days 0 hours 0 minutes 20 seconds 780 msec
