
                                 *****************
                                 * O   R   C   A *
                                 *****************

                                            #,                                       
                                            ###                                      
                                            ####                                     
                                            #####                                    
                                            ######                                   
                                           ########,                                 
                                     ,,################,,,,,                         
                               ,,#################################,,                 
                          ,,##########################################,,             
                       ,#########################################, ''#####,          
                    ,#############################################,,   '####,        
                  ,##################################################,,,,####,       
                ,###########''''           ''''###############################       
              ,#####''   ,,,,##########,,,,          '''####'''          '####       
            ,##' ,,,,###########################,,,                        '##       
           ' ,,###''''                  '''############,,,                           
         ,,##''                                '''############,,,,        ,,,,,,###''
      ,#''                                            '''#######################'''  
     '                                                          ''''####''''         
             ,#######,   #######,   ,#######,      ##                                
            ,#'     '#,  ##    ##  ,#'     '#,    #''#        ,####,   ,####,        
            ##       ##  ##   ,#'  ##            #'  '#       #'       #'  '#        
            ##       ##  #######   ##           ,######,      #####,   #    #        
            '#,     ,#'  ##    ##  '#,     ,#' ,#      #,     #,   #   #,  ,#        
             '#######'   ##     ##  '#######'  #'      '#     '####' # '####'        



                #########################################################
                #                        -***-                          #
                #          Department of theory and spectroscopy        #
                #                                                       #
                #                      Frank Neese                      #
                #                                                       #
                #     Directorship, Architecture, Infrastructure        #
                #                    SHARK, DRIVERS                     #
                #        Core code/Algorithms in most modules           #
                #                                                       #
                #        Max Planck Institute fuer Kohlenforschung      #
                #                Kaiser Wilhelm Platz 1                 #
                #                 D-45470 Muelheim/Ruhr                 #
                #                      Germany                          #
                #                                                       #
                #                  All rights reserved                  #
                #                        -***-                          #
                #########################################################


                         Program Version 6.0.0  -   RELEASE  -


 With contributions from (in alphabetic order):
   Daniel Aravena         : Magnetic Suceptibility
   Michael Atanasov       : Ab Initio Ligand Field Theory (pilot matlab implementation)
   Alexander A. Auer      : GIAO ZORA, VPT2 properties, NMR spectrum
   Ute Becker             : All parallelization in ORCA, NUMFREQ, NUMCALC
   Giovanni Bistoni       : ED, misc. LED, open-shell LED, HFLD
   Martin Brehm           : Molecular dynamics
   Dmytro Bykov           : pre 5.0 version of the SCF Hessian
   Marcos Casanova-Páez   : Triplet and SCS-CIS(D). UHF-(DLPNO)-IP/EA/STEOM-CCSD. UHF-CVS-IP/STEOM-CCSD
   Vijay G. Chilkuri      : MRCI spin determinant printing, contributions to CSF-ICE
   Pauline Colinet        : FMM embedding
   Dipayan Datta          : RHF DLPNO-CCSD density
   Achintya Kumar Dutta   : EOM-CC, STEOM-CC
   Nicolas Foglia         : Exact transition moments, OPA infrastructure, MCD improvements
   Dmitry Ganyushin       : Spin-Orbit,Spin-Spin,Magnetic field MRCI
   Miquel Garcia          : C-PCM and meta-GGA Hessian, CCSD/C-PCM, Gaussian charge scheme
   Tiago L. C. Gouveia    : GS-ROHF, GS-ROCIS
   Yang Guo               : DLPNO-NEVPT2, F12-NEVPT2, CIM, IAO-localization
   Andreas Hansen         : Spin unrestricted coupled pair/coupled cluster methods
   Ingolf Harden          : AUTO-CI MPn and infrastructure 
   Benjamin Helmich-Paris : MC-RPA, TRAH-(SCF,CASSCF), AVAS, COSX integrals, SCF dyn. polar.
   Lee Huntington         : MR-EOM, pCC
   Robert Izsak           : Overlap fitted RIJCOSX, COSX-SCS-MP3, EOM
   Riya Kayal             : Wick's Theorem for AUTO-CI, AUTO-CI UHF-CCSDT
   Emily Kempfer          : AUTO-CI, RHF CISDT and CCSDT
   Christian Kollmar      : KDIIS, OOCD, Brueckner-CCSD(T), CCSD density, CASPT2, CASPT2-K, improved NEVPT2
   Axel Koslowski         : Symmetry handling
   Simone Kossmann        : Meta GGA functionals, TD-DFT gradient, OOMP2, (MP2 Hessian; deprecated post 5.0)
   Lucas Lang             : DCDCAS
   Marvin Lechner         : AUTO-CI (C++ implementation), FIC-MRCC
   Spencer Leger          : CASSCF response
   Dagmar Lenk            : GEPOL surface, SMD, ORCA-2-JSON
   Dimitrios Liakos       : Extrapolation schemes; Compound Job, initial MDCI parallelization
   Dimitrios Manganas     : Further ROCIS development; embedding schemes. LFT, Crystal Embedding
   Dimitrios Pantazis     : SARC Basis sets
   Anastasios Papadopoulos: AUTO-CI, single reference methods and gradients
   Taras Petrenko         : pre 6.0 DFT Hessian and TD-DFT gradient, (ASA, deprecated), ECA, 1-Electron XAS/XES, NRVS
   Peter Pinski           : DLPNO-MP2, DLPNO-MP2 Gradient
   Christoph Reimann      : Effective Core Potentials
   Marius Retegan         : Local ZFS, SOC
   Christoph Riplinger    : Optimizer, TS searches, QM/MM, DLPNO-CCSD(T), (RO)-DLPNO pert. Triples
   Michael Roemelt        : Original ROCIS implementation
   Masaaki Saitow         : Open-shell DLPNO-CCSD energy and density
   Barbara Sandhoefer     : DKH picture change effects
   Kantharuban Sivalingam : CASSCF convergence/infrastructure, NEVPT2 and variants, FIC-MRCI
   Bernardo de Souza      : ESD, SOC TD-DFT
   Georgi Stoychev        : AutoAux, RI-MP2 NMR, DLPNO-MP2 response, X2C
   Van Anh Tran           : RI-MP2 g-tensors
   Willem Van den Heuvel  : Paramagnetic NMR
   Zikuan Wang            : NOTCH, Electric field optimization 
   Frank Wennmohs         : Technical directorship and infrastructure
   Hang Xu                : AUTO-CI-Response properties 


 We gratefully acknowledge several colleagues who have allowed us to
 interface, adapt or use parts of their codes:
   Stefan Grimme, W. Hujo, H. Kruse, P. Pracht,  : VdW corrections, initial TS optimization,
                  C. Bannwarth, S. Ehlert,         DFT functionals, gCP, sTDA/sTD-DF
                  L. Wittmann, M. Mueller
   Ed Valeev, F. Pavosevic, A. Kumar             : LibInt (2-el integral package), F12 methods
   Garnet Chan, S. Sharma, J. Yang, R. Olivares  : DMRG
   Ulf Ekstrom                                   : XCFun DFT Library
   Mihaly Kallay                                 : mrcc  (arbitrary order and MRCC methods)
   Frank Weinhold                                : gennbo (NPA and NBO analysis)
   Simon Mueller                                 : openCOSMO-RS
   Christopher J. Cramer and Donald G. Truhlar   : smd solvation model
   Lars Goerigk                                  : TD-DFT with DH, B97 family of functionals
   V. Asgeirsson, H. Jonsson                     : NEB implementation
   FAccTs GmbH                                   : IRC, NEB, NEB-TS, DLPNO-Multilevel, CI-OPT
                                                   MM, QMMM, 2- and 3-layer-ONIOM, Crystal-QMMM,
                                                   LR-CPCM, SF, NACMEs, symmetry and pop. for TD-DFT,
                                                   nearIR, NL-DFT gradient (VV10), updates on ESD,
                                                   ML-optimized integration grids, MBIS, APM,
                                                   GOAT, DOCKER, SOLVATOR, interface openCOSMO-RS
   S Lehtola, MJT Oliveira, MAL Marques          : LibXC Library
   Liviu Ungur et al                             : ANISO software


 Your calculation uses the libint2 library for the computation of 2-el integrals
 For citations please refer to: http://libint.valeyev.net

 Your ORCA version has been built with support for libXC version: 6.2.2
 For citations please refer to: https://libxc.gitlab.io

 This ORCA versions uses:
   CBLAS   interface :  Fast vector & matrix operations
   LAPACKE interface :  Fast linear algebra routines
   SCALAPACK package :  Parallel linear algebra routines
   Shared memory     :  Shared parallel matrices
   BLAS/LAPACK       :  OpenBLAS 0.3.27  USE64BITINT DYNAMIC_ARCH NO_AFFINITY Zen SINGLE_THREADED
        Core in use  :  Zen
   Copyright (c) 2011-2014, The OpenBLAS Project


Your calculation utilizes the atom-pairwise dispersion correction
with the Becke-Johnson damping scheme (D3BJ)


Warning: RI is on but no J-basis has been assigned. Assigning Def2/J (nothing to worry about!)
================================================================================

----- Orbital basis set information -----
Your calculation utilizes the basis: def2-TZVPPD
   F. Weigend and R. Ahlrichs, Phys. Chem. Chem. Phys. 7, 3297 (2005).
   D. Rappoport and F. Furche, J. Chem. Phys. 133, 134105 (2010)
   D. Rappoport, J. Chem. Phys. 155, 124102 (2021).

----- AuxJ basis set information -----
Your calculation utilizes the auxiliary basis: def2/J
   F. Weigend, Phys. Chem. Chem. Phys. 8, 1057 (2006).

================================================================================
                                        WARNINGS
                       Please study these warnings very carefully!
================================================================================

Using LibXC functional ID 531 : wB97M-V exchange-correlation functional
[ 1]  N. Mardirossian and M. Head-Gordon.,  J. Chem. Phys. 144, 214110 (2016)
Using LibXC functional ID 531 : wB97M-V exchange-correlation functional
[ 1]  N. Mardirossian and M. Head-Gordon.,  J. Chem. Phys. 144, 214110 (2016)

WARNING: B97M-V or wB97M-V functional requested.
  ===> : libXC variant has now been activated.
         Any manually given DFX/HFX/RangeSep scaling parameters are IGNORED!

Your calculation utilizes LibXC
 by S Lehtola, C Steigemann, MJT Oliveira & MAL Marques
Please cite in your paper:
 S Lehtola, C Steigemann, MJT Oliveira & MAL Marques, SoftwareX, 7, (2018), 1.
   


WARNING: your system is open-shell and RHF/RKS was chosen
  ===> : WILL SWITCH to UHF/UKS

INFO   : Checking CIS options ...

WARNING: CIS/ROCIS methods need fully converged wavefunctions
  ===> : Setting SCFConvForced true
         You can overwrite this default with %scf ConvForced false 


================================================================================
                                       INPUT FILE
================================================================================
NAME = orca.inp
|  1> ! Engrad def2-TZVPPD wB97M-D3BJ 
|  2> %pal nprocs 8 end%pal nprocs 64 end 
|  3> %tddft Nroots 2 Iroot 2 
|  4> sf true 
|  5> end 
|  6> *xyz 0 3 
|  7> O   3.78744737 0.45761496 -0.02237061
|  8> O   -1.27850262 1.14804221 -2.49032791
|  9> O   0.95089926 -2.87912001 -1.20897865
| 10> O   -3.58634747 -1.23373681 0.56681813
| 11> N   0.2637622 -1.43659726 0.39071773
| 12> N   -2.0000007 0.20851334 1.33075572
| 13> N   2.36173763 -1.21688077 -0.58246543
| 14> N   -2.19863027 -0.24321452 -0.93908232
| 15> C   1.725918 0.37687082 1.09596478
| 16> C   -0.74498535 1.49450756 -0.19971317
| 17> C   0.43034068 -0.32750468 1.2898843
| 18> C   -0.66036545 0.74748348 1.11726061
| 19> C   2.08875666 1.51622276 1.96694962
| 20> C   -0.60928097 2.96612599 -0.22269773
| 21> C   2.71009876 -0.09275706 0.14038187
| 22> C   -1.37975573 0.81152406 -1.32892741
| 23> C   1.15995186 -1.91195393 -0.51475014
| 24> C   -2.65612547 -0.47943788 0.34298323
| 25> H   0.33848922 -0.69459694 2.32685851
| 26> H   -0.4848265 1.46579096 1.8990052
| 27> H   3.15967734 1.59196082 2.01437426
| 28> H   1.72579941 2.45488068 1.58006173
| 29> H   1.6784338 1.38708382 2.96178491
| 30> H   -1.41211246 3.40761471 0.38089541
| 31> H   0.31012375 3.27748714 0.22844851
| 32> H   -0.68159717 3.32802711 -1.24001127
| 33> H   -0.53369688 -2.03503141 0.45589618
| 34> H   -2.34244417 -0.0077736 2.25186326
| 35> H   2.99940868 -1.54061964 -1.29652101
| 36> H   -2.70063688 -0.71090089 -1.6902861
| 37> *
| 38> 
| 39>                          ****END OF INPUT****
================================================================================

                     *******************************
                     * Energy+Gradient Calculation *
                     *******************************

---------------------------------
CARTESIAN COORDINATES (ANGSTROEM)
---------------------------------
  O      3.787447    0.457615   -0.022371
  O     -1.278503    1.148042   -2.490328
  O      0.950899   -2.879120   -1.208979
  O     -3.586347   -1.233737    0.566818
  N      0.263762   -1.436597    0.390718
  N     -2.000001    0.208513    1.330756
  N      2.361738   -1.216881   -0.582465
  N     -2.198630   -0.243215   -0.939082
  C      1.725918    0.376871    1.095965
  C     -0.744985    1.494508   -0.199713
  C      0.430341   -0.327505    1.289884
  C     -0.660365    0.747483    1.117261
  C      2.088757    1.516223    1.966950
  C     -0.609281    2.966126   -0.222698
  C      2.710099   -0.092757    0.140382
  C     -1.379756    0.811524   -1.328927
  C      1.159952   -1.911954   -0.514750
  C     -2.656125   -0.479438    0.342983
  H      0.338489   -0.694597    2.326859
  H     -0.484826    1.465791    1.899005
  H      3.159677    1.591961    2.014374
  H      1.725799    2.454881    1.580062
  H      1.678434    1.387084    2.961785
  H     -1.412112    3.407615    0.380895
  H      0.310124    3.277487    0.228449
  H     -0.681597    3.328027   -1.240011
  H     -0.533697   -2.035031    0.455896
  H     -2.342444   -0.007774    2.251863
  H      2.999409   -1.540620   -1.296521
  H     -2.700637   -0.710901   -1.690286

----------------------------
CARTESIAN COORDINATES (A.U.)
----------------------------
  NO LB      ZA    FRAG     MASS         X           Y           Z
   0 O     8.0000    0    15.999    7.157238    0.864767   -0.042274
   1 O     8.0000    0    15.999   -2.416020    2.169485   -4.706038
   2 O     8.0000    0    15.999    1.796939   -5.440748   -2.284639
   3 O     8.0000    0    15.999   -6.777215   -2.331425    1.071131
   4 N     7.0000    0    14.007    0.498438   -2.714775    0.738350
   5 N     7.0000    0    14.007   -3.779454    0.394033    2.514764
   6 N     7.0000    0    14.007    4.463037   -2.299571   -1.100700
   7 N     7.0000    0    14.007   -4.154809   -0.459609   -1.774608
   8 C     6.0000    0    12.011    3.261512    0.712183    2.071073
   9 C     6.0000    0    12.011   -1.407818    2.824210   -0.377403
  10 C     6.0000    0    12.011    0.813226   -0.618894    2.437528
  11 C     6.0000    0    12.011   -1.247910    1.412539    2.111317
  12 C     6.0000    0    12.011    3.947178    2.865246    3.716996
  13 C     6.0000    0    12.011   -1.151374    5.605166   -0.420838
  14 C     6.0000    0    12.011    5.121344   -0.175285    0.265283
  15 C     6.0000    0    12.011   -2.607360    1.533558   -2.511309
  16 C     6.0000    0    12.011    2.191991   -3.613069   -0.972737
  17 C     6.0000    0    12.011   -5.019350   -0.906006    0.648144
  18 H     1.0000    0     1.008    0.639652   -1.312598    4.397125
  19 H     1.0000    0     1.008   -0.916189    2.769943    3.588600
  20 H     1.0000    0     1.008    5.970925    3.008370    3.806616
  21 H     1.0000    0     1.008    3.261288    4.639052    2.985884
  22 H     1.0000    0     1.008    3.171780    2.621209    5.596962
  23 H     1.0000    0     1.008   -2.668506    6.439459    0.719788
  24 H     1.0000    0     1.008    0.586049    6.193553    0.431705
  25 H     1.0000    0     1.008   -1.288032    6.289060   -2.343282
  26 H     1.0000    0     1.008   -1.008541   -3.845652    0.861519
  27 H     1.0000    0     1.008   -4.426578   -0.014690    4.255405
  28 H     1.0000    0     1.008    5.668061   -2.911349   -2.450070
  29 H     1.0000    0     1.008   -5.103464   -1.343408   -3.194178

--------------------------------
INTERNAL COORDINATES (ANGSTROEM)
--------------------------------
 O      0   0   0     0.000000000000     0.00000000     0.00000000
 O      1   0   0     5.677266272014     0.00000000     0.00000000
 O      1   2   0     4.537382955070    54.40249356     0.00000000
 O      2   1   3     4.510561058413    95.60720820    54.14020794
 N      3   1   2     2.260986008731    62.34013783   295.62105539
 N      4   2   1     2.276001364516    62.37179804    42.94153800
 N      3   1   2     2.268484739225     0.87332073   251.71586639
 N      4   2   1     2.274781220134     7.80035545   322.26443645
 C      1   2   3     2.346720478464    55.07284497   280.07179465
 C      6   4   2     2.360334655481   119.88147091     0.00000000
 C      5   3   1     1.437475308176   154.10643407   355.89950329
 C      6   4   2     1.459688863028   145.54272617   319.52349306
 C      9   1   2     1.479320562921    92.21303746   240.51405513
 C     10   6   4     1.478040856088   126.96805754   124.27051766
 C      1   2   3     1.220687411918    47.56519724   319.40267499
 C      2   1   3     1.213403386745    67.95433540    72.68694691
 C      3   1   2     1.208745812802    32.14193842   295.49187820
 C      4   2   1     1.218352127893    32.63827726    34.21485794
 H     11   5   3     1.103860919800   108.74700131   242.85943381
 H     12   6   4     1.076059553550   106.85411701   179.70259995
 H     13   9   1     1.074642476856   108.94667896   336.90380139
 H     13   9   1     1.078192420459   112.12786119    94.97187165
 H     13   9   1     1.083853758351   110.84220431   215.49285930
 H     14  10   6     1.097166974475   108.95971485   342.82677887
 H     14  10   6     1.070412880506   111.21831087    99.60279395
 H     14  10   6     1.082187087387   109.96502140   222.81349543
 H      5   3   1     0.999155967057    84.64005973   184.61894493
 H      6   4   2     1.006223966523    86.20684542   172.97368374
 H      7   3  17     1.010597147872    87.85399883   184.04308841
 H      8   4  18     1.017373233506    89.29046656   181.70441147

---------------------------
INTERNAL COORDINATES (A.U.)
---------------------------
 O      0   0   0     0.000000000000     0.00000000     0.00000000
 O      1   0   0    10.728478443454     0.00000000     0.00000000
 O      1   2   0     8.574411149804    54.40249356     0.00000000
 O      2   1   3     8.523725110730    95.60720820    54.14020794
 N      3   1   2     4.272644349130    62.34013783   295.62105539
 N      4   2   1     4.301019259367    62.37179804    42.94153800
 N      3   1   2     4.286814896114     0.87332073   251.71586639
 N      4   2   1     4.298713520640     7.80035545   322.26443645
 C      1   2   3     4.434659017162    55.07284497   280.07179465
 C      6   4   2     4.460386083263   119.88147091     0.00000000
 C      5   3   1     2.716434656727   154.10643407   355.89950329
 C      6   4   2     2.758412191858   145.54272617   319.52349306
 C      9   1   2     2.795510728200    92.21303746   240.51405513
 C     10   6   4     2.793092432753   126.96805754   124.27051766
 C      1   2   3     2.306764903649    47.56519724   319.40267499
 C      2   1   3     2.293000090921    67.95433540    72.68694691
 C      3   1   2     2.284198551720    32.14193842   295.49187820
 C      4   2   1     2.302351856398    32.63827726    34.21485794
 H     11   5   3     2.085994828360   108.74700131   242.85943381
 H     12   6   4     2.033457859998   106.85411701   179.70259995
 H     13   9   1     2.030779973137   108.94667896   336.90380139
 H     13   9   1     2.037488394337   112.12786119    94.97187165
 H     13   9   1     2.048186772505   110.84220431   215.49285930
 H     14  10   6     2.073345104940   108.95971485   342.82677887
 H     14  10   6     2.022787194379   111.21831087    99.60279395
 H     14  10   6     2.045037220827   109.96502140   222.81349543
 H      5   3   1     1.888131142810    84.64005973   184.61894493
 H      6   4   2     1.901487726116    86.20684542   172.97368374
 H      7   3  17     1.909751841199    87.85399883   184.04308841
 H      8   4  18     1.922556787308    89.29046656   181.70441147

---------------------
BASIS SET INFORMATION
---------------------
There are 4 groups of distinct atoms

 Group   1 Type O   : 12s7p3d1f contracted to 6s4p3d1f pattern {621111/4111/111/1}
 Group   2 Type N   : 12s6p3d1f contracted to 6s3p3d1f pattern {621111/411/111/1}
 Group   3 Type C   : 12s6p3d1f contracted to 6s3p3d1f pattern {621111/411/111/1}
 Group   4 Type H   : 5s3p1d contracted to 3s3p1d pattern {311/111/1}

Atom   0O    basis set group =>   1
Atom   1O    basis set group =>   1
Atom   2O    basis set group =>   1
Atom   3O    basis set group =>   1
Atom   4N    basis set group =>   2
Atom   5N    basis set group =>   2
Atom   6N    basis set group =>   2
Atom   7N    basis set group =>   2
Atom   8C    basis set group =>   3
Atom   9C    basis set group =>   3
Atom  10C    basis set group =>   3
Atom  11C    basis set group =>   3
Atom  12C    basis set group =>   3
Atom  13C    basis set group =>   3
Atom  14C    basis set group =>   3
Atom  15C    basis set group =>   3
Atom  16C    basis set group =>   3
Atom  17C    basis set group =>   3
Atom  18H    basis set group =>   4
Atom  19H    basis set group =>   4
Atom  20H    basis set group =>   4
Atom  21H    basis set group =>   4
Atom  22H    basis set group =>   4
Atom  23H    basis set group =>   4
Atom  24H    basis set group =>   4
Atom  25H    basis set group =>   4
Atom  26H    basis set group =>   4
Atom  27H    basis set group =>   4
Atom  28H    basis set group =>   4
Atom  29H    basis set group =>   4
---------------------------------
AUXILIARY/J BASIS SET INFORMATION
---------------------------------
There are 4 groups of distinct atoms

 Group   1 Type O   : 12s5p4d2f1g contracted to 6s4p3d1f1g pattern {711111/2111/211/2/1}
 Group   2 Type N   : 12s5p4d2f1g contracted to 6s4p3d1f1g pattern {711111/2111/211/2/1}
 Group   3 Type C   : 12s5p4d2f1g contracted to 6s4p3d1f1g pattern {711111/2111/211/2/1}
 Group   4 Type H   : 5s2p1d contracted to 3s1p1d pattern {311/2/1}

Atom   0O    basis set group =>   1
Atom   1O    basis set group =>   1
Atom   2O    basis set group =>   1
Atom   3O    basis set group =>   1
Atom   4N    basis set group =>   2
Atom   5N    basis set group =>   2
Atom   6N    basis set group =>   2
Atom   7N    basis set group =>   2
Atom   8C    basis set group =>   3
Atom   9C    basis set group =>   3
Atom  10C    basis set group =>   3
Atom  11C    basis set group =>   3
Atom  12C    basis set group =>   3
Atom  13C    basis set group =>   3
Atom  14C    basis set group =>   3
Atom  15C    basis set group =>   3
Atom  16C    basis set group =>   3
Atom  17C    basis set group =>   3
Atom  18H    basis set group =>   4
Atom  19H    basis set group =>   4
Atom  20H    basis set group =>   4
Atom  21H    basis set group =>   4
Atom  22H    basis set group =>   4
Atom  23H    basis set group =>   4
Atom  24H    basis set group =>   4
Atom  25H    basis set group =>   4
Atom  26H    basis set group =>   4
Atom  27H    basis set group =>   4
Atom  28H    basis set group =>   4
Atom  29H    basis set group =>   4
[1739914533.489746] [ohm:500827:0]        ib_iface.c:1059 UCX  ERROR ibv_create_cq(cqe=256) failed: Connection timed out
[1739914533.500659] [ohm:500838:0]        ib_iface.c:1059 UCX  ERROR ibv_create_cq(cqe=256) failed: Connection timed out
[1739914533.514148] [ohm:500825:0]        ib_iface.c:1059 UCX  ERROR ibv_create_cq(cqe=256) failed: Connection timed out
[1739914533.530669] [ohm:500836:0]        ib_iface.c:1059 UCX  ERROR ibv_create_cq(cqe=256) failed: Connection timed out
[1739914533.540415] [ohm:500834:0]        ib_iface.c:1059 UCX  ERROR ibv_create_cq(cqe=256) failed: Connection timed out
[1739914533.551550] [ohm:500842:0]        ib_iface.c:1059 UCX  ERROR ibv_create_cq(cqe=256) failed: Connection timed out
[1739914533.552321] [ohm:500832:0]        ib_iface.c:1059 UCX  ERROR ibv_create_cq(cqe=256) failed: Connection timed out
[1739914533.556195] [ohm:500837:0]        ib_iface.c:1059 UCX  ERROR ibv_create_cq(cqe=256) failed: Connection timed out
[1739914533.559719] [ohm:500829:0]        ib_iface.c:1059 UCX  ERROR ibv_create_cq(cqe=256) failed: Connection timed out
[1739914533.599872] [ohm:500846:0]        ib_iface.c:1059 UCX  ERROR ibv_create_cq(cqe=256) failed: Connection timed out
[1739914533.601970] [ohm:500843:0]        ib_iface.c:1059 UCX  ERROR ibv_create_cq(cqe=256) failed: Connection timed out
[1739914533.607294] [ohm:500895:0]        ib_iface.c:1059 UCX  ERROR ibv_create_cq(cqe=256) failed: Connection timed out
[1739914533.612210] [ohm:500830:0]        ib_iface.c:1059 UCX  ERROR ibv_create_cq(cqe=256) failed: Connection timed out
[1739914533.612893] [ohm:500850:0]        ib_iface.c:1059 UCX  ERROR ibv_create_cq(cqe=256) failed: Connection timed out
[1739914533.612978] [ohm:500863:0]        ib_iface.c:1059 UCX  ERROR ibv_create_cq(cqe=256) failed: Connection timed out
[1739914533.616839] [ohm:500840:0]        ib_iface.c:1059 UCX  ERROR ibv_create_cq(cqe=256) failed: Connection timed out
[1739914533.617137] [ohm:500849:0]        ib_iface.c:1059 UCX  ERROR ibv_create_cq(cqe=256) failed: Connection timed out
[1739914533.633667] [ohm:500902:0]        ib_iface.c:1059 UCX  ERROR ibv_create_cq(cqe=256) failed: Connection timed out
[1739914533.649692] [ohm:500944:0]        ib_iface.c:1059 UCX  ERROR ibv_create_cq(cqe=256) failed: Connection timed out
[1739914533.668502] [ohm:500940:0]        ib_iface.c:1059 UCX  ERROR ibv_create_cq(cqe=256) failed: Connection timed out
[1739914533.669680] [ohm:500875:0]        ib_iface.c:1059 UCX  ERROR ibv_create_cq(cqe=256) failed: Connection timed out
[1739914533.682779] [ohm:500852:0]        ib_iface.c:1059 UCX  ERROR ibv_create_cq(cqe=256) failed: Connection timed out
[1739914533.698450] [ohm:500923:0]        ib_iface.c:1059 UCX  ERROR ibv_create_cq(cqe=256) failed: Connection timed out
[1739914533.702326] [ohm:500911:0]        ib_iface.c:1059 UCX  ERROR ibv_create_cq(cqe=256) failed: Connection timed out
[1739914533.706556] [ohm:500904:0]        ib_iface.c:1059 UCX  ERROR ibv_create_cq(cqe=256) failed: Connection timed out
[1739914533.713966] [ohm:500893:0]        ib_iface.c:1059 UCX  ERROR ibv_create_cq(cqe=256) failed: Connection timed out
[1739914533.714843] [ohm:500950:0]        ib_iface.c:1059 UCX  ERROR ibv_create_cq(cqe=256) failed: Connection timed out
[1739914533.717445] [ohm:500878:0]        ib_iface.c:1059 UCX  ERROR ibv_create_cq(cqe=256) failed: Connection timed out
[1739914533.727210] [ohm:500886:0]        ib_iface.c:1059 UCX  ERROR ibv_create_cq(cqe=256) failed: Connection timed out
[1739914533.728570] [ohm:500859:0]        ib_iface.c:1059 UCX  ERROR ibv_create_cq(cqe=256) failed: Connection timed out
[1739914533.732389] [ohm:500845:0]        ib_iface.c:1059 UCX  ERROR ibv_create_cq(cqe=256) failed: Connection timed out
[1739914533.739170] [ohm:500958:0]        ib_iface.c:1059 UCX  ERROR ibv_create_cq(cqe=256) failed: Connection timed out
[1739914533.749034] [ohm:500937:0]        ib_iface.c:1059 UCX  ERROR ibv_create_cq(cqe=256) failed: Connection timed out
[1739914533.751424] [ohm:500934:0]        ib_iface.c:1059 UCX  ERROR ibv_create_cq(cqe=256) failed: Connection timed out
[1739914533.753905] [ohm:500839:0]        ib_iface.c:1059 UCX  ERROR ibv_create_cq(cqe=256) failed: Connection timed out
[1739914533.756695] [ohm:500955:0]        ib_iface.c:1059 UCX  ERROR ibv_create_cq(cqe=256) failed: Connection timed out
[1739914533.766135] [ohm:500953:0]        ib_iface.c:1059 UCX  ERROR ibv_create_cq(cqe=256) failed: Connection timed out
[1739914533.768353] [ohm:500917:0]        ib_iface.c:1059 UCX  ERROR ibv_create_cq(cqe=256) failed: Connection timed out
[1739914533.774064] [ohm:500921:0]        ib_iface.c:1059 UCX  ERROR ibv_create_cq(cqe=256) failed: Connection timed out
[1739914533.781212] [ohm:500961:0]        ib_iface.c:1059 UCX  ERROR ibv_create_cq(cqe=256) failed: Connection timed out
[1739914533.781323] [ohm:500914:0]        ib_iface.c:1059 UCX  ERROR ibv_create_cq(cqe=256) failed: Connection timed out
[1739914533.783710] [ohm:500833:0]        ib_iface.c:1059 UCX  ERROR ibv_create_cq(cqe=256) failed: Connection timed out
[1739914533.784431] [ohm:500835:0]        ib_iface.c:1059 UCX  ERROR ibv_create_cq(cqe=256) failed: Connection timed out
[1739914533.796992] [ohm:500826:0]        ib_iface.c:1059 UCX  ERROR ibv_create_cq(cqe=256) failed: Connection timed out
[1739914533.797671] [ohm:500947:0]        ib_iface.c:1059 UCX  ERROR ibv_create_cq(cqe=256) failed: Connection timed out
[1739914533.800421] [ohm:500847:0]        ib_iface.c:1059 UCX  ERROR ibv_create_cq(cqe=256) failed: Connection timed out
[1739914533.809327] [ohm:500853:0]        ib_iface.c:1059 UCX  ERROR ibv_create_cq(cqe=256) failed: Connection timed out
[1739914533.813026] [ohm:500932:0]        ib_iface.c:1059 UCX  ERROR ibv_create_cq(cqe=256) failed: Connection timed out
[1739914533.815524] [ohm:500831:0]        ib_iface.c:1059 UCX  ERROR ibv_create_cq(cqe=256) failed: Connection timed out
[1739914533.820061] [ohm:500844:0]        ib_iface.c:1059 UCX  ERROR ibv_create_cq(cqe=256) failed: Connection timed out
[1739914533.826229] [ohm:500928:0]        ib_iface.c:1059 UCX  ERROR ibv_create_cq(cqe=256) failed: Connection timed out
[1739914533.828184] [ohm:500969:0]        ib_iface.c:1059 UCX  ERROR ibv_create_cq(cqe=256) failed: Connection timed out
[1739914533.829194] [ohm:500868:0]        ib_iface.c:1059 UCX  ERROR ibv_create_cq(cqe=256) failed: Connection timed out
[1739914533.829648] [ohm:500828:0]        ib_iface.c:1059 UCX  ERROR ibv_create_cq(cqe=256) failed: Connection timed out
[1739914533.829729] [ohm:500841:0]        ib_iface.c:1059 UCX  ERROR ibv_create_cq(cqe=256) failed: Connection timed out
[1739914533.830263] [ohm:500851:0]        ib_iface.c:1059 UCX  ERROR ibv_create_cq(cqe=256) failed: Connection timed out
[1739914533.831908] [ohm:500880:0]        ib_iface.c:1059 UCX  ERROR ibv_create_cq(cqe=256) failed: Connection timed out
[1739914533.832893] [ohm:500855:0]        ib_iface.c:1059 UCX  ERROR ibv_create_cq(cqe=256) failed: Connection timed out
[1739914533.833998] [ohm:500964:0]        ib_iface.c:1059 UCX  ERROR ibv_create_cq(cqe=256) failed: Connection timed out
[1739914533.834135] [ohm:500925:0]        ib_iface.c:1059 UCX  ERROR ibv_create_cq(cqe=256) failed: Connection timed out
[1739914533.835039] [ohm:500872:0]        ib_iface.c:1059 UCX  ERROR ibv_create_cq(cqe=256) failed: Connection timed out
[1739914533.835738] [ohm:500909:0]        ib_iface.c:1059 UCX  ERROR ibv_create_cq(cqe=256) failed: Connection timed out
[1739914533.835769] [ohm:500883:0]        ib_iface.c:1059 UCX  ERROR ibv_create_cq(cqe=256) failed: Connection timed out
[1739914533.844745] [ohm:500848:0]        ib_iface.c:1059 UCX  ERROR ibv_create_cq(cqe=256) failed: Connection timed out


           ************************************************************
           *        Program running with 64 parallel MPI-processes    *
           *              working on a common directory               *
           ************************************************************
------------------------------------------------------------------------------
                             ORCA STARTUP CALCULATIONS
                           -- RI-GTO INTEGRALS CHOSEN --
------------------------------------------------------------------------------
------------------------------------------------------------------------------
                   ___                                                        
                  /   \      - P O W E R E D   B Y -                         
                 /     \                                                     
                 |  |  |   _    _      __       _____    __    __             
                 |  |  |  | |  | |    /  \     |  _  \  |  |  /  |          
                  \  \/   | |  | |   /    \    | | | |  |  | /  /          
                 / \  \   | |__| |  /  /\  \   | |_| |  |  |/  /          
                |  |  |   |  __  | /  /__\  \  |    /   |      \           
                |  |  |   | |  | | |   __   |  |    \   |  |\   \          
                \     /   | |  | | |  |  |  |  | |\  \  |  | \   \       
                 \___/    |_|  |_| |__|  |__|  |_| \__\ |__|  \__/        
                                                                              
                      - O R C A' S   B I G   F R I E N D -                    
                                      &                                       
                       - I N T E G R A L  F E E D E R -                       
                                                                              
 v1 FN, 2020, v2 2021, v3 2022-2024                                           
------------------------------------------------------------------------------


----------------------
SHARK INTEGRAL PACKAGE
----------------------

Number of atoms                             ...     30
Number of basis functions                   ...    882
Number of shells                            ...    322
Maximum angular momentum                    ...      3
Integral batch strategy                     ... SHARK/LIBINT Hybrid
RI-J (if used) integral strategy            ... SPLIT-RIJ (Revised 2003 algorithm where possible)
Printlevel                                  ...      1
Contraction scheme used                     ... SEGMENTED contraction
Prescreening option                         ... SCHWARTZ
   Thresh                                   ... 2.500e-11
   Tcut                                     ... 2.500e-12
   Tpresel                                  ... 2.500e-12 
Coulomb Range Separation                    ... NOT USED
Exchange Range Separation                   ... Long Range
   Mu parameter                             ... 3.000e-01
   Scaling (regular/separated)              ... 1.500e-01 8.500e-01
Multipole approximations                    ... NOT USED
Finite Nucleus Model                        ... NOT USED
CABS basis                                  ... NOT available
Auxiliary Coulomb fitting basis             ... AVAILABLE
   # of basis functions in Aux-J            ...   1014
   # of shells in Aux-J                     ...    330
   Maximum angular momentum in Aux-J        ...      4
Auxiliary J/K fitting basis                 ... NOT available
Auxiliary Correlation fitting basis         ... NOT available
Auxiliary 'external' fitting basis          ... NOT available

Checking pre-screening integrals            ... done (  0.0 sec) Dimension = 322
Check shell pair data                       ... done (  0.0 sec)
Shell pair information
Shell pair cut-off parameter TPreSel        ...   2.5e-12
Total number of shell pairs                 ...     52003
Shell pairs after pre-screening             ...     44525
Total number of primitive shell pairs       ...    129718
Primitive shell pairs kept                  ...     83040
          la=0 lb=0:   8629 shell pairs
          la=1 lb=0:  11796 shell pairs
          la=1 lb=1:   4080 shell pairs
          la=2 lb=0:   8023 shell pairs
          la=2 lb=1:   5543 shell pairs
          la=2 lb=2:   1907 shell pairs
          la=3 lb=0:   2015 shell pairs
          la=3 lb=1:   1433 shell pairs
          la=3 lb=2:    969 shell pairs
          la=3 lb=3:    130 shell pairs

Calculating one electron integrals          ... done (  0.2 sec)
Calculating RI/J V-Matrix + Cholesky decomp.... done (  0.0 sec)
Calculating Nuclear repulsion               ... done (  0.0 sec) ENN=   1419.833501121050 Eh

Diagonalization of the overlap matrix:
Smallest eigenvalue                        ... 5.203e-07
Time for diagonalization                   ...    0.127 sec
Threshold for overlap eigenvalues          ... 1.000e-07
Number of eigenvalues below threshold      ... 0

IMPORTANT:
Smallest eigenvalue of S below the DiffSThresh (1.000e-06) while
Thresh>1e-12 and/or TCut>1e-13! In order to avoid SCF convergence issues,
Thresh will be set to at least 1e-12 and TCut to at least 1e-13.
This can be turned off by adding %SCF DiffSThresh -1 END to the input.

Time for construction of square roots      ...    0.136 sec
Total time needed                          ...    0.274 sec

-------------------
DFT GRID GENERATION
-------------------

General Integration Accuracy     IntAcc      ... 4.388
Radial Grid Type                 RadialGrid  ... OptM3 with GC (2021)
Angular Grid (max. ang.)         AngularGrid ... 4 (Lebedev-302)
Angular grid pruning method      GridPruning ... 4 (adaptive)
Weight generation scheme         WeightScheme... mBecke (2022)
Basis function cutoff            BFCut       ... 1.0000e-11
Integration weight cutoff        WCut        ... 1.0000e-14
Partially contracted basis set               ... off
Rotationally invariant grid construction     ... off
Angular grids for H and He will be reduced by one unit
Diffuse basis detected: some atoms will have their outermost
                        angular grid increased by 1.

Total number of grid points                  ...   152075
Total number of batches                      ...     2391
Average number of points per batch           ...       63
Average number of grid points per atom       ...     5069

--------------------
COSX GRID GENERATION
--------------------

GRIDX 1
-------
General Integration Accuracy     IntAcc      ... 3.816
Radial Grid Type                 RadialGrid  ... OptM3 with GC (2021)
Angular Grid (max. ang.)         AngularGrid ... 1 (Lebedev-50)
Angular grid pruning method      GridPruning ... 4 (adaptive)
Weight generation scheme         WeightScheme... mBecke (2022)
Basis function cutoff            BFCut       ... 1.0000e-11
Integration weight cutoff        WCut        ... 1.0000e-14
Partially contracted basis set               ... on
Rotationally invariant grid construction     ... off
Angular grids for H and He will be reduced by one unit
Diffuse basis detected: some atoms will have their outermost
                        angular grid increased by 1.

Total number of grid points                  ...    19071
Total number of batches                      ...      166
Average number of points per batch           ...      114
Average number of grid points per atom       ...      636
UseSFitting                                  ... on

GRIDX 2
-------
General Integration Accuracy     IntAcc      ... 4.020
Radial Grid Type                 RadialGrid  ... OptM3 with GC (2021)
Angular Grid (max. ang.)         AngularGrid ... 2 (Lebedev-110)
Angular grid pruning method      GridPruning ... 4 (adaptive)
Weight generation scheme         WeightScheme... mBecke (2022)
Basis function cutoff            BFCut       ... 1.0000e-11
Integration weight cutoff        WCut        ... 1.0000e-14
Partially contracted basis set               ... on
Rotationally invariant grid construction     ... off
Angular grids for H and He will be reduced by one unit
Diffuse basis detected: some atoms will have their outermost
                        angular grid increased by 1.

Total number of grid points                  ...    46029
Total number of batches                      ...      375
Average number of points per batch           ...      122
Average number of grid points per atom       ...     1534
UseSFitting                                  ... on

GRIDX 3
-------
General Integration Accuracy     IntAcc      ... 4.338
Radial Grid Type                 RadialGrid  ... OptM3 with GC (2021)
Angular Grid (max. ang.)         AngularGrid ... 3 (Lebedev-194)
Angular grid pruning method      GridPruning ... 4 (adaptive)
Weight generation scheme         WeightScheme... mBecke (2022)
Basis function cutoff            BFCut       ... 1.0000e-11
Integration weight cutoff        WCut        ... 1.0000e-14
Partially contracted basis set               ... on
Rotationally invariant grid construction     ... off
Angular grids for H and He will be reduced by one unit
Diffuse basis detected: some atoms will have their outermost
                        angular grid increased by 1.

Total number of grid points                  ...   101233
Total number of batches                      ...      805
Average number of points per batch           ...      125
Average number of grid points per atom       ...     3374
UseSFitting                                  ... on
Initializing property integral containers    ... done (  0.0 sec)

SHARK setup successfully completed in   4.1 seconds

Maximum memory used throughout the entire STARTUP-calculation: 79.3 MB
[1739914539.780798] [ohm:501221:0]        ib_iface.c:1059 UCX  ERROR ibv_create_cq(cqe=256) failed: Connection timed out
[1739914539.781925] [ohm:501200:0]        ib_iface.c:1059 UCX  ERROR ibv_create_cq(cqe=256) failed: Connection timed out
[1739914539.788094] [ohm:501201:0]        ib_iface.c:1059 UCX  ERROR ibv_create_cq(cqe=256) failed: Connection timed out
[1739914539.788800] [ohm:501202:0]        ib_iface.c:1059 UCX  ERROR ibv_create_cq(cqe=256) failed: Connection timed out
[1739914539.790014] [ohm:501211:0]        ib_iface.c:1059 UCX  ERROR ibv_create_cq(cqe=256) failed: Connection timed out
[1739914539.792934] [ohm:501216:0]        ib_iface.c:1059 UCX  ERROR ibv_create_cq(cqe=256) failed: Connection timed out
[1739914539.803249] [ohm:501204:0]        ib_iface.c:1059 UCX  ERROR ibv_create_cq(cqe=256) failed: Connection timed out
[1739914539.830111] [ohm:501217:0]        ib_iface.c:1059 UCX  ERROR ibv_create_cq(cqe=256) failed: Connection timed out
[1739914539.831609] [ohm:501219:0]        ib_iface.c:1059 UCX  ERROR ibv_create_cq(cqe=256) failed: Connection timed out
[1739914539.831922] [ohm:501208:0]        ib_iface.c:1059 UCX  ERROR ibv_create_cq(cqe=256) failed: Connection timed out
[1739914539.844821] [ohm:501279:0]        ib_iface.c:1059 UCX  ERROR ibv_create_cq(cqe=256) failed: Connection timed out
[1739914539.853086] [ohm:501230:0]        ib_iface.c:1059 UCX  ERROR ibv_create_cq(cqe=256) failed: Connection timed out
[1739914539.876039] [ohm:501294:0]        ib_iface.c:1059 UCX  ERROR ibv_create_cq(cqe=256) failed: Connection timed out
[1739914539.911442] [ohm:501227:0]        ib_iface.c:1059 UCX  ERROR ibv_create_cq(cqe=256) failed: Connection timed out
[1739914539.911663] [ohm:501296:0]        ib_iface.c:1059 UCX  ERROR ibv_create_cq(cqe=256) failed: Connection timed out
[1739914539.942742] [ohm:501286:0]        ib_iface.c:1059 UCX  ERROR ibv_create_cq(cqe=256) failed: Connection timed out
[1739914539.965212] [ohm:501237:0]        ib_iface.c:1059 UCX  ERROR ibv_create_cq(cqe=256) failed: Connection timed out
[1739914539.975492] [ohm:501228:0]        ib_iface.c:1059 UCX  ERROR ibv_create_cq(cqe=256) failed: Connection timed out
[1739914539.980153] [ohm:501226:0]        ib_iface.c:1059 UCX  ERROR ibv_create_cq(cqe=256) failed: Connection timed out
[1739914539.981767] [ohm:501203:0]        ib_iface.c:1059 UCX  ERROR ibv_create_cq(cqe=256) failed: Connection timed out
[1739914539.982860] [ohm:501304:0]        ib_iface.c:1059 UCX  ERROR ibv_create_cq(cqe=256) failed: Connection timed out
[1739914539.986080] [ohm:501241:0]        ib_iface.c:1059 UCX  ERROR ibv_create_cq(cqe=256) failed: Connection timed out
[1739914539.987012] [ohm:501214:0]        ib_iface.c:1059 UCX  ERROR ibv_create_cq(cqe=256) failed: Connection timed out
[1739914539.995342] [ohm:501339:0]        ib_iface.c:1059 UCX  ERROR ibv_create_cq(cqe=256) failed: Connection timed out
[1739914540.000160] [ohm:501207:0]        ib_iface.c:1059 UCX  ERROR ibv_create_cq(cqe=256) failed: Connection timed out
[1739914540.004244] [ohm:501249:0]        ib_iface.c:1059 UCX  ERROR ibv_create_cq(cqe=256) failed: Connection timed out
[1739914540.008511] [ohm:501263:0]        ib_iface.c:1059 UCX  ERROR ibv_create_cq(cqe=256) failed: Connection timed out
[1739914540.013550] [ohm:501215:0]        ib_iface.c:1059 UCX  ERROR ibv_create_cq(cqe=256) failed: Connection timed out
[1739914540.014614] [ohm:501205:0]        ib_iface.c:1059 UCX  ERROR ibv_create_cq(cqe=256) failed: Connection timed out
[1739914540.015282] [ohm:501218:0]        ib_iface.c:1059 UCX  ERROR ibv_create_cq(cqe=256) failed: Connection timed out
[1739914540.019633] [ohm:501328:0]        ib_iface.c:1059 UCX  ERROR ibv_create_cq(cqe=256) failed: Connection timed out
[1739914540.024883] [ohm:501281:0]        ib_iface.c:1059 UCX  ERROR ibv_create_cq(cqe=256) failed: Connection timed out
[1739914540.026672] [ohm:501299:0]        ib_iface.c:1059 UCX  ERROR ibv_create_cq(cqe=256) failed: Connection timed out
[1739914540.027315] [ohm:501209:0]        ib_iface.c:1059 UCX  ERROR ibv_create_cq(cqe=256) failed: Connection timed out
[1739914540.027556] [ohm:501333:0]        ib_iface.c:1059 UCX  ERROR ibv_create_cq(cqe=256) failed: Connection timed out
[1739914540.043943] [ohm:501327:0]        ib_iface.c:1059 UCX  ERROR ibv_create_cq(cqe=256) failed: Connection timed out
[1739914540.044147] [ohm:501254:0]        ib_iface.c:1059 UCX  ERROR ibv_create_cq(cqe=256) failed: Connection timed out
[1739914540.050290] [ohm:501289:0]        ib_iface.c:1059 UCX  ERROR ibv_create_cq(cqe=256) failed: Connection timed out
[1739914540.055584] [ohm:501264:0]        ib_iface.c:1059 UCX  ERROR ibv_create_cq(cqe=256) failed: Connection timed out
[1739914540.064048] [ohm:501224:0]        ib_iface.c:1059 UCX  ERROR ibv_create_cq(cqe=256) failed: Connection timed out
[1739914540.065577] [ohm:501220:0]        ib_iface.c:1059 UCX  ERROR ibv_create_cq(cqe=256) failed: Connection timed out
[1739914540.065731] [ohm:501256:0]        ib_iface.c:1059 UCX  ERROR ibv_create_cq(cqe=256) failed: Connection timed out
[1739914540.072642] [ohm:501231:0]        ib_iface.c:1059 UCX  ERROR ibv_create_cq(cqe=256) failed: Connection timed out
[1739914540.072665] [ohm:501306:0]        ib_iface.c:1059 UCX  ERROR ibv_create_cq(cqe=256) failed: Connection timed out
[1739914540.073584] [ohm:501335:0]        ib_iface.c:1059 UCX  ERROR ibv_create_cq(cqe=256) failed: Connection timed out
[1739914540.075671] [ohm:501247:0]        ib_iface.c:1059 UCX  ERROR ibv_create_cq(cqe=256) failed: Connection timed out
[1739914540.076826] [ohm:501321:0]        ib_iface.c:1059 UCX  ERROR ibv_create_cq(cqe=256) failed: Connection timed out
[1739914540.079215] [ohm:501311:0]        ib_iface.c:1059 UCX  ERROR ibv_create_cq(cqe=256) failed: Connection timed out
[1739914540.080057] [ohm:501206:0]        ib_iface.c:1059 UCX  ERROR ibv_create_cq(cqe=256) failed: Connection timed out
[1739914540.080800] [ohm:501223:0]        ib_iface.c:1059 UCX  ERROR ibv_create_cq(cqe=256) failed: Connection timed out
[1739914540.088607] [ohm:501275:0]        ib_iface.c:1059 UCX  ERROR ibv_create_cq(cqe=256) failed: Connection timed out
[1739914540.089660] [ohm:501300:0]        ib_iface.c:1059 UCX  ERROR ibv_create_cq(cqe=256) failed: Connection timed out
[1739914540.097710] [ohm:501287:0]        ib_iface.c:1059 UCX  ERROR ibv_create_cq(cqe=256) failed: Connection timed out
[1739914540.099974] [ohm:501318:0]        ib_iface.c:1059 UCX  ERROR ibv_create_cq(cqe=256) failed: Connection timed out
[1739914540.101262] [ohm:501324:0]        ib_iface.c:1059 UCX  ERROR ibv_create_cq(cqe=256) failed: Connection timed out
[1739914540.102565] [ohm:501315:0]        ib_iface.c:1059 UCX  ERROR ibv_create_cq(cqe=256) failed: Connection timed out
[1739914540.105338] [ohm:501272:0]        ib_iface.c:1059 UCX  ERROR ibv_create_cq(cqe=256) failed: Connection timed out
[1739914540.108764] [ohm:501213:0]        ib_iface.c:1059 UCX  ERROR ibv_create_cq(cqe=256) failed: Connection timed out
[1739914540.109520] [ohm:501210:0]        ib_iface.c:1059 UCX  ERROR ibv_create_cq(cqe=256) failed: Connection timed out
[1739914540.110512] [ohm:501238:0]        ib_iface.c:1059 UCX  ERROR ibv_create_cq(cqe=256) failed: Connection timed out
[1739914540.111135] [ohm:501341:0]        ib_iface.c:1059 UCX  ERROR ibv_create_cq(cqe=256) failed: Connection timed out
[1739914540.112193] [ohm:501225:0]        ib_iface.c:1059 UCX  ERROR ibv_create_cq(cqe=256) failed: Connection timed out
[1739914540.113159] [ohm:501212:0]        ib_iface.c:1059 UCX  ERROR ibv_create_cq(cqe=256) failed: Connection timed out
[1739914540.113724] [ohm:501222:0]        ib_iface.c:1059 UCX  ERROR ibv_create_cq(cqe=256) failed: Connection timed out


           ************************************************************
           *        Program running with 64 parallel MPI-processes    *
           *              working on a common directory               *
           ************************************************************
-------------------------------------------------------------------------------
                                 ORCA GUESS
                   Start orbitals & Density for SCF / CASSCF
-------------------------------------------------------------------------------

------------
SCF SETTINGS
------------
Hamiltonian:
 Density Functional     Method          .... DFT(GTOs)
  Functional kind                       .... Exchange-Correlation
  Functional name                       .... wB97M-V exchange-correlation functional
  Functional family                     .... Hybrid MGGA
  Functional refs                              
    [ 0] N. Mardirossian and M. Head-Gordon.,  J. Chem. Phys. 144, 214110 (2016), doi: 10.1063/1.4952647
  Fraction of HF Exchange (short range) .... 0.1500
  Fraction of HF Exchange (long range)  .... 1.0000
  Range separation parameter mu         .... 0.3000
  Functional external parameters        .... 17
    Parameter  0 _cx00      =  8.500000e-01 : u^00 coefficient for exchange
    Parameter  1 _cx01      =  1.007000e+00 : u^01 coefficient for exchange
    Parameter  2 _cx10      =  2.590000e-01 : u^10 coefficient for exchange
    Parameter  3 _css00     =  4.430000e-01 : u^00 coefficient for same-spin correlation
    Parameter  4 _css04     = -1.437000e+00 : u^04 coefficient for same-spin correlation
    Parameter  5 _css10     = -4.535000e+00 : u^10 coefficient for same-spin correlation
    Parameter  6 _css20     = -3.390000e+00 : u^20 coefficient for same-spin correlation
    Parameter  7 _css43     =  4.278000e+00 : u^43 coefficient for same-spin correlation
    Parameter  8 _cos00     =  1.000000e+00 : u^00 coefficient for opposite-spin correlation
    Parameter  9 _cos10     =  1.358000e+00 : u^10 coefficient for opposite-spin correlation
    Parameter 10 _cos20     =  2.924000e+00 : u^20 coefficient for opposite-spin correlation
    Parameter 11 _cos21     = -8.812000e+00 : u^21 coefficient for opposite-spin correlation
    Parameter 12 _cos60     = -1.390000e+00 : u^60 coefficient for opposite-spin correlation
    Parameter 13 _cos61     =  9.142000e+00 : u^61 coefficient for opposite-spin correlation
    Parameter 14 _alpha     =  1.000000e+00 : fraction of HF exchange
    Parameter 15 _beta      = -8.500000e-01 : fraction of short-range exchange
    Parameter 16 _omega     =  3.000000e-01 : range-separation constant
 Long-range corrected/Screened/Range-Separated Hybrid DFT is turned on
   Amount of maximum screened exact exchange              ....  0.850000
   Range separation parameter mu (erf(mu*r12)/r12)        ....  0.300000
 RI-approximation to the Coulomb term is turned on
   Number of AuxJ basis functions       .... 1014
   RIJ-COSX (HFX calculated with COS-X)).... on


General Settings:
 Integral files         IntName         .... orca
 Hartree-Fock type      HFTyp           .... UHF
 Total Charge           Charge          ....    0
 Multiplicity           Mult            ....    3
 Number of Electrons    NEL             ....  132
 Basis Dimension        Dim             ....  882
 Nuclear Repulsion      ENuc            ....   1419.8335011210 Eh

Convergence Acceleration:
 AO-DIIS                CNVDIIS         .... on
   Start iteration      DIISMaxIt       ....    12
   Startup error        DIISStart       ....  0.200000
   # of expansion vecs  DIISMaxEq       ....     5
   Bias factor          DIISBfac        ....   1.050
   Max. coefficient     DIISMaxC        ....  10.000
 MO-DIIS                CNVKDIIS        .... off
 Trust-Rad. Augm. Hess. CNVTRAH         .... auto
   Auto Start mean grad. ratio tolernc. ....  1.125000
   Auto Start start iteration           ....    50
   Auto Start num. interpolation iter.  ....    10
   Max. Number of Micro iterations      ....    24
   Max. Number of Macro iterations      .... Maxiter - #DIIS iter
   Number of Davidson start vectors     ....     2
   Converg. threshold    (grad. norm)   ....   1.000e-05
   Grad. Scal. Fac. for Micro threshold ....   0.100
   Minimum threshold for Micro iter.    ....   1.000e-02
   NR start threshold (gradient norm)   ....   1.000e-04
   Initial trust radius                 ....   0.400
   Minimum AH scaling param. (alpha)    ....   1.000
   Maximum AH scaling param. (alpha)    .... 1000.000
   Quad. conv. algorithm                .... NR
   White noise on init. David. guess    .... on
   Maximum white noise                  ....   0.010
   Pseudo random numbers                .... off
   Inactive MOs                         .... canonical
   Orbital update algorithm             .... Taylor
   Preconditioner                       .... Diag
   Full preconditioner red. dimension   ....   250
 SOSCF                  CNVSOSCF        .... on
   Start iteration      SOSCFMaxIt      ....   150
   Startup grad/error   SOSCFStart      ....  0.003300
   Hessian update       SOSCFHessUp     .... L-BFGS
 Level Shifting         CNVShift        .... on
   Level shift para.    LevelShift      ....    0.2500
   Turn off err/grad.   ShiftErr        ....    0.0010
 Zerner damping         CNVZerner       .... off
 Static damping         CNVDamp         .... on
   Fraction old density DampFac         ....    0.7000
   Max. Damping (<1)    DampMax         ....    0.9800
   Min. Damping (>=0)   DampMin         ....    0.0000
   Turn off err/grad.   DampErr         ....    0.1000

SCF Procedure:
 Maximum # iterations   MaxIter         ....   125
 SCF integral mode      SCFMode         .... Direct
   Integral package                     .... SHARK and LIBINT hybrid scheme
 Reset frequency        DirectResetFreq ....    20
 Integral Threshold     Thresh          ....  1.000e-12 Eh
 Primitive CutOff       TCut            ....  1.000e-13 Eh

Convergence Tolerance:
 Convergence Check Mode ConvCheckMode   .... Total+1el-Energy
 Convergence forced     ConvForced      .... 1
 Energy Change          TolE            ....  1.000e-08 Eh
 1-El. energy change                    ....  1.000e-05 Eh
 Orbital Gradient       TolG            ....  1.000e-05
 Orbital Rotation angle TolX            ....  1.000e-05
 DIIS Error             TolErr          ....  5.000e-07

------------------------------
INITIAL GUESS: MODEL POTENTIAL
------------------------------
Loading Hartree-Fock densities                     ... done
Calculating cut-offs                               ... done
Initializing the effective Hamiltonian             ... done
Setting up the integral package (SHARK)            ... done
Starting the Coulomb interaction                   ... done (   0.1 sec)
Making the grid                                    ... done (   0.3 sec)
Mapping shells                                     ... done
Starting the XC term evaluation                    ... done (   0.1 sec)
  promolecular density results
     # of electrons  =    131.993676565
     EX              =   -113.593118861
     EC              =     -4.498990146
     EX+EC           =   -118.092109007
Transforming the Hamiltonian                       ... done (   0.1 sec)
Diagonalizing the Hamiltonian                      ... done (   0.1 sec)
Back transforming the eigenvectors                 ... done (   0.1 sec)
Now organizing SCF variables                       ... done
                      ------------------
                      INITIAL GUESS DONE (   1.1 sec)
                      ------------------
             **** ENERGY FILE WAS UPDATED (orca.en.tmp) ****
Finished Guess after   3.6 sec
Maximum memory used throughout the entire GUESS-calculation: 71.8 MB
[1739914543.869034] [ohm:501545:0]        ib_iface.c:1059 UCX  ERROR ibv_create_cq(cqe=256) failed: Connection timed out
[1739914543.885960] [ohm:501544:0]        ib_iface.c:1059 UCX  ERROR ibv_create_cq(cqe=256) failed: Connection timed out
[1739914543.911116] [ohm:501542:0]        ib_iface.c:1059 UCX  ERROR ibv_create_cq(cqe=256) failed: Connection timed out
[1739914543.952904] [ohm:501553:0]        ib_iface.c:1059 UCX  ERROR ibv_create_cq(cqe=256) failed: Connection timed out
[1739914543.957271] [ohm:501551:0]        ib_iface.c:1059 UCX  ERROR ibv_create_cq(cqe=256) failed: Connection timed out
[1739914543.966242] [ohm:501552:0]        ib_iface.c:1059 UCX  ERROR ibv_create_cq(cqe=256) failed: Connection timed out
[1739914543.972412] [ohm:501543:0]        ib_iface.c:1059 UCX  ERROR ibv_create_cq(cqe=256) failed: Connection timed out
[1739914543.979891] [ohm:501550:0]        ib_iface.c:1059 UCX  ERROR ibv_create_cq(cqe=256) failed: Connection timed out
[1739914543.987204] [ohm:501547:0]        ib_iface.c:1059 UCX  ERROR ibv_create_cq(cqe=256) failed: Connection timed out
[1739914544.022199] [ohm:501605:0]        ib_iface.c:1059 UCX  ERROR ibv_create_cq(cqe=256) failed: Connection timed out
[1739914544.027087] [ohm:501549:0]        ib_iface.c:1059 UCX  ERROR ibv_create_cq(cqe=256) failed: Connection timed out
[1739914544.028628] [ohm:501548:0]        ib_iface.c:1059 UCX  ERROR ibv_create_cq(cqe=256) failed: Connection timed out
[1739914544.030796] [ohm:501555:0]        ib_iface.c:1059 UCX  ERROR ibv_create_cq(cqe=256) failed: Connection timed out
[1739914544.031109] [ohm:501652:0]        ib_iface.c:1059 UCX  ERROR ibv_create_cq(cqe=256) failed: Connection timed out
[1739914544.034264] [ohm:501583:0]        ib_iface.c:1059 UCX  ERROR ibv_create_cq(cqe=256) failed: Connection timed out
[1739914544.038813] [ohm:501646:0]        ib_iface.c:1059 UCX  ERROR ibv_create_cq(cqe=256) failed: Connection timed out
[1739914544.039777] [ohm:501613:0]        ib_iface.c:1059 UCX  ERROR ibv_create_cq(cqe=256) failed: Connection timed out
[1739914544.047542] [ohm:501592:0]        ib_iface.c:1059 UCX  ERROR ibv_create_cq(cqe=256) failed: Connection timed out
[1739914544.048503] [ohm:501546:0]        ib_iface.c:1059 UCX  ERROR ibv_create_cq(cqe=256) failed: Connection timed out
[1739914544.049087] [ohm:501617:0]        ib_iface.c:1059 UCX  ERROR ibv_create_cq(cqe=256) failed: Connection timed out
[1739914544.061243] [ohm:501637:0]        ib_iface.c:1059 UCX  ERROR ibv_create_cq(cqe=256) failed: Connection timed out
[1739914544.104881] [ohm:501679:0]        ib_iface.c:1059 UCX  ERROR ibv_create_cq(cqe=256) failed: Connection timed out
[1739914544.108346] [ohm:501609:0]        ib_iface.c:1059 UCX  ERROR ibv_create_cq(cqe=256) failed: Connection timed out
[1739914544.108632] [ohm:501639:0]        ib_iface.c:1059 UCX  ERROR ibv_create_cq(cqe=256) failed: Connection timed out
[1739914544.129013] [ohm:501662:0]        ib_iface.c:1059 UCX  ERROR ibv_create_cq(cqe=256) failed: Connection timed out
[1739914544.134100] [ohm:501608:0]        ib_iface.c:1059 UCX  ERROR ibv_create_cq(cqe=256) failed: Connection timed out
[1739914544.141630] [ohm:501681:0]        ib_iface.c:1059 UCX  ERROR ibv_create_cq(cqe=256) failed: Connection timed out
[1739914544.144397] [ohm:501615:0]        ib_iface.c:1059 UCX  ERROR ibv_create_cq(cqe=256) failed: Connection timed out
[1739914544.146744] [ohm:501580:0]        ib_iface.c:1059 UCX  ERROR ibv_create_cq(cqe=256) failed: Connection timed out
[1739914544.155136] [ohm:501670:0]        ib_iface.c:1059 UCX  ERROR ibv_create_cq(cqe=256) failed: Connection timed out
[1739914544.156835] [ohm:501604:0]        ib_iface.c:1059 UCX  ERROR ibv_create_cq(cqe=256) failed: Connection timed out
[1739914544.165029] [ohm:501685:0]        ib_iface.c:1059 UCX  ERROR ibv_create_cq(cqe=256) failed: Connection timed out
[1739914544.177660] [ohm:501627:0]        ib_iface.c:1059 UCX  ERROR ibv_create_cq(cqe=256) failed: Connection timed out
[1739914544.180546] [ohm:501574:0]        ib_iface.c:1059 UCX  ERROR ibv_create_cq(cqe=256) failed: Connection timed out
[1739914544.184323] [ohm:501587:0]        ib_iface.c:1059 UCX  ERROR ibv_create_cq(cqe=256) failed: Connection timed out
[1739914544.184388] [ohm:501579:0]        ib_iface.c:1059 UCX  ERROR ibv_create_cq(cqe=256) failed: Connection timed out
[1739914544.186162] [ohm:501610:0]        ib_iface.c:1059 UCX  ERROR ibv_create_cq(cqe=256) failed: Connection timed out
[1739914544.188907] [ohm:501687:0]        ib_iface.c:1059 UCX  ERROR ibv_create_cq(cqe=256) failed: Connection timed out
[1739914544.190117] [ohm:501588:0]        ib_iface.c:1059 UCX  ERROR ibv_create_cq(cqe=256) failed: Connection timed out
[1739914544.190258] [ohm:501665:0]        ib_iface.c:1059 UCX  ERROR ibv_create_cq(cqe=256) failed: Connection timed out
[1739914544.193644] [ohm:501611:0]        ib_iface.c:1059 UCX  ERROR ibv_create_cq(cqe=256) failed: Connection timed out
[1739914544.195260] [ohm:501623:0]        ib_iface.c:1059 UCX  ERROR ibv_create_cq(cqe=256) failed: Connection timed out
[1739914544.196935] [ohm:501575:0]        ib_iface.c:1059 UCX  ERROR ibv_create_cq(cqe=256) failed: Connection timed out
[1739914544.197136] [ohm:501607:0]        ib_iface.c:1059 UCX  ERROR ibv_create_cq(cqe=256) failed: Connection timed out
[1739914544.199937] [ohm:501597:0]        ib_iface.c:1059 UCX  ERROR ibv_create_cq(cqe=256) failed: Connection timed out
[1739914544.199976] [ohm:501644:0]        ib_iface.c:1059 UCX  ERROR ibv_create_cq(cqe=256) failed: Connection timed out
[1739914544.208053] [ohm:501690:0]        ib_iface.c:1059 UCX  ERROR ibv_create_cq(cqe=256) failed: Connection timed out
[1739914544.223071] [ohm:501599:0]        ib_iface.c:1059 UCX  ERROR ibv_create_cq(cqe=256) failed: Connection timed out
[1739914544.223909] [ohm:501616:0]        ib_iface.c:1059 UCX  ERROR ibv_create_cq(cqe=256) failed: Connection timed out
[1739914544.224643] [ohm:501658:0]        ib_iface.c:1059 UCX  ERROR ibv_create_cq(cqe=256) failed: Connection timed out
[1739914544.226124] [ohm:501633:0]        ib_iface.c:1059 UCX  ERROR ibv_create_cq(cqe=256) failed: Connection timed out
[1739914544.231501] [ohm:501612:0]        ib_iface.c:1059 UCX  ERROR ibv_create_cq(cqe=256) failed: Connection timed out
[1739914544.231807] [ohm:501602:0]        ib_iface.c:1059 UCX  ERROR ibv_create_cq(cqe=256) failed: Connection timed out
[1739914544.232491] [ohm:501594:0]        ib_iface.c:1059 UCX  ERROR ibv_create_cq(cqe=256) failed: Connection timed out
[1739914544.232839] [ohm:501620:0]        ib_iface.c:1059 UCX  ERROR ibv_create_cq(cqe=256) failed: Connection timed out
[1739914544.237394] [ohm:501630:0]        ib_iface.c:1059 UCX  ERROR ibv_create_cq(cqe=256) failed: Connection timed out
[1739914544.242565] [ohm:501675:0]        ib_iface.c:1059 UCX  ERROR ibv_create_cq(cqe=256) failed: Connection timed out
[1739914544.243707] [ohm:501557:0]        ib_iface.c:1059 UCX  ERROR ibv_create_cq(cqe=256) failed: Connection timed out
[1739914544.244872] [ohm:501556:0]        ib_iface.c:1059 UCX  ERROR ibv_create_cq(cqe=256) failed: Connection timed out
[1739914544.245408] [ohm:501554:0]        ib_iface.c:1059 UCX  ERROR ibv_create_cq(cqe=256) failed: Connection timed out
[1739914544.245524] [ohm:501558:0]        ib_iface.c:1059 UCX  ERROR ibv_create_cq(cqe=256) failed: Connection timed out
[1739914544.248080] [ohm:501614:0]        ib_iface.c:1059 UCX  ERROR ibv_create_cq(cqe=256) failed: Connection timed out
[1739914544.248672] [ohm:501673:0]        ib_iface.c:1059 UCX  ERROR ibv_create_cq(cqe=256) failed: Connection timed out
[1739914544.250074] [ohm:501653:0]        ib_iface.c:1059 UCX  ERROR ibv_create_cq(cqe=256) failed: Connection timed out


           ************************************************************
           *        Program running with 64 parallel MPI-processes    *
           *              working on a common directory               *
           ************************************************************

-------------------------------------------------------------------------------------------
                                      ORCA LEAN-SCF
                              memory conserving SCF solver
-------------------------------------------------------------------------------------------

----------------------------------------D-I-I-S--------------------------------------------
Iteration    Energy (Eh)           Delta-E    RMSDP     MaxDP     DIISErr   Damp  Time(sec)
-------------------------------------------------------------------------------------------
               ***  Starting incremental Fock matrix formation  ***
    1    -908.1468993983185101     0.00e+00  1.85e-03  3.18e-01  1.46e-01  0.700   7.6
    2    -908.4144370947515199    -2.68e-01  1.44e-03  2.25e-01  6.91e-02  0.700   6.4
                               ***Turning on AO-DIIS***
    3    -908.5329685717388202    -1.19e-01  1.01e-03  1.43e-01  2.94e-02  0.700   5.6
    4    -908.6057512785846484    -7.28e-02  2.30e-03  3.14e-01  1.83e-02  0.000   5.5
    5    -908.7692176541422668    -1.63e-01  2.61e-04  7.57e-02  4.01e-03  0.000   5.7
                              *** Initializing SOSCF ***
---------------------------------------S-O-S-C-F--------------------------------------
Iteration    Energy (Eh)           Delta-E    RMSDP     MaxDP     MaxGrad    Time(sec)
--------------------------------------------------------------------------------------
    6    -908.7705118362428038    -1.29e-03  1.30e-04  3.68e-02  2.59e-03     6.4
               *** Restarting incremental Fock matrix formation ***
    7    -908.7710787556306968    -5.67e-04  2.91e-04  2.99e-02  4.97e-03     7.2
    8    -908.7714597824583507    -3.81e-04  2.48e-04  5.32e-02  2.70e-03     6.5
    9    -908.7715974718307734    -1.38e-04  1.55e-04  1.31e-02  9.35e-04     6.5
   10    -908.7716624360227797    -6.50e-05  3.03e-05  7.71e-03  4.33e-04     6.3
   11    -908.7716723385697151    -9.90e-06  9.92e-06  1.19e-03  1.63e-04     6.1
   12    -908.7716742773318401    -1.94e-06  6.02e-06  1.09e-03  1.56e-04     6.0
   13    -908.7716753308422994    -1.05e-06  4.93e-06  8.15e-04  3.46e-05     5.9
   14    -908.7716754714538183    -1.41e-07  1.61e-06  3.71e-04  2.17e-05     5.8
   15    -908.7716755210262818    -4.96e-08  1.46e-06  3.12e-04  9.23e-06     5.6
   16    -908.7716755346268656    -1.36e-08  9.16e-07  2.04e-04  3.69e-06     5.5
   17    -908.7716755895385177    -5.49e-08  1.68e-06  5.02e-04  2.45e-06     5.3
                  *** Gradient check signals convergence ***

               *****************************************************
               *                     SUCCESS                       *
               *           SCF CONVERGED AFTER  17 CYCLES          *
               *****************************************************

Recomputing exchange energy using gridx3       ... done (    7.948 sec)
Old exchange energy                            :    -35.059926766 Eh
New exchange energy                            :    -35.059922524 Eh
Exchange energy change after final integration :      0.000004242 Eh
Total energy after final integration           :   -908.771671347 Eh
             **** ENERGY FILE WAS UPDATED (orca.en.tmp) ****

----------------
TOTAL SCF ENERGY
----------------

Total Energy       :       -908.77167134730507 Eh          -24728.93437 eV

Components:
Nuclear Repulsion  :       1419.83350112104972 Eh           38635.63376 eV
Electronic Energy  :      -2328.60517671058824 Eh          -63364.56825 eV
One Electron Energy:      -4056.42965241383627 Eh         -110381.06251 eV
Two Electron Energy:       1727.82447570324825 Eh           47016.49426 eV

Virial components:
Potential Energy   :      -1814.79433544989888 Eh          -49383.06445 eV
Kinetic Energy     :        906.02266410259381 Eh           24654.13008 eV
Virial Ratio       :          2.00303414843097

DFT components:
N(Alpha)           :       67.000013956359 electrons
N(Beta)            :       64.999981300591 electrons
N(Total)           :      131.999995256950 electrons
E(XC)              :      -86.323450677751 Eh       

---------------
SCF CONVERGENCE
---------------

  Last Energy change         ...    5.4912e-08  Tolerance :   1.0000e-08
  Last MAX-Density change    ...    5.0233e-04  Tolerance :   1.0000e-07
  Last RMS-Density change    ...    1.6759e-06  Tolerance :   5.0000e-09
  Last DIIS Error            ...    2.5872e-03  Tolerance :   5.0000e-07
  Last Orbital Gradient      ...    2.4523e-06  Tolerance :   1.0000e-05
  Last Orbital Rotation      ...    1.2724e-05  Tolerance :   1.0000e-05


----------------------
UHF SPIN CONTAMINATION
----------------------

Warning: in a DFT calculation there is little theoretical justification to 
         calculate <S**2> as in Hartree-Fock theory. We will do it anyways
         but you should keep in mind that the values have only limited relevance

Expectation value of <S**2>     :     2.012932
Ideal value S*(S+1) for S=1.0   :     2.000000
Deviation                       :     0.012932

----------------
ORBITAL ENERGIES
----------------
                 SPIN UP ORBITALS
  NO   OCC          E(Eh)            E(eV) 
   0   1.0000     -19.338449      -526.2260 
   1   1.0000     -19.332038      -526.0515 
   2   1.0000     -19.323716      -525.8250 
   3   1.0000     -19.315747      -525.6082 
   4   1.0000     -14.566198      -396.3664 
   5   1.0000     -14.565478      -396.3468 
   6   1.0000     -14.562398      -396.2630 
   7   1.0000     -14.558733      -396.1633 
   8   1.0000     -10.509133      -285.9680 
   9   1.0000     -10.503202      -285.8067 
  10   1.0000     -10.484833      -285.3068 
  11   1.0000     -10.481409      -285.2136 
  12   1.0000     -10.447609      -284.2939 
  13   1.0000     -10.445465      -284.2356 
  14   1.0000     -10.420432      -283.5544 
  15   1.0000     -10.419396      -283.5262 
  16   1.0000     -10.374847      -282.3139 
  17   1.0000     -10.374593      -282.3070 
  18   1.0000      -1.223230       -33.2858 
  19   1.0000      -1.218485       -33.1567 
  20   1.0000      -1.200015       -32.6541 
  21   1.0000      -1.195467       -32.5303 
  22   1.0000      -1.122511       -30.5451 
  23   1.0000      -1.100454       -29.9449 
  24   1.0000      -1.069631       -29.1061 
  25   1.0000      -1.060490       -28.8574 
  26   1.0000      -0.989409       -26.9232 
  27   1.0000      -0.959208       -26.1014 
  28   1.0000      -0.897785       -24.4300 
  29   1.0000      -0.846824       -23.0433 
  30   1.0000      -0.832731       -22.6598 
  31   1.0000      -0.804619       -21.8948 
  32   1.0000      -0.789420       -21.4812 
  33   1.0000      -0.786107       -21.3911 
  34   1.0000      -0.705600       -19.2003 
  35   1.0000      -0.698538       -19.0082 
  36   1.0000      -0.695675       -18.9303 
  37   1.0000      -0.681153       -18.5351 
  38   1.0000      -0.655234       -17.8298 
  39   1.0000      -0.641260       -17.4496 
  40   1.0000      -0.628517       -17.1028 
  41   1.0000      -0.605397       -16.4737 
  42   1.0000      -0.598718       -16.2919 
  43   1.0000      -0.589631       -16.0447 
  44   1.0000      -0.579333       -15.7644 
  45   1.0000      -0.578179       -15.7330 
  46   1.0000      -0.568487       -15.4693 
  47   1.0000      -0.564034       -15.3482 
  48   1.0000      -0.560828       -15.2609 
  49   1.0000      -0.558453       -15.1963 
  50   1.0000      -0.552502       -15.0343 
  51   1.0000      -0.547136       -14.8883 
  52   1.0000      -0.533550       -14.5186 
  53   1.0000      -0.529120       -14.3981 
  54   1.0000      -0.517752       -14.0887 
  55   1.0000      -0.511469       -13.9178 
  56   1.0000      -0.498431       -13.5630 
  57   1.0000      -0.424418       -11.5490 
  58   1.0000      -0.422281       -11.4908 
  59   1.0000      -0.413244       -11.2449 
  60   1.0000      -0.405183       -11.0256 
  61   1.0000      -0.400823       -10.9070 
  62   1.0000      -0.394653       -10.7391 
  63   1.0000      -0.390130       -10.6160 
  64   1.0000      -0.383152       -10.4261 
  65   1.0000      -0.346329        -9.4241 
  66   1.0000      -0.335435        -9.1277 
  67   0.0000       0.007385         0.2009 
  68   0.0000       0.027835         0.7574 
  69   0.0000       0.032224         0.8768 
  70   0.0000       0.034342         0.9345 
  71   0.0000       0.054266         1.4767 
  72   0.0000       0.054607         1.4859 
  73   0.0000       0.059243         1.6121 
  74   0.0000       0.061765         1.6807 
  75   0.0000       0.063105         1.7172 
  76   0.0000       0.069015         1.8780 
  77   0.0000       0.075015         2.0413 

                 SPIN DOWN ORBITALS
  NO   OCC          E(Eh)            E(eV) 
   0   1.0000     -19.334685      -526.1235 
   1   1.0000     -19.327919      -525.9394 
   2   1.0000     -19.323435      -525.8174 
   3   1.0000     -19.315730      -525.6077 
   4   1.0000     -14.565333      -396.3429 
   5   1.0000     -14.565207      -396.3394 
   6   1.0000     -14.561629      -396.2421 
   7   1.0000     -14.558755      -396.1639 
   8   1.0000     -10.509147      -285.9684 
   9   1.0000     -10.503250      -285.8080 
  10   1.0000     -10.485846      -285.3344 
  11   1.0000     -10.482417      -285.2411 
  12   1.0000     -10.447821      -284.2997 
  13   1.0000     -10.444999      -284.2229 
  14   1.0000     -10.409045      -283.2445 
  15   1.0000     -10.407339      -283.1981 
  16   1.0000     -10.375432      -282.3299 
  17   1.0000     -10.375143      -282.3220 
  18   1.0000      -1.221320       -33.2338 
  19   1.0000      -1.216852       -33.1122 
  20   1.0000      -1.195732       -32.5375 
  21   1.0000      -1.190738       -32.4016 
  22   1.0000      -1.119820       -30.4718 
  23   1.0000      -1.098336       -29.8872 
  24   1.0000      -1.067782       -29.0558 
  25   1.0000      -1.058889       -28.8138 
  26   1.0000      -0.977029       -26.5863 
  27   1.0000      -0.942102       -25.6359 
  28   1.0000      -0.892241       -24.2791 
  29   1.0000      -0.841406       -22.8958 
  30   1.0000      -0.823620       -22.4119 
  31   1.0000      -0.799681       -21.7604 
  32   1.0000      -0.787614       -21.4321 
  33   1.0000      -0.784711       -21.3531 
  34   1.0000      -0.701636       -19.0925 
  35   1.0000      -0.691036       -18.8040 
  36   1.0000      -0.689222       -18.7547 
  37   1.0000      -0.672954       -18.3120 
  38   1.0000      -0.643628       -17.5140 
  39   1.0000      -0.636851       -17.3296 
  40   1.0000      -0.624915       -17.0048 
  41   1.0000      -0.600380       -16.3372 
  42   1.0000      -0.591815       -16.1041 
  43   1.0000      -0.583936       -15.8897 
  44   1.0000      -0.572332       -15.5740 
  45   1.0000      -0.568938       -15.4816 
  46   1.0000      -0.563860       -15.3434 
  47   1.0000      -0.561523       -15.2798 
  48   1.0000      -0.554119       -15.0783 
  49   1.0000      -0.549122       -14.9424 
  50   1.0000      -0.546200       -14.8629 
  51   1.0000      -0.538229       -14.6460 
  52   1.0000      -0.528035       -14.3686 
  53   1.0000      -0.518476       -14.1085 
  54   1.0000      -0.512230       -13.9385 
  55   1.0000      -0.504218       -13.7205 
  56   1.0000      -0.492355       -13.3977 
  57   1.0000      -0.419793       -11.4231 
  58   1.0000      -0.418663       -11.3924 
  59   1.0000      -0.407802       -11.0969 
  60   1.0000      -0.393146       -10.6981 
  61   1.0000      -0.390723       -10.6321 
  62   1.0000      -0.390223       -10.6185 
  63   1.0000      -0.386186       -10.5087 
  64   1.0000      -0.375898       -10.2287 
  65   0.0000      -0.064974        -1.7680 
  66   0.0000      -0.046892        -1.2760 
  67   0.0000       0.006814         0.1854 
  68   0.0000       0.027626         0.7517 
  69   0.0000       0.031920         0.8686 
  70   0.0000       0.034162         0.9296 
  71   0.0000       0.054392         1.4801 
  72   0.0000       0.055641         1.5141 
  73   0.0000       0.061246         1.6666 
  74   0.0000       0.062460         1.6996 
  75   0.0000       0.065399         1.7796 
*Only the first 10 virtual orbitals were printed.

                    ********************************
                    * MULLIKEN POPULATION ANALYSIS *
                    ********************************

--------------------------------------------
MULLIKEN ATOMIC CHARGES AND SPIN POPULATIONS
--------------------------------------------
   0 O :   -0.669360    0.151188
   1 O :   -0.646269    0.133149
   2 O :   -0.663001    0.000713
   3 O :   -0.655467    0.009675
   4 N :   -0.162054    0.019919
   5 N :   -0.301327    0.030272
   6 N :   -0.066412    0.029977
   7 N :    0.040877    0.011993
   8 C :    0.000528    0.417565
   9 C :    0.059996    0.425226
  10 C :    0.460271    0.123012
  11 C :    0.676543    0.181445
  12 C :   -1.670283   -0.001954
  13 C :   -1.525091    0.013985
  14 C :    0.846312    0.156355
  15 C :    0.296625    0.145769
  16 C :    0.485612    0.000535
  17 C :    0.340877   -0.004541
  18 H :    0.419407    0.038079
  19 H :    0.615872    0.030543
  20 H :    0.372876    0.012092
  21 H :    0.254944    0.028177
  22 H :    0.355160    0.000600
  23 H :    0.345907    0.022974
  24 H :    0.217953    0.009770
  25 H :    0.387290    0.014171
  26 H :    0.007207   -0.000018
  27 H :    0.090260    0.002282
  28 H :    0.037623   -0.002736
  29 H :    0.047125   -0.000219
Sum of atomic charges         :    0.0000000
Sum of atomic spin populations:    2.0000000

-----------------------------------------------------
MULLIKEN REDUCED ORBITAL CHARGES AND SPIN POPULATIONS
-----------------------------------------------------
CHARGE
  0 O s       :     4.084028  s :     4.084028
      pz      :     1.626363  p :     4.551527
      px      :     1.343859
      py      :     1.581306
      dz2     :     0.002886  d :     0.031920
      dxz     :     0.007153
      dyz     :     0.002730
      dx2y2   :     0.010074
      dxy     :     0.009077
      f0      :     0.000211  f :     0.001885
      f+1     :     0.000238
      f-1     :     0.000089
      f+2     :     0.000126
      f-2     :     0.000266
      f+3     :     0.000530
      f-3     :     0.000425

  1 O s       :     4.086614  s :     4.086614
      pz      :     1.326412  p :     4.525928
[...]
[1739914792.637731] [ohm:503819:0]        ib_iface.c:1059 UCX  ERROR ibv_create_cq(cqe=256) failed: Connection timed out
[1739914792.638605] [ohm:503884:0]        ib_iface.c:1059 UCX  ERROR ibv_create_cq(cqe=256) failed: Connection timed out
[1739914792.640890] [ohm:503912:0]        ib_iface.c:1059 UCX  ERROR ibv_create_cq(cqe=256) failed: Connection timed out
[1739914792.640974] [ohm:503902:0]        ib_iface.c:1059 UCX  ERROR ibv_create_cq(cqe=256) failed: Connection timed out
[1739914792.641910] [ohm:503861:0]        ib_iface.c:1059 UCX  ERROR ibv_create_cq(cqe=256) failed: Connection timed out
[1739914792.643030] [ohm:503921:0]        ib_iface.c:1059 UCX  ERROR ibv_create_cq(cqe=256) failed: Connection timed out
[1739914792.645666] [ohm:503889:0]        ib_iface.c:1059 UCX  ERROR ibv_create_cq(cqe=256) failed: Connection timed out
[1739914792.645759] [ohm:503832:0]        ib_iface.c:1059 UCX  ERROR ibv_create_cq(cqe=256) failed: Connection timed out
[1739914792.646772] [ohm:503851:0]        ib_iface.c:1059 UCX  ERROR ibv_create_cq(cqe=256) failed: Connection timed out
[1739914792.647598] [ohm:503943:0]        ib_iface.c:1059 UCX  ERROR ibv_create_cq(cqe=256) failed: Connection timed out
[1739914792.649358] [ohm:503840:0]        ib_iface.c:1059 UCX  ERROR ibv_create_cq(cqe=256) failed: Connection timed out


           ************************************************************
           *        Program running with 64 parallel MPI-processes    *
           *              working on a common directory               *
           ************************************************************

------------------------------------------------------------------------------
                              ORCA PROPERTY CALCULATIONS
------------------------------------------------------------------------------

GBWName                                 ... orca.gbw
Number of atoms                         ...     30
Number of basis functions               ...    882
Max core memory                         ...   1024 MB

Electric properties:
Dipole moment                           ... YES
Quadrupole moment                       ...  NO
Static polarizability (Dipole/Dipole)   ...  NO
Static polarizability (Dipole/Quad.)    ...  NO
Static polarizability (Quad./Quad.)     ...  NO
Static polarizability (Velocity)        ...  NO

Atomic electric properties:
Dipole moment                           ...  NO
Quadrupole moment                       ...  NO
Static polarizability                   ...  NO

Choice of electric origin               ... Center of mass
Position of electric origin             ...     0.021065    -0.033547     0.049191

General magnetic properties:
Magnetizability                         ...  NO

EPR properties:
g-Tensor (aka g-matrix)                 ...  NO
Zero-Field splitting spin-orbit         ...  NO
Zero-field splitting spin-spin          ...  NO
Hyperfine couplings                     ...  NO (   0 nuclei)
Quadrupole couplings                    ...  NO (   0 nuclei)
Contact density                         ...  NO (   0 nuclei)

NMR properties:
Chemical shifts                         ...  NO (   0 nuclei)
Spin-rotation constants                 ...  NO (   0 nuclei)
Spin-spin couplings                     ...  NO (   0 nuclei,    0 pairs)

Choice of magnetic origin               ... GIAO
Position of magnetic origin             ...     0.000000     0.000000     0.000000

Properties with geometric perturbations:
SCF Hessian                             ...  NO
IR spectrum                             ...  NO
VCD spectrum                            ...  NO
X-ray spectroscopy properties:
SCF XES/XAS/RIXS spectra                ...  NO


-------------
DIPOLE MOMENT
-------------

Method             : SCF
Type of density    : Electron Density
Multiplicity       :   3
Irrep              :   0
Energy             :  -908.7716713473050731 Eh
Relativity type    : 
Basis              : AO
                                X                 Y                 Z
Electronic contribution:     -1.835255832      -9.888006793      -6.611647705
Nuclear contribution   :      1.792536404      11.336157010       8.921297750
                        -----------------------------------------
Total Dipole Moment    :     -0.042719428       1.448150217       2.309650046
                        -----------------------------------------
Magnitude (a.u.)       :      2.726434913
Magnitude (Debye)      :      6.930046808



--------------------
Rotational spectrum 
--------------------
 
Rotational constants in cm-1:             0.020204             0.012430             0.010738 
Rotational constants in MHz :           605.693760           372.645621           321.915237 

Dipole components along the rotational axes: 
x,y,z [a.u.] :     0.072495    -2.009736     1.840965 
x,y,z [Debye]:     0.184267    -5.108343     4.679362 

 

-------------
DIPOLE MOMENT
-------------

Method             : TDA/CIS
Type of density    : Electron Density
Level              : Relaxed density
State              :   2
Multiplicity       :   3
Irrep              :   0
Energy             :     0.0000000000000000 Eh
Relativity type    : 
Basis              : AO
                                X                 Y                 Z
Electronic contribution:     -1.871323943      -9.801869257      -6.519012553
Nuclear contribution   :      1.792536404      11.336157010       8.921297750
                        -----------------------------------------
Total Dipole Moment    :     -0.078787540       1.534287752       2.402285197
                        -----------------------------------------
Magnitude (a.u.)       :      2.851529511
Magnitude (Debye)      :      7.248012008



--------------------
Rotational spectrum 
--------------------
 
Rotational constants in cm-1:             0.020204             0.012430             0.010738 
Rotational constants in MHz :           605.693760           372.645621           321.915237 

Dipole components along the rotational axes: 
x,y,z [a.u.] :     0.039664    -2.116297     1.910742 
x,y,z [Debye]:     0.100818    -5.379200     4.856720 

 

Dipole moment calculation done in   0.2 sec 

Maximum memory used throughout the entire PROP-calculation: 81.0 MB
[1739914794.972171] [ohm:504161:0]        ib_iface.c:1059 UCX  ERROR ibv_create_cq(cqe=256) failed: Connection timed out
[1739914794.982596] [ohm:504165:0]        ib_iface.c:1059 UCX  ERROR ibv_create_cq(cqe=256) failed: Connection timed out
[1739914795.000686] [ohm:504160:0]        ib_iface.c:1059 UCX  ERROR ibv_create_cq(cqe=256) failed: Connection timed out
[1739914795.014733] [ohm:504175:0]        ib_iface.c:1059 UCX  ERROR ibv_create_cq(cqe=256) failed: Connection timed out
[1739914795.019275] [ohm:504179:0]        ib_iface.c:1059 UCX  ERROR ibv_create_cq(cqe=256) failed: Connection timed out
[1739914795.031986] [ohm:504163:0]        ib_iface.c:1059 UCX  ERROR ibv_create_cq(cqe=256) failed: Connection timed out
[1739914795.060595] [ohm:504172:0]        ib_iface.c:1059 UCX  ERROR ibv_create_cq(cqe=256) failed: Connection timed out
[1739914795.066441] [ohm:504203:0]        ib_iface.c:1059 UCX  ERROR ibv_create_cq(cqe=256) failed: Connection timed out
[1739914795.071840] [ohm:504192:0]        ib_iface.c:1059 UCX  ERROR ibv_create_cq(cqe=256) failed: Connection timed out
[1739914795.074025] [ohm:504215:0]        ib_iface.c:1059 UCX  ERROR ibv_create_cq(cqe=256) failed: Connection timed out
[1739914795.076204] [ohm:504167:0]        ib_iface.c:1059 UCX  ERROR ibv_create_cq(cqe=256) failed: Connection timed out
[1739914795.080705] [ohm:504162:0]        ib_iface.c:1059 UCX  ERROR ibv_create_cq(cqe=256) failed: Connection timed out
[1739914795.084849] [ohm:504177:0]        ib_iface.c:1059 UCX  ERROR ibv_create_cq(cqe=256) failed: Connection timed out
[1739914795.087306] [ohm:504199:0]        ib_iface.c:1059 UCX  ERROR ibv_create_cq(cqe=256) failed: Connection timed out
[1739914795.089284] [ohm:504205:0]        ib_iface.c:1059 UCX  ERROR ibv_create_cq(cqe=256) failed: Connection timed out
[1739914795.089335] [ohm:504210:0]        ib_iface.c:1059 UCX  ERROR ibv_create_cq(cqe=256) failed: Connection timed out
[1739914795.125370] [ohm:504190:0]        ib_iface.c:1059 UCX  ERROR ibv_create_cq(cqe=256) failed: Connection timed out
[1739914795.127912] [ohm:504182:0]        ib_iface.c:1059 UCX  ERROR ibv_create_cq(cqe=256) failed: Connection timed out
[1739914795.164633] [ohm:504184:0]        ib_iface.c:1059 UCX  ERROR ibv_create_cq(cqe=256) failed: Connection timed out
[1739914795.169919] [ohm:504168:0]        ib_iface.c:1059 UCX  ERROR ibv_create_cq(cqe=256) failed: Connection timed out
[1739914795.173207] [ohm:504302:0]        ib_iface.c:1059 UCX  ERROR ibv_create_cq(cqe=256) failed: Connection timed out
[1739914795.192133] [ohm:504226:0]        ib_iface.c:1059 UCX  ERROR ibv_create_cq(cqe=256) failed: Connection timed out
[1739914795.195737] [ohm:504209:0]        ib_iface.c:1059 UCX  ERROR ibv_create_cq(cqe=256) failed: Connection timed out
[1739914795.200295] [ohm:504178:0]        ib_iface.c:1059 UCX  ERROR ibv_create_cq(cqe=256) failed: Connection timed out
[1739914795.201875] [ohm:504170:0]        ib_iface.c:1059 UCX  ERROR ibv_create_cq(cqe=256) failed: Connection timed out
[1739914795.206168] [ohm:504239:0]        ib_iface.c:1059 UCX  ERROR ibv_create_cq(cqe=256) failed: Connection timed out
[1739914795.208330] [ohm:504176:0]        ib_iface.c:1059 UCX  ERROR ibv_create_cq(cqe=256) failed: Connection timed out
[1739914795.211077] [ohm:504174:0]        ib_iface.c:1059 UCX  ERROR ibv_create_cq(cqe=256) failed: Connection timed out
[1739914795.211175] [ohm:504218:0]        ib_iface.c:1059 UCX  ERROR ibv_create_cq(cqe=256) failed: Connection timed out
[1739914795.214256] [ohm:504293:0]        ib_iface.c:1059 UCX  ERROR ibv_create_cq(cqe=256) failed: Connection timed out
[1739914795.215018] [ohm:504286:0]        ib_iface.c:1059 UCX  ERROR ibv_create_cq(cqe=256) failed: Connection timed out
[1739914795.221485] [ohm:504166:0]        ib_iface.c:1059 UCX  ERROR ibv_create_cq(cqe=256) failed: Connection timed out
[1739914795.227048] [ohm:504229:0]        ib_iface.c:1059 UCX  ERROR ibv_create_cq(cqe=256) failed: Connection timed out
[1739914795.233443] [ohm:504181:0]        ib_iface.c:1059 UCX  ERROR ibv_create_cq(cqe=256) failed: Connection timed out
[1739914795.233691] [ohm:504277:0]        ib_iface.c:1059 UCX  ERROR ibv_create_cq(cqe=256) failed: Connection timed out
[1739914795.247079] [ohm:504183:0]        ib_iface.c:1059 UCX  ERROR ibv_create_cq(cqe=256) failed: Connection timed out
[1739914795.247458] [ohm:504216:0]        ib_iface.c:1059 UCX  ERROR ibv_create_cq(cqe=256) failed: Connection timed out
[1739914795.249888] [ohm:504211:0]        ib_iface.c:1059 UCX  ERROR ibv_create_cq(cqe=256) failed: Connection timed out
[1739914795.250040] [ohm:504164:0]        ib_iface.c:1059 UCX  ERROR ibv_create_cq(cqe=256) failed: Connection timed out
[1739914795.268761] [ohm:504169:0]        ib_iface.c:1059 UCX  ERROR ibv_create_cq(cqe=256) failed: Connection timed out
[1739914795.271995] [ohm:504251:0]        ib_iface.c:1059 UCX  ERROR ibv_create_cq(cqe=256) failed: Connection timed out
[1739914795.272895] [ohm:504236:0]        ib_iface.c:1059 UCX  ERROR ibv_create_cq(cqe=256) failed: Connection timed out
[1739914795.274650] [ohm:504246:0]        ib_iface.c:1059 UCX  ERROR ibv_create_cq(cqe=256) failed: Connection timed out
[1739914795.281547] [ohm:504300:0]        ib_iface.c:1059 UCX  ERROR ibv_create_cq(cqe=256) failed: Connection timed out
[1739914795.282446] [ohm:504263:0]        ib_iface.c:1059 UCX  ERROR ibv_create_cq(cqe=256) failed: Connection timed out
[1739914795.283417] [ohm:504253:0]        ib_iface.c:1059 UCX  ERROR ibv_create_cq(cqe=256) failed: Connection timed out
[1739914795.283751] [ohm:504283:0]        ib_iface.c:1059 UCX  ERROR ibv_create_cq(cqe=256) failed: Connection timed out
[1739914795.285038] [ohm:504222:0]        ib_iface.c:1059 UCX  ERROR ibv_create_cq(cqe=256) failed: Connection timed out
[1739914795.287819] [ohm:504195:0]        ib_iface.c:1059 UCX  ERROR ibv_create_cq(cqe=256) failed: Connection timed out
[1739914795.300264] [ohm:504262:0]        ib_iface.c:1059 UCX  ERROR ibv_create_cq(cqe=256) failed: Connection timed out
[1739914795.308038] [ohm:504269:0]        ib_iface.c:1059 UCX  ERROR ibv_create_cq(cqe=256) failed: Connection timed out
[1739914795.310591] [ohm:504244:0]        ib_iface.c:1059 UCX  ERROR ibv_create_cq(cqe=256) failed: Connection timed out
[1739914795.313738] [ohm:504180:0]        ib_iface.c:1059 UCX  ERROR ibv_create_cq(cqe=256) failed: Connection timed out
[1739914795.317653] [ohm:504278:0]        ib_iface.c:1059 UCX  ERROR ibv_create_cq(cqe=256) failed: Connection timed out
[1739914795.318933] [ohm:504296:0]        ib_iface.c:1059 UCX  ERROR ibv_create_cq(cqe=256) failed: Connection timed out
[1739914795.318936] [ohm:504310:0]        ib_iface.c:1059 UCX  ERROR ibv_create_cq(cqe=256) failed: Connection timed out
[1739914795.318968] [ohm:504258:0]        ib_iface.c:1059 UCX  ERROR ibv_create_cq(cqe=256) failed: Connection timed out
[1739914795.320603] [ohm:504171:0]        ib_iface.c:1059 UCX  ERROR ibv_create_cq(cqe=256) failed: Connection timed out
[1739914795.323072] [ohm:504307:0]        ib_iface.c:1059 UCX  ERROR ibv_create_cq(cqe=256) failed: Connection timed out
[1739914795.324236] [ohm:504249:0]        ib_iface.c:1059 UCX  ERROR ibv_create_cq(cqe=256) failed: Connection timed out
[1739914795.325281] [ohm:504257:0]        ib_iface.c:1059 UCX  ERROR ibv_create_cq(cqe=256) failed: Connection timed out
[1739914795.325673] [ohm:504204:0]        ib_iface.c:1059 UCX  ERROR ibv_create_cq(cqe=256) failed: Connection timed out
[1739914795.326544] [ohm:504173:0]        ib_iface.c:1059 UCX  ERROR ibv_create_cq(cqe=256) failed: Connection timed out
[1739914795.327348] [ohm:504270:0]        ib_iface.c:1059 UCX  ERROR ibv_create_cq(cqe=256) failed: Connection timed out

--------------------------------
SUGGESTED CITATIONS FOR THIS RUN
--------------------------------

Below you find a list of papers that are relevant to this ORCA run
We neither can nor want to force you to cite these papers, but we appreciate if you do
You receive ORCA, which is the product of decades of hard work by many enthusiastic individuals, for free
The only thing we kindly ask in return is that you cite our papers,
We deeply appreciate it, if you show your appreciation for ORCA by not just citing the generic ORCA reference.

Please note that relegating all ORCA citations to the supporting information does *not* help us.
SI sections are not indexed - citations you put there will not count into any citation statistics
But we need these citations in order to attract the funding resources that allow us to do what we are doing

Therefore, if you are a happy ORCA user, please consider citing a few of the papers listed below in the main body of your paper

In addition to the list printed below, the program has created the file orca.bibtex that contains the list in bibtex format
You can import this file easily into all common literature databanks and citation aid programs


List of essential papers. We consider these as the minimum necessary citations

  1. Neese,F.
     Software update: the ORCA program system, version 5.0
     WIRES Comput. Molec. Sci., 2022 12(1)e1606
     doi.org/10.1002/wcms.1606

List of papers to cite with high priority. The work reported in these papers was absolutely
necessary for this run to complete.
Our perspective: the developers of density functionals and basis sets usually get cited in chemistry papers
Good! But without the algorithms to do something with them, the functionals or basis sets would not do anything.
Hence, in our opinion, the algorithm design and method developments papers are equally worthy of getting cited

  1. Neese,F.; Olbrich,G.
     Efficient use of the resolution of the identity approximation in time-dependent density functional calculations with hybrid density functionals
     Chem. Phys. Lett., 2002 362 170-178
     doi.org/10.1016/s0009-2614(02)01053-9
  2. Neese,F.
     An improvement of the resolution of the identity approximation for the formation of the Coulomb matrix
     J. Comp. Chem., 2003 24(14)1740-1747
     doi.org/10.1002/jcc.10318
  3. Neese,F.; Wennmohs,F.; Hansen,A.; Becker,U.
     Efficient, approximate and parallel Hartree-Fock and hybrid DFT calculations. A 'chain-of-spheres' algorithm for the Hartree-Fock exchange
     Chem. Phys., 2009 356(1-3)98-109
     doi.org/10.1016/j.chemphys.2008.10.036
  4. Petrenko,T.; Kossmann,S.; Neese,F.
     Efficient time-dependent density functional theory approximations for hybrid density functionals: Analytical gradients and parallelization
     J. Chem. Phys., 2011 134 054116
     doi.org/10.1063/1.3533441
  5. Helmich-Paris,B.; de Souza,B.; Neese,F.; Izsák,R.
     An improved chain of spheres for exchange algorithm
     J. Chem. Phys., 2021 155 104109
     doi.org/doi: 10.1063/5.0058766.
  6. Neese,F.
     The SHARK Integral Generation and Digestion System
     J. Comp. Chem., 2022  1-16
     doi.org/10.1002/jcc.26942
  7. Lehtola,S.; Steigemann,C.; Oliveira,M.; Marques,M.
     Recent developments in Libxc - A comprehensive library of functionals for density functional theory
     Software X, 2018 7 
     doi.org/10.1016/j.softx.2017.11.002
  8. Grimme,S.; Antony,J.; Ehrlich,S.; Krieg,H.
     A consistent and accurate ab initio parametrization of density functional dispersion correction (DFT-D) for the 94 elements H-Pu
     J. Chem. Phys., 2010 132 154104-XXXX
     doi.org/10.1063/1.3382344
  9. Grimme,S.; Ehrlich,S.; Goerigk,L.
     Effect of the damping function in dispersion corrected density functional theory
     J. Comput. Chem., 2011 32(7)1456-1465
     doi.org/10.1002/jcc.21759

List of suggested additional citations. These are papers that are important in the 'surrounding' of 
of this run, or papers that preceded the highly important papers. If you like your results we are grateful for a citation.

  1. Izsak,R.; Neese,F.
     An overlap fitted chain of spheres exchange method
     J. Chem. Phys., 2011 135 144105
     doi.org/10.1063/1.3646921
  2. Izsak,R.; Hansen,A.; Neese,F.
     The resolution of identity and chain of spheres approximations for the LPNO-CCSD singles Fock term
     Molec. Phys., 2012 110 2413-2417
     doi.org/10.1080/00268976.2012.687466
  3. Neese,F.
     The ORCA program system
     WIRES Comput. Molec. Sci., 2012 2(1)73-78
     doi.org/10.1002/wcms.81
  4. Izsak,R.; Neese,F.; Klopper,W.
     Robust fitting techniques in the chain of spheres approximation to the Fock exchange: The role of the complementary space
     J. Chem. Phys., 2013 139 
     doi.org/10.1063/1.4819264
  5. Neese,F.
     Software update: the ORCA program system, version 4.0
     WIRES Comput. Molec. Sci., 2018 8(1)1-6
     doi.org/10.1002/wcms.1327
  6. Neese,F.; Wennmohs,F.; Becker,U.; Riplinger,C.
     The ORCA quantum chemistry program package
     J. Chem. Phys., 2020 152 Art. No. L224108
     doi.org/10.1063/5.0004608

List of optional additional citations

  1. Neese,F.
     Approximate second-order SCF convergence for spin unrestricted wavefunctions
     Chem. Phys. Lett., 2000 325(1-3)93-98
     doi.org/10.1016/s0009-2614(00)00662-x

Timings for individual modules:

Sum of individual times          ...      261.540 sec (=   4.359 min)
Startup calculation              ...        6.286 sec (=   0.105 min)   2.4 %
SCF iterations                   ...      121.542 sec (=   2.026 min)  46.5 %
Property integrals               ...        4.330 sec (=   0.072 min)   1.7 %
Property calculations            ...        2.763 sec (=   0.046 min)   1.1 %
CIS module                       ...      126.620 sec (=   2.110 min)  48.4 %
                             ****ORCA TERMINATED NORMALLY****
TOTAL RUN TIME: 0 days 0 hours 4 minutes 23 seconds 530 msec
