
                                 *****************
                                 * O   R   C   A *
                                 *****************

                                            #,                                       
                                            ###                                      
                                            ####                                     
                                            #####                                    
                                            ######                                   
                                           ########,                                 
                                     ,,################,,,,,                         
                               ,,#################################,,                 
                          ,,##########################################,,             
                       ,#########################################, ''#####,          
                    ,#############################################,,   '####,        
                  ,##################################################,,,,####,       
                ,###########''''           ''''###############################       
              ,#####''   ,,,,##########,,,,          '''####'''          '####       
            ,##' ,,,,###########################,,,                        '##       
           ' ,,###''''                  '''############,,,                           
         ,,##''                                '''############,,,,        ,,,,,,###''
      ,#''                                            '''#######################'''  
     '                                                          ''''####''''         
             ,#######,   #######,   ,#######,      ##                                
            ,#'     '#,  ##    ##  ,#'     '#,    #''#        ,####,   ,####,        
            ##       ##  ##   ,#'  ##            #'  '#       #'       #'  '#        
            ##       ##  #######   ##           ,######,      #####,   #    #        
            '#,     ,#'  ##    ##  '#,     ,#' ,#      #,     #,   #   #,  ,#        
             '#######'   ##     ##  '#######'  #'      '#     '####' # '####'        



                #########################################################
                #                        -***-                          #
                #          Department of theory and spectroscopy        #
                #                                                       #
                #                      Frank Neese                      #
                #                                                       #
                #     Directorship, Architecture, Infrastructure        #
                #                    SHARK, DRIVERS                     #
                #        Core code/Algorithms in most modules           #
                #                                                       #
                #        Max Planck Institute fuer Kohlenforschung      #
                #                Kaiser Wilhelm Platz 1                 #
                #                 D-45470 Muelheim/Ruhr                 #
                #                      Germany                          #
                #                                                       #
                #                  All rights reserved                  #
                #                        -***-                          #
                #########################################################


                         Program Version 6.0.0  -   RELEASE  -


 With contributions from (in alphabetic order):
   Daniel Aravena         : Magnetic Suceptibility
   Michael Atanasov       : Ab Initio Ligand Field Theory (pilot matlab implementation)
   Alexander A. Auer      : GIAO ZORA, VPT2 properties, NMR spectrum
   Ute Becker             : All parallelization in ORCA, NUMFREQ, NUMCALC
   Giovanni Bistoni       : ED, misc. LED, open-shell LED, HFLD
   Martin Brehm           : Molecular dynamics
   Dmytro Bykov           : pre 5.0 version of the SCF Hessian
   Marcos Casanova-Páez   : Triplet and SCS-CIS(D). UHF-(DLPNO)-IP/EA/STEOM-CCSD. UHF-CVS-IP/STEOM-CCSD
   Vijay G. Chilkuri      : MRCI spin determinant printing, contributions to CSF-ICE
   Pauline Colinet        : FMM embedding
   Dipayan Datta          : RHF DLPNO-CCSD density
   Achintya Kumar Dutta   : EOM-CC, STEOM-CC
   Nicolas Foglia         : Exact transition moments, OPA infrastructure, MCD improvements
   Dmitry Ganyushin       : Spin-Orbit,Spin-Spin,Magnetic field MRCI
   Miquel Garcia          : C-PCM and meta-GGA Hessian, CCSD/C-PCM, Gaussian charge scheme
   Tiago L. C. Gouveia    : GS-ROHF, GS-ROCIS
   Yang Guo               : DLPNO-NEVPT2, F12-NEVPT2, CIM, IAO-localization
   Andreas Hansen         : Spin unrestricted coupled pair/coupled cluster methods
   Ingolf Harden          : AUTO-CI MPn and infrastructure 
   Benjamin Helmich-Paris : MC-RPA, TRAH-(SCF,CASSCF), AVAS, COSX integrals, SCF dyn. polar.
   Lee Huntington         : MR-EOM, pCC
   Robert Izsak           : Overlap fitted RIJCOSX, COSX-SCS-MP3, EOM
   Riya Kayal             : Wick's Theorem for AUTO-CI, AUTO-CI UHF-CCSDT
   Emily Kempfer          : AUTO-CI, RHF CISDT and CCSDT
   Christian Kollmar      : KDIIS, OOCD, Brueckner-CCSD(T), CCSD density, CASPT2, CASPT2-K, improved NEVPT2
   Axel Koslowski         : Symmetry handling
   Simone Kossmann        : Meta GGA functionals, TD-DFT gradient, OOMP2, (MP2 Hessian; deprecated post 5.0)
   Lucas Lang             : DCDCAS
   Marvin Lechner         : AUTO-CI (C++ implementation), FIC-MRCC
   Spencer Leger          : CASSCF response
   Dagmar Lenk            : GEPOL surface, SMD, ORCA-2-JSON
   Dimitrios Liakos       : Extrapolation schemes; Compound Job, initial MDCI parallelization
   Dimitrios Manganas     : Further ROCIS development; embedding schemes. LFT, Crystal Embedding
   Dimitrios Pantazis     : SARC Basis sets
   Anastasios Papadopoulos: AUTO-CI, single reference methods and gradients
   Taras Petrenko         : pre 6.0 DFT Hessian and TD-DFT gradient, (ASA, deprecated), ECA, 1-Electron XAS/XES, NRVS
   Peter Pinski           : DLPNO-MP2, DLPNO-MP2 Gradient
   Christoph Reimann      : Effective Core Potentials
   Marius Retegan         : Local ZFS, SOC
   Christoph Riplinger    : Optimizer, TS searches, QM/MM, DLPNO-CCSD(T), (RO)-DLPNO pert. Triples
   Michael Roemelt        : Original ROCIS implementation
   Masaaki Saitow         : Open-shell DLPNO-CCSD energy and density
   Barbara Sandhoefer     : DKH picture change effects
   Kantharuban Sivalingam : CASSCF convergence/infrastructure, NEVPT2 and variants, FIC-MRCI
   Bernardo de Souza      : ESD, SOC TD-DFT
   Georgi Stoychev        : AutoAux, RI-MP2 NMR, DLPNO-MP2 response, X2C
   Van Anh Tran           : RI-MP2 g-tensors
   Willem Van den Heuvel  : Paramagnetic NMR
   Zikuan Wang            : NOTCH, Electric field optimization 
   Frank Wennmohs         : Technical directorship and infrastructure
   Hang Xu                : AUTO-CI-Response properties 


 We gratefully acknowledge several colleagues who have allowed us to
 interface, adapt or use parts of their codes:
   Stefan Grimme, W. Hujo, H. Kruse, P. Pracht,  : VdW corrections, initial TS optimization,
                  C. Bannwarth, S. Ehlert,         DFT functionals, gCP, sTDA/sTD-DF
                  L. Wittmann, M. Mueller
   Ed Valeev, F. Pavosevic, A. Kumar             : LibInt (2-el integral package), F12 methods
   Garnet Chan, S. Sharma, J. Yang, R. Olivares  : DMRG
   Ulf Ekstrom                                   : XCFun DFT Library
   Mihaly Kallay                                 : mrcc  (arbitrary order and MRCC methods)
   Frank Weinhold                                : gennbo (NPA and NBO analysis)
   Simon Mueller                                 : openCOSMO-RS
   Christopher J. Cramer and Donald G. Truhlar   : smd solvation model
   Lars Goerigk                                  : TD-DFT with DH, B97 family of functionals
   V. Asgeirsson, H. Jonsson                     : NEB implementation
   FAccTs GmbH                                   : IRC, NEB, NEB-TS, DLPNO-Multilevel, CI-OPT
                                                   MM, QMMM, 2- and 3-layer-ONIOM, Crystal-QMMM,
                                                   LR-CPCM, SF, NACMEs, symmetry and pop. for TD-DFT,
                                                   nearIR, NL-DFT gradient (VV10), updates on ESD,
                                                   ML-optimized integration grids, MBIS, APM,
                                                   GOAT, DOCKER, SOLVATOR, interface openCOSMO-RS
   S Lehtola, MJT Oliveira, MAL Marques          : LibXC Library
   Liviu Ungur et al                             : ANISO software


 Your calculation uses the libint2 library for the computation of 2-el integrals
 For citations please refer to: http://libint.valeyev.net

 Your ORCA version has been built with support for libXC version: 6.2.2
 For citations please refer to: https://libxc.gitlab.io

 This ORCA versions uses:
   CBLAS   interface :  Fast vector & matrix operations
   LAPACKE interface :  Fast linear algebra routines
   SCALAPACK package :  Parallel linear algebra routines
   Shared memory     :  Shared parallel matrices
   BLAS/LAPACK       :  OpenBLAS 0.3.27  USE64BITINT DYNAMIC_ARCH NO_AFFINITY Zen SINGLE_THREADED
        Core in use  :  Zen
   Copyright (c) 2011-2014, The OpenBLAS Project


Your calculation utilizes the atom-pairwise dispersion correction
with the Becke-Johnson damping scheme (D3BJ)


Warning: RI is on but no J-basis has been assigned. Assigning Def2/J (nothing to worry about!)
================================================================================

----- Orbital basis set information -----
Your calculation utilizes the basis: def2-TZVPPD
   F. Weigend and R. Ahlrichs, Phys. Chem. Chem. Phys. 7, 3297 (2005).
   D. Rappoport and F. Furche, J. Chem. Phys. 133, 134105 (2010)
   D. Rappoport, J. Chem. Phys. 155, 124102 (2021).

----- AuxJ basis set information -----
Your calculation utilizes the auxiliary basis: def2/J
   F. Weigend, Phys. Chem. Chem. Phys. 8, 1057 (2006).

================================================================================
                                        WARNINGS
                       Please study these warnings very carefully!
================================================================================

Using LibXC functional ID 531 : wB97M-V exchange-correlation functional
[ 1]  N. Mardirossian and M. Head-Gordon.,  J. Chem. Phys. 144, 214110 (2016)
Using LibXC functional ID 531 : wB97M-V exchange-correlation functional
[ 1]  N. Mardirossian and M. Head-Gordon.,  J. Chem. Phys. 144, 214110 (2016)

WARNING: B97M-V or wB97M-V functional requested.
  ===> : libXC variant has now been activated.
         Any manually given DFX/HFX/RangeSep scaling parameters are IGNORED!

Your calculation utilizes LibXC
 by S Lehtola, C Steigemann, MJT Oliveira & MAL Marques
Please cite in your paper:
 S Lehtola, C Steigemann, MJT Oliveira & MAL Marques, SoftwareX, 7, (2018), 1.
   


WARNING: your system is open-shell and RHF/RKS was chosen
  ===> : WILL SWITCH to UHF/UKS

INFO   : Checking CIS options ...

WARNING: CIS/ROCIS methods need fully converged wavefunctions
  ===> : Setting SCFConvForced true
         You can overwrite this default with %scf ConvForced false 


================================================================================
                                       INPUT FILE
================================================================================
NAME = orca.inp
|  1> ! EnGrad wB97M-D3BJ def2-TZVPPD 
|  2> %pal nprocs 8 end%pal nprocs 16 end 
|  3> %tddft 
|  4>  sf true 
|  5>  nroots 2 Iroot 1 end 
|  6> *xyz 0 3 
|  7> O   0.06205695334 0.82226519326207 -7.404145095e-05
|  8> C   0.69977469551352 -0.40402021671564 6.603111605e-05
|  9> C   -0.72779949401635 -0.49983786865896 -8.395884284e-05
| 10> H   1.24457486183211 -0.65405708273903 0.90712469771802
| 11> H   1.24442991002247 -0.65417302396337 -0.90706987711121
| 12> H   -1.2605229611099 -0.66447878185161 -0.92329446981153
| 13> H   -1.26031396558184 -0.66409821933346 0.92333161838246
| 14> *
| 15> 
| 16>                          ****END OF INPUT****
================================================================================

                     *******************************
                     * Energy+Gradient Calculation *
                     *******************************

---------------------------------
CARTESIAN COORDINATES (ANGSTROEM)
---------------------------------
  O      0.062057    0.822265   -0.000074
  C      0.699775   -0.404020    0.000066
  C     -0.727799   -0.499838   -0.000084
  H      1.244575   -0.654057    0.907125
  H      1.244430   -0.654173   -0.907070
  H     -1.260523   -0.664479   -0.923294
  H     -1.260314   -0.664098    0.923332

----------------------------
CARTESIAN COORDINATES (A.U.)
----------------------------
  NO LB      ZA    FRAG     MASS         X           Y           Z
   0 O     8.0000    0    15.999    0.117271    1.553856   -0.000140
   1 C     6.0000    0    12.011    1.322383   -0.763488    0.000125
   2 C     6.0000    0    12.011   -1.375342   -0.944557   -0.000159
   3 H     1.0000    0     1.008    2.351906   -1.235989    1.714217
   4 H     1.0000    0     1.008    2.351632   -1.236208   -1.714114
   5 H     1.0000    0     1.008   -2.382043   -1.255683   -1.744774
   6 H     1.0000    0     1.008   -2.381648   -1.254964    1.744844

--------------------------------
INTERNAL COORDINATES (ANGSTROEM)
--------------------------------
 O      0   0   0     0.000000000000     0.00000000     0.00000000
 C      1   0   0     1.382193852188     0.00000000     0.00000000
 C      2   1   0     1.430786186519    66.36364193     0.00000000
 H      2   1   3     1.087235521977   115.80508175   247.91296963
 H      2   1   3     1.087254011564   115.79595564   112.06531362
 H      3   2   1     1.078526110139   120.20798740    97.92657929
 H      3   2   1     1.078540427380   120.18126359   262.09096436

---------------------------
INTERNAL COORDINATES (A.U.)
---------------------------
 O      0   0   0     0.000000000000     0.00000000     0.00000000
 C      1   0   0     2.611967844626     0.00000000     0.00000000
 C      2   1   0     2.703794048718    66.36364193     0.00000000
 H      2   1   3     2.054577379608   115.80508175   247.91296963
 H      2   1   3     2.054612319862   115.79595564   112.06531362
 H      3   2   1     2.038118976447   120.20798740    97.92657929
 H      3   2   1     2.038146032110   120.18126359   262.09096436

---------------------
BASIS SET INFORMATION
---------------------
There are 3 groups of distinct atoms

 Group   1 Type O   : 12s7p3d1f contracted to 6s4p3d1f pattern {621111/4111/111/1}
 Group   2 Type C   : 12s6p3d1f contracted to 6s3p3d1f pattern {621111/411/111/1}
 Group   3 Type H   : 5s3p1d contracted to 3s3p1d pattern {311/111/1}

Atom   0O    basis set group =>   1
Atom   1C    basis set group =>   2
Atom   2C    basis set group =>   2
Atom   3H    basis set group =>   3
Atom   4H    basis set group =>   3
Atom   5H    basis set group =>   3
Atom   6H    basis set group =>   3
---------------------------------
AUXILIARY/J BASIS SET INFORMATION
---------------------------------
There are 3 groups of distinct atoms

 Group   1 Type O   : 12s5p4d2f1g contracted to 6s4p3d1f1g pattern {711111/2111/211/2/1}
 Group   2 Type C   : 12s5p4d2f1g contracted to 6s4p3d1f1g pattern {711111/2111/211/2/1}
 Group   3 Type H   : 5s2p1d contracted to 3s1p1d pattern {311/2/1}

Atom   0O    basis set group =>   1
Atom   1C    basis set group =>   2
Atom   2C    basis set group =>   2
Atom   3H    basis set group =>   3
Atom   4H    basis set group =>   3
Atom   5H    basis set group =>   3
Atom   6H    basis set group =>   3
[1740996389.453487] [ohm:3126994:0]        ib_iface.c:1059 UCX  ERROR ibv_create_cq(cqe=256) failed: Connection timed out
[1740996389.455234] [ohm:3126996:0]        ib_iface.c:1059 UCX  ERROR ibv_create_cq(cqe=256) failed: Connection timed out
[1740996389.455235] [ohm:3126998:0]        ib_iface.c:1059 UCX  ERROR ibv_create_cq(cqe=256) failed: Connection timed out
[1740996389.458067] [ohm:3126997:0]        ib_iface.c:1059 UCX  ERROR ibv_create_cq(cqe=256) failed: Connection timed out
[1740996389.458401] [ohm:3126995:0]        ib_iface.c:1059 UCX  ERROR ibv_create_cq(cqe=256) failed: Connection timed out
[1740996389.458892] [ohm:3126993:0]        ib_iface.c:1059 UCX  ERROR ibv_create_cq(cqe=256) failed: Connection timed out
[1740996389.465157] [ohm:3127003:0]        ib_iface.c:1059 UCX  ERROR ibv_create_cq(cqe=256) failed: Connection timed out
[1740996389.466542] [ohm:3127000:0]        ib_iface.c:1059 UCX  ERROR ibv_create_cq(cqe=256) failed: Connection timed out
[1740996389.469538] [ohm:3126999:0]        ib_iface.c:1059 UCX  ERROR ibv_create_cq(cqe=256) failed: Connection timed out
[1740996389.472501] [ohm:3127019:0]        ib_iface.c:1059 UCX  ERROR ibv_create_cq(cqe=256) failed: Connection timed out
[1740996389.472538] [ohm:3127014:0]        ib_iface.c:1059 UCX  ERROR ibv_create_cq(cqe=256) failed: Connection timed out
[1740996389.472561] [ohm:3127005:0]        ib_iface.c:1059 UCX  ERROR ibv_create_cq(cqe=256) failed: Connection timed out
[1740996389.473284] [ohm:3127017:0]        ib_iface.c:1059 UCX  ERROR ibv_create_cq(cqe=256) failed: Connection timed out
[1740996389.473307] [ohm:3127009:0]        ib_iface.c:1059 UCX  ERROR ibv_create_cq(cqe=256) failed: Connection timed out
[1740996389.476100] [ohm:3127021:0]        ib_iface.c:1059 UCX  ERROR ibv_create_cq(cqe=256) failed: Connection timed out
[1740996389.499085] [ohm:3127022:0]        ib_iface.c:1059 UCX  ERROR ibv_create_cq(cqe=256) failed: Connection timed out


           ************************************************************
           *        Program running with 16 parallel MPI-processes    *
           *              working on a common directory               *
           ************************************************************
------------------------------------------------------------------------------
                             ORCA STARTUP CALCULATIONS
                           -- RI-GTO INTEGRALS CHOSEN --
------------------------------------------------------------------------------
------------------------------------------------------------------------------
                   ___                                                        
                  /   \      - P O W E R E D   B Y -                         
                 /     \                                                     
                 |  |  |   _    _      __       _____    __    __             
                 |  |  |  | |  | |    /  \     |  _  \  |  |  /  |          
                  \  \/   | |  | |   /    \    | | | |  |  | /  /          
                 / \  \   | |__| |  /  /\  \   | |_| |  |  |/  /          
                |  |  |   |  __  | /  /__\  \  |    /   |      \           
                |  |  |   | |  | | |   __   |  |    \   |  |\   \          
                \     /   | |  | | |  |  |  |  | |\  \  |  | \   \       
                 \___/    |_|  |_| |__|  |__|  |_| \__\ |__|  \__/        
                                                                              
                      - O R C A' S   B I G   F R I E N D -                    
                                      &                                       
                       - I N T E G R A L  F E E D E R -                       
                                                                              
 v1 FN, 2020, v2 2021, v3 2022-2024                                           
------------------------------------------------------------------------------


----------------------
SHARK INTEGRAL PACKAGE
----------------------

Number of atoms                             ...      7
Number of basis functions                   ...    182
Number of shells                            ...     68
Maximum angular momentum                    ...      3
Integral batch strategy                     ... SHARK/LIBINT Hybrid
RI-J (if used) integral strategy            ... SPLIT-RIJ (Revised 2003 algorithm where possible)
Printlevel                                  ...      1
Contraction scheme used                     ... SEGMENTED contraction
Prescreening option                         ... SCHWARTZ
   Thresh                                   ... 2.500e-11
   Tcut                                     ... 2.500e-12
   Tpresel                                  ... 2.500e-12 
Coulomb Range Separation                    ... NOT USED
Exchange Range Separation                   ... Long Range
   Mu parameter                             ... 3.000e-01
   Scaling (regular/separated)              ... 1.500e-01 8.500e-01
Multipole approximations                    ... NOT USED
Finite Nucleus Model                        ... NOT USED
CABS basis                                  ... NOT available
Auxiliary Coulomb fitting basis             ... AVAILABLE
   # of basis functions in Aux-J            ...    191
   # of shells in Aux-J                     ...     65
   Maximum angular momentum in Aux-J        ...      4
Auxiliary J/K fitting basis                 ... NOT available
Auxiliary Correlation fitting basis         ... NOT available
Auxiliary 'external' fitting basis          ... NOT available

Checking pre-screening integrals            ... done (  0.0 sec) Dimension = 68
Check shell pair data                       ... done (  0.0 sec)
Shell pair information
Shell pair cut-off parameter TPreSel        ...   2.5e-12
Total number of shell pairs                 ...      2346
Shell pairs after pre-screening             ...      2341
Total number of primitive shell pairs       ...      5434
Primitive shell pairs kept                  ...      4919
          la=0 lb=0:    460 shell pairs
          la=1 lb=0:    660 shell pairs
          la=1 lb=1:    253 shell pairs
          la=2 lb=0:    390 shell pairs
          la=2 lb=1:    286 shell pairs
          la=2 lb=2:     91 shell pairs
          la=3 lb=0:     90 shell pairs
          la=3 lb=1:     66 shell pairs
          la=3 lb=2:     39 shell pairs
          la=3 lb=3:      6 shell pairs

Calculating one electron integrals          ... done (  0.0 sec)
Calculating RI/J V-Matrix + Cholesky decomp.... done (  0.0 sec)
Calculating Nuclear repulsion               ... done (  0.0 sec) ENN=     74.978451249051 Eh

Diagonalization of the overlap matrix:
Smallest eigenvalue                        ... 9.154e-06
Time for diagonalization                   ...    0.003 sec
Threshold for overlap eigenvalues          ... 1.000e-07
Number of eigenvalues below threshold      ... 0
Time for construction of square roots      ...    0.001 sec
Total time needed                          ...    0.005 sec

-------------------
DFT GRID GENERATION
-------------------

General Integration Accuracy     IntAcc      ... 4.388
Radial Grid Type                 RadialGrid  ... OptM3 with GC (2021)
Angular Grid (max. ang.)         AngularGrid ... 4 (Lebedev-302)
Angular grid pruning method      GridPruning ... 4 (adaptive)
Weight generation scheme         WeightScheme... mBecke (2022)
Basis function cutoff            BFCut       ... 1.0000e-11
Integration weight cutoff        WCut        ... 1.0000e-14
Partially contracted basis set               ... off
Rotationally invariant grid construction     ... off
Angular grids for H and He will be reduced by one unit
Diffuse basis detected: some atoms will have their outermost
                        angular grid increased by 1.

Total number of grid points                  ...    33050
Total number of batches                      ...      519
Average number of points per batch           ...       63
Average number of grid points per atom       ...     4721

--------------------
COSX GRID GENERATION
--------------------

GRIDX 1
-------
General Integration Accuracy     IntAcc      ... 3.816
Radial Grid Type                 RadialGrid  ... OptM3 with GC (2021)
Angular Grid (max. ang.)         AngularGrid ... 1 (Lebedev-50)
Angular grid pruning method      GridPruning ... 4 (adaptive)
Weight generation scheme         WeightScheme... mBecke (2022)
Basis function cutoff            BFCut       ... 1.0000e-11
Integration weight cutoff        WCut        ... 1.0000e-14
Partially contracted basis set               ... on
Rotationally invariant grid construction     ... off
Angular grids for H and He will be reduced by one unit
Diffuse basis detected: some atoms will have their outermost
                        angular grid increased by 1.

Total number of grid points                  ...     4170
Total number of batches                      ...       37
Average number of points per batch           ...      112
Average number of grid points per atom       ...      596
UseSFitting                                  ... on

GRIDX 2
-------
General Integration Accuracy     IntAcc      ... 4.020
Radial Grid Type                 RadialGrid  ... OptM3 with GC (2021)
Angular Grid (max. ang.)         AngularGrid ... 2 (Lebedev-110)
Angular grid pruning method      GridPruning ... 4 (adaptive)
Weight generation scheme         WeightScheme... mBecke (2022)
Basis function cutoff            BFCut       ... 1.0000e-11
Integration weight cutoff        WCut        ... 1.0000e-14
Partially contracted basis set               ... on
Rotationally invariant grid construction     ... off
Angular grids for H and He will be reduced by one unit
Diffuse basis detected: some atoms will have their outermost
                        angular grid increased by 1.

Total number of grid points                  ...    10258
Total number of batches                      ...       84
Average number of points per batch           ...      122
Average number of grid points per atom       ...     1465
UseSFitting                                  ... on

GRIDX 3
-------
General Integration Accuracy     IntAcc      ... 4.338
Radial Grid Type                 RadialGrid  ... OptM3 with GC (2021)
Angular Grid (max. ang.)         AngularGrid ... 3 (Lebedev-194)
Angular grid pruning method      GridPruning ... 4 (adaptive)
Weight generation scheme         WeightScheme... mBecke (2022)
Basis function cutoff            BFCut       ... 1.0000e-11
Integration weight cutoff        WCut        ... 1.0000e-14
Partially contracted basis set               ... on
Rotationally invariant grid construction     ... off
Angular grids for H and He will be reduced by one unit
Diffuse basis detected: some atoms will have their outermost
                        angular grid increased by 1.

Total number of grid points                  ...    23015
Total number of batches                      ...      184
Average number of points per batch           ...      125
Average number of grid points per atom       ...     3288
UseSFitting                                  ... on
Initializing property integral containers    ... done (  0.0 sec)

SHARK setup successfully completed in   0.3 seconds

Maximum memory used throughout the entire STARTUP-calculation: 13.8 MB
[1740996390.438576] [ohm:3127081:0]        ib_iface.c:1059 UCX  ERROR ibv_create_cq(cqe=256) failed: Connection timed out
[1740996390.438580] [ohm:3127083:0]        ib_iface.c:1059 UCX  ERROR ibv_create_cq(cqe=256) failed: Connection timed out
[1740996390.442107] [ohm:3127079:0]        ib_iface.c:1059 UCX  ERROR ibv_create_cq(cqe=256) failed: Connection timed out
[1740996390.450889] [ohm:3127082:0]        ib_iface.c:1059 UCX  ERROR ibv_create_cq(cqe=256) failed: Connection timed out
[1740996390.450932] [ohm:3127080:0]        ib_iface.c:1059 UCX  ERROR ibv_create_cq(cqe=256) failed: Connection timed out
[1740996390.451184] [ohm:3127078:0]        ib_iface.c:1059 UCX  ERROR ibv_create_cq(cqe=256) failed: Connection timed out
[1740996390.451253] [ohm:3127085:0]        ib_iface.c:1059 UCX  ERROR ibv_create_cq(cqe=256) failed: Connection timed out
[1740996390.461111] [ohm:3127088:0]        ib_iface.c:1059 UCX  ERROR ibv_create_cq(cqe=256) failed: Connection timed out
[1740996390.465830] [ohm:3127084:0]        ib_iface.c:1059 UCX  ERROR ibv_create_cq(cqe=256) failed: Connection timed out
[1740996390.465830] [ohm:3127086:0]        ib_iface.c:1059 UCX  ERROR ibv_create_cq(cqe=256) failed: Connection timed out
[1740996390.482362] [ohm:3127091:0]        ib_iface.c:1059 UCX  ERROR ibv_create_cq(cqe=256) failed: Connection timed out
[1740996390.482361] [ohm:3127099:0]        ib_iface.c:1059 UCX  ERROR ibv_create_cq(cqe=256) failed: Connection timed out
[1740996390.482606] [ohm:3127106:0]        ib_iface.c:1059 UCX  ERROR ibv_create_cq(cqe=256) failed: Connection timed out
[1740996390.483332] [ohm:3127093:0]        ib_iface.c:1059 UCX  ERROR ibv_create_cq(cqe=256) failed: Connection timed out
[1740996390.483488] [ohm:3127090:0]        ib_iface.c:1059 UCX  ERROR ibv_create_cq(cqe=256) failed: Connection timed out
[1740996390.483488] [ohm:3127104:0]        ib_iface.c:1059 UCX  ERROR ibv_create_cq(cqe=256) failed: Connection timed out


           ************************************************************
           *        Program running with 16 parallel MPI-processes    *
           *              working on a common directory               *
           ************************************************************
-------------------------------------------------------------------------------
                                 ORCA GUESS
                   Start orbitals & Density for SCF / CASSCF
-------------------------------------------------------------------------------

------------
SCF SETTINGS
------------
Hamiltonian:
 Density Functional     Method          .... DFT(GTOs)
  Functional kind                       .... Exchange-Correlation
  Functional name                       .... wB97M-V exchange-correlation functional
  Functional family                     .... Hybrid MGGA
  Functional refs                              
    [ 0] N. Mardirossian and M. Head-Gordon.,  J. Chem. Phys. 144, 214110 (2016), doi: 10.1063/1.4952647
  Fraction of HF Exchange (short range) .... 0.1500
  Fraction of HF Exchange (long range)  .... 1.0000
  Range separation parameter mu         .... 0.3000
  Functional external parameters        .... 17
    Parameter  0 _cx00      =  8.500000e-01 : u^00 coefficient for exchange
    Parameter  1 _cx01      =  1.007000e+00 : u^01 coefficient for exchange
    Parameter  2 _cx10      =  2.590000e-01 : u^10 coefficient for exchange
    Parameter  3 _css00     =  4.430000e-01 : u^00 coefficient for same-spin correlation
    Parameter  4 _css04     = -1.437000e+00 : u^04 coefficient for same-spin correlation
    Parameter  5 _css10     = -4.535000e+00 : u^10 coefficient for same-spin correlation
    Parameter  6 _css20     = -3.390000e+00 : u^20 coefficient for same-spin correlation
    Parameter  7 _css43     =  4.278000e+00 : u^43 coefficient for same-spin correlation
    Parameter  8 _cos00     =  1.000000e+00 : u^00 coefficient for opposite-spin correlation
    Parameter  9 _cos10     =  1.358000e+00 : u^10 coefficient for opposite-spin correlation
    Parameter 10 _cos20     =  2.924000e+00 : u^20 coefficient for opposite-spin correlation
    Parameter 11 _cos21     = -8.812000e+00 : u^21 coefficient for opposite-spin correlation
    Parameter 12 _cos60     = -1.390000e+00 : u^60 coefficient for opposite-spin correlation
    Parameter 13 _cos61     =  9.142000e+00 : u^61 coefficient for opposite-spin correlation
    Parameter 14 _alpha     =  1.000000e+00 : fraction of HF exchange
    Parameter 15 _beta      = -8.500000e-01 : fraction of short-range exchange
    Parameter 16 _omega     =  3.000000e-01 : range-separation constant
 Long-range corrected/Screened/Range-Separated Hybrid DFT is turned on
   Amount of maximum screened exact exchange              ....  0.850000
   Range separation parameter mu (erf(mu*r12)/r12)        ....  0.300000
 RI-approximation to the Coulomb term is turned on
   Number of AuxJ basis functions       .... 191
   RIJ-COSX (HFX calculated with COS-X)).... on


General Settings:
 Integral files         IntName         .... orca
 Hartree-Fock type      HFTyp           .... UHF
 Total Charge           Charge          ....    0
 Multiplicity           Mult            ....    3
 Number of Electrons    NEL             ....   24
 Basis Dimension        Dim             ....  182
 Nuclear Repulsion      ENuc            ....     74.9784512491 Eh

Convergence Acceleration:
 AO-DIIS                CNVDIIS         .... on
   Start iteration      DIISMaxIt       ....    12
   Startup error        DIISStart       ....  0.200000
   # of expansion vecs  DIISMaxEq       ....     5
   Bias factor          DIISBfac        ....   1.050
   Max. coefficient     DIISMaxC        ....  10.000
 MO-DIIS                CNVKDIIS        .... off
 Trust-Rad. Augm. Hess. CNVTRAH         .... auto
   Auto Start mean grad. ratio tolernc. ....  1.125000
   Auto Start start iteration           ....    50
   Auto Start num. interpolation iter.  ....    10
   Max. Number of Micro iterations      ....    24
   Max. Number of Macro iterations      .... Maxiter - #DIIS iter
   Number of Davidson start vectors     ....     2
   Converg. threshold    (grad. norm)   ....   1.000e-05
   Grad. Scal. Fac. for Micro threshold ....   0.100
   Minimum threshold for Micro iter.    ....   1.000e-02
   NR start threshold (gradient norm)   ....   1.000e-04
   Initial trust radius                 ....   0.400
   Minimum AH scaling param. (alpha)    ....   1.000
   Maximum AH scaling param. (alpha)    .... 1000.000
   Quad. conv. algorithm                .... NR
   White noise on init. David. guess    .... on
   Maximum white noise                  ....   0.010
   Pseudo random numbers                .... off
   Inactive MOs                         .... canonical
   Orbital update algorithm             .... Taylor
   Preconditioner                       .... Diag
   Full preconditioner red. dimension   ....   250
 SOSCF                  CNVSOSCF        .... on
   Start iteration      SOSCFMaxIt      ....   150
   Startup grad/error   SOSCFStart      ....  0.003300
   Hessian update       SOSCFHessUp     .... L-BFGS
 Level Shifting         CNVShift        .... on
   Level shift para.    LevelShift      ....    0.2500
   Turn off err/grad.   ShiftErr        ....    0.0010
 Zerner damping         CNVZerner       .... off
 Static damping         CNVDamp         .... on
   Fraction old density DampFac         ....    0.7000
   Max. Damping (<1)    DampMax         ....    0.9800
   Min. Damping (>=0)   DampMin         ....    0.0000
   Turn off err/grad.   DampErr         ....    0.1000

SCF Procedure:
 Maximum # iterations   MaxIter         ....   125
 SCF integral mode      SCFMode         .... Direct
   Integral package                     .... SHARK and LIBINT hybrid scheme
 Reset frequency        DirectResetFreq ....    20
 Integral Threshold     Thresh          ....  2.500e-11 Eh
 Primitive CutOff       TCut            ....  2.500e-12 Eh

Convergence Tolerance:
 Convergence Check Mode ConvCheckMode   .... Total+1el-Energy
 Convergence forced     ConvForced      .... 1
 Energy Change          TolE            ....  1.000e-08 Eh
 1-El. energy change                    ....  1.000e-05 Eh
 Orbital Gradient       TolG            ....  1.000e-05
 Orbital Rotation angle TolX            ....  1.000e-05
 DIIS Error             TolErr          ....  5.000e-07

------------------------------
INITIAL GUESS: MODEL POTENTIAL
------------------------------
Loading Hartree-Fock densities                     ... done
Calculating cut-offs                               ... done
Initializing the effective Hamiltonian             ... done
Setting up the integral package (SHARK)            ... done
Starting the Coulomb interaction                   ... done (   0.0 sec)
Making the grid                                    ... done (   0.0 sec)
Mapping shells                                     ... done
Starting the XC term evaluation                    ... done (   0.0 sec)
  promolecular density results
     # of electrons  =     23.997238212
     EX              =    -19.540787929
     EC              =     -0.781764886
     EX+EC           =    -20.322552816
Transforming the Hamiltonian                       ... done (   0.0 sec)
Diagonalizing the Hamiltonian                      ... done (   0.0 sec)
Back transforming the eigenvectors                 ... done (   0.0 sec)
Now organizing SCF variables                       ... done
                      ------------------
                      INITIAL GUESS DONE (   0.1 sec)
                      ------------------
             **** ENERGY FILE WAS UPDATED (orca.en.tmp) ****
Finished Guess after   0.5 sec
Maximum memory used throughout the entire GUESS-calculation: 9.7 MB
[1740996391.213582] [ohm:3127161:0]        ib_iface.c:1059 UCX  ERROR ibv_create_cq(cqe=256) failed: Connection timed out
[1740996391.213823] [ohm:3127165:0]        ib_iface.c:1059 UCX  ERROR ibv_create_cq(cqe=256) failed: Connection timed out
[1740996391.226814] [ohm:3127162:0]        ib_iface.c:1059 UCX  ERROR ibv_create_cq(cqe=256) failed: Connection timed out
[1740996391.227387] [ohm:3127164:0]        ib_iface.c:1059 UCX  ERROR ibv_create_cq(cqe=256) failed: Connection timed out
[1740996391.227387] [ohm:3127166:0]        ib_iface.c:1059 UCX  ERROR ibv_create_cq(cqe=256) failed: Connection timed out
[1740996391.227985] [ohm:3127168:0]        ib_iface.c:1059 UCX  ERROR ibv_create_cq(cqe=256) failed: Connection timed out
[1740996391.231927] [ohm:3127167:0]        ib_iface.c:1059 UCX  ERROR ibv_create_cq(cqe=256) failed: Connection timed out
[1740996391.233575] [ohm:3127163:0]        ib_iface.c:1059 UCX  ERROR ibv_create_cq(cqe=256) failed: Connection timed out
[1740996391.236491] [ohm:3127171:0]        ib_iface.c:1059 UCX  ERROR ibv_create_cq(cqe=256) failed: Connection timed out
[1740996391.241282] [ohm:3127173:0]        ib_iface.c:1059 UCX  ERROR ibv_create_cq(cqe=256) failed: Connection timed out
[1740996391.242670] [ohm:3127169:0]        ib_iface.c:1059 UCX  ERROR ibv_create_cq(cqe=256) failed: Connection timed out
[1740996391.247220] [ohm:3127184:0]        ib_iface.c:1059 UCX  ERROR ibv_create_cq(cqe=256) failed: Connection timed out
[1740996391.247202] [ohm:3127174:0]        ib_iface.c:1059 UCX  ERROR ibv_create_cq(cqe=256) failed: Connection timed out
[1740996391.248441] [ohm:3127190:0]        ib_iface.c:1059 UCX  ERROR ibv_create_cq(cqe=256) failed: Connection timed out
[1740996391.249022] [ohm:3127177:0]        ib_iface.c:1059 UCX  ERROR ibv_create_cq(cqe=256) failed: Connection timed out
[1740996391.249014] [ohm:3127188:0]        ib_iface.c:1059 UCX  ERROR ibv_create_cq(cqe=256) failed: Connection timed out


           ************************************************************
           *        Program running with 16 parallel MPI-processes    *
           *              working on a common directory               *
           ************************************************************

-------------------------------------------------------------------------------------------
                                      ORCA LEAN-SCF
                              memory conserving SCF solver
-------------------------------------------------------------------------------------------

----------------------------------------D-I-I-S--------------------------------------------
Iteration    Energy (Eh)           Delta-E    RMSDP     MaxDP     DIISErr   Damp  Time(sec)
-------------------------------------------------------------------------------------------
               ***  Starting incremental Fock matrix formation  ***
    1    -153.5482041690820552     0.00e+00  1.40e-03  1.08e-01  1.02e-01  0.700   0.4
    2    -153.5841368749492801    -3.59e-02  1.69e-03  1.72e-01  6.08e-02  0.700   0.3
                               ***Turning on AO-DIIS***
    3    -153.6031704370241471    -1.90e-02  1.41e-03  1.57e-01  3.05e-02  0.700   0.3
    4    -153.6147268551570164    -1.16e-02  3.91e-03  4.60e-01  2.18e-02  0.000   0.3
    5    -153.6410847688332524    -2.64e-02  1.23e-03  1.58e-01  8.66e-03  0.000   0.3
    6    -153.6417343029089011    -6.50e-04  1.14e-03  1.42e-01  6.07e-03  0.000   0.3
    7    -153.6421937283985812    -4.59e-04  7.55e-04  8.48e-02  3.32e-03  0.000   0.3
                              *** Initializing SOSCF ***
---------------------------------------S-O-S-C-F--------------------------------------
Iteration    Energy (Eh)           Delta-E    RMSDP     MaxDP     MaxGrad    Time(sec)
--------------------------------------------------------------------------------------
    8    -153.6424259064162356    -2.32e-04  4.68e-04  3.87e-02  1.77e-03     0.3
               *** Restarting incremental Fock matrix formation ***
    9    -153.6425574735025634    -1.32e-04  5.39e-04  4.76e-02  1.81e-03     0.4
   10    -153.6426357570155403    -7.83e-05  1.60e-03  1.46e-01  1.28e-03     0.4
   11    -153.6427234073609327    -8.77e-05  2.59e-04  1.97e-02  1.20e-03     0.4
   12    -153.6427353613984508    -1.20e-05  1.26e-04  1.62e-02  3.32e-04     0.4
   13    -153.6427379085415339    -2.55e-06  6.56e-05  4.85e-03  2.26e-04     0.3
   14    -153.6427385815986213    -6.73e-07  7.38e-05  4.86e-03  8.17e-05     0.3
   15    -153.6427388931835196    -3.12e-07  5.70e-05  3.91e-03  4.58e-05     0.3
   16    -153.6427389875134395    -9.43e-08  3.45e-05  2.14e-03  2.71e-05     0.3
   17    -153.6427390195188423    -3.20e-08  2.59e-05  1.98e-03  2.89e-05     0.3
   18    -153.6427390372003572    -1.77e-08  9.48e-06  9.28e-04  1.74e-05     0.3
   19    -153.6427390436113001    -6.41e-09  3.94e-06  3.50e-04  5.65e-06     0.3
                 **** Energy Check signals convergence ****

               *****************************************************
               *                     SUCCESS                       *
               *           SCF CONVERGED AFTER  19 CYCLES          *
               *****************************************************

Recomputing exchange energy using gridx3       ... done (    0.439 sec)
Old exchange energy                            :     -6.181716360 Eh
New exchange energy                            :     -6.181709084 Eh
Exchange energy change after final integration :      0.000007275 Eh
Total energy after final integration           :   -153.642731768 Eh
             **** ENERGY FILE WAS UPDATED (orca.en.tmp) ****

----------------
TOTAL SCF ENERGY
----------------

Total Energy       :       -153.64273176845822 Eh           -4180.83128 eV

Components:
Nuclear Repulsion  :         74.97845124905081 Eh            2040.26738 eV
Electronic Energy  :       -228.62119029266211 Eh           -6221.09886 eV
One Electron Energy:       -355.44321326218835 Eh           -9672.10155 eV
Two Electron Energy:        126.82202296952626 Eh            3451.00269 eV

Virial components:
Potential Energy   :       -307.36677022220738 Eh           -8363.87503 eV
Kinetic Energy     :        153.72403845374919 Eh            4183.04375 eV
Virial Ratio       :          1.99947108672067

DFT components:
N(Alpha)           :       12.999676676188 electrons
N(Beta)            :       11.000001467965 electrons
N(Total)           :       23.999678144153 electrons
E(XC)              :      -14.736236234057 Eh       

---------------
SCF CONVERGENCE
---------------

  Last Energy change         ...    6.4109e-09  Tolerance :   1.0000e-08
  Last MAX-Density change    ...    3.4959e-04  Tolerance :   1.0000e-07
  Last RMS-Density change    ...    3.9385e-06  Tolerance :   5.0000e-09
  Last DIIS Error            ...    1.7723e-03  Tolerance :   5.0000e-07
  Last Orbital Gradient      ...    5.6494e-06  Tolerance :   1.0000e-05
  Last Orbital Rotation      ...    3.7855e-05  Tolerance :   1.0000e-05


----------------------
UHF SPIN CONTAMINATION
----------------------

Warning: in a DFT calculation there is little theoretical justification to 
         calculate <S**2> as in Hartree-Fock theory. We will do it anyways
         but you should keep in mind that the values have only limited relevance

Expectation value of <S**2>     :     2.005768
Ideal value S*(S+1) for S=1.0   :     2.000000
Deviation                       :     0.005768

----------------
ORBITAL ENERGIES
----------------
                 SPIN UP ORBITALS
  NO   OCC          E(Eh)            E(eV) 
   0   1.0000     -19.471012      -529.8332 
   1   1.0000     -10.424527      -283.6658 
   2   1.0000     -10.368216      -282.1335 
   3   1.0000      -1.295844       -35.2617 
   4   1.0000      -0.865249       -23.5446 
   5   1.0000      -0.780916       -21.2498 
   6   1.0000      -0.688950       -18.7473 
   7   1.0000      -0.651631       -17.7318 
   8   1.0000      -0.573707       -15.6114 
   9   1.0000      -0.508513       -13.8373 
  10   1.0000      -0.500022       -13.6063 
  11   1.0000      -0.474130       -12.9017 
  12   1.0000      -0.146673        -3.9912 
  13   0.0000       0.036477         0.9926 
  14   0.0000       0.060734         1.6527 
  15   0.0000       0.070296         1.9129 
  16   0.0000       0.087266         2.3746 
  17   0.0000       0.109220         2.9720 
  18   0.0000       0.129716         3.5298 
  19   0.0000       0.134553         3.6614 
  20   0.0000       0.143043         3.8924 
  21   0.0000       0.157370         4.2823 
  22   0.0000       0.196320         5.3421 
  23   0.0000       0.200295         5.4503 

                 SPIN DOWN ORBITALS
  NO   OCC          E(Eh)            E(eV) 
   0   1.0000     -19.438242      -528.9415 
   1   1.0000     -10.424675      -283.6698 
   2   1.0000     -10.360004      -281.9100 
   3   1.0000      -1.229284       -33.4505 
   4   1.0000      -0.831726       -22.6324 
   5   1.0000      -0.762485       -20.7483 
   6   1.0000      -0.633272       -17.2322 
   7   1.0000      -0.619580       -16.8596 
   8   1.0000      -0.535176       -14.5629 
   9   1.0000      -0.485358       -13.2073 
  10   1.0000      -0.443555       -12.0697 
  11   0.0000      -0.118395        -3.2217 
  12   0.0000       0.032993         0.8978 
  13   0.0000       0.056773         1.5449 
  14   0.0000       0.064392         1.7522 
  15   0.0000       0.064470         1.7543 
  16   0.0000       0.106303         2.8927 
  17   0.0000       0.112517         3.0617 
  18   0.0000       0.127564         3.4712 
  19   0.0000       0.145950         3.9715 
  20   0.0000       0.150918         4.1067 
  21   0.0000       0.164384         4.4731 
*Only the first 10 virtual orbitals were printed.

                    ********************************
                    * MULLIKEN POPULATION ANALYSIS *
                    ********************************

--------------------------------------------
MULLIKEN ATOMIC CHARGES AND SPIN POPULATIONS
--------------------------------------------
   0 O :   -0.262412    1.262730
   1 C :    0.136509   -0.164487
   2 C :   -0.525704    0.595124
   3 H :    0.167325    0.063833
   4 H :    0.167291    0.063932
   5 H :    0.158540    0.089378
   6 H :    0.158450    0.089491
Sum of atomic charges         :   -0.0000000
Sum of atomic spin populations:    2.0000000

-----------------------------------------------------
MULLIKEN REDUCED ORBITAL CHARGES AND SPIN POPULATIONS
-----------------------------------------------------
CHARGE
  0 O s       :     4.070638  s :     4.070638
      pz      :     1.077187  p :     4.146997
      px      :     1.583757
      py      :     1.486053
      dz2     :     0.005687  d :     0.043029
      dxz     :    -0.000352
      dyz     :     0.009048
      dx2y2   :     0.011299
      dxy     :     0.017346
      f0      :     0.000178  f :     0.001748
      f+1     :     0.000078
      f-1     :     0.000278
      f+2     :     0.000086
      f-2     :     0.000179
      f+3     :     0.000435
      f-3     :     0.000514

  1 C s       :     3.231046  s :     3.231046
      pz      :     1.086685  p :     2.544969
      px      :     0.911248
      py      :     0.547035
      dz2     :     0.020968  d :     0.075709
      dxz     :    -0.004288
      dyz     :     0.013147
      dx2y2   :     0.030954
      dxy     :     0.014928
      f0      :     0.001209  f :     0.011767
      f+1     :     0.000860
      f-1     :     0.000828
      f+2     :     0.000945
      f-2     :     0.001227
      f+3     :     0.003400
      f-3     :     0.003299

  2 C s       :     3.516169  s :     3.516169
      pz      :     1.181851  p :     2.918771
      px      :     0.827706
      py      :     0.909214
      dz2     :     0.021652  d :     0.081882
      dxz     :    -0.025208
      dyz     :     0.000217
      dx2y2   :     0.049494
      dxy     :     0.035727
      f0      :     0.000840  f :     0.008882
      f+1     :     0.000699
      f-1     :     0.000929
      f+2     :     0.000833
      f-2     :     0.000763
      f+3     :     0.002828
      f-3     :     0.001989

  3 H s       :     0.773890  s :     0.773890
      pz      :     0.016269  p :     0.056230
      px      :     0.017139
      py      :     0.022823
      dz2     :     0.000761  d :     0.002554
      dxz     :     0.000624
      dyz     :     0.000515
      dx2y2   :     0.000326
      dxy     :     0.000328

  4 H s       :     0.773889  s :     0.773889
      pz      :     0.016266  p :     0.056265
      px      :     0.017135
      py      :     0.022865
      dz2     :     0.000761  d :     0.002555
      dxz     :     0.000624
      dyz     :     0.000515
      dx2y2   :     0.000326
      dxy     :     0.000328

  5 H s       :     0.718852  s :     0.718852
      pz      :     0.018849  p :     0.120157
      px      :     0.012209
      py      :     0.089099
      dz2     :     0.000688  d :     0.002451
      dxz     :     0.000518
      dyz     :     0.000695
      dx2y2   :     0.000256
      dxy     :     0.000294

  6 H s       :     0.718854  s :     0.718854
      pz      :     0.018832  p :     0.120244
      px      :     0.012214
      py      :     0.089198
      dz2     :     0.000688  d :     0.002452
      dxz     :     0.000519
      dyz     :     0.000696
      dx2y2   :     0.000255
      dxy     :     0.000294


SPIN
  0 O s       :     0.142751  s :     0.142751
      pz      :     0.858084  p :     1.112377
      px      :     0.073743
      py      :     0.180550
      dz2     :     0.001228  d :     0.007763
      dxz     :    -0.000706
      dyz     :    -0.005368
      dx2y2   :     0.005804
      dxy     :     0.006805
      f0      :    -0.000065  f :    -0.000161
      f+1     :    -0.000052
      f-1     :    -0.000107
      f+2     :    -0.000002
      f-2     :     0.000004
      f+3     :     0.000048
      f-3     :     0.000013

  1 C s       :    -0.020319  s :    -0.020319
      pz      :     0.004462  p :    -0.170352
      px      :    -0.008853
      py      :    -0.165960
      dz2     :     0.023995  d :     0.023130
      dxz     :     0.000383
      dyz     :     0.012844
      dx2y2   :     0.000718
      dxy     :    -0.014811
      f0      :     0.000542  f :     0.003054
      f+1     :     0.000011
      f-1     :     0.000005
      f+2     :     0.000586
      f-2     :     0.000539
      f+3     :     0.001443
      f-3     :    -0.000072

  2 C s       :     0.100616  s :     0.100616
      pz      :     0.030993  p :     0.446662
      px      :     0.037609
      py      :     0.378060
      dz2     :     0.012060  d :     0.046030
      dxz     :    -0.003008
      dyz     :    -0.000397
      dx2y2   :     0.026381
      dxy     :     0.010995
      f0      :     0.000167  f :     0.001815
      f+1     :    -0.000086
      f-1     :     0.000546
      f+2     :     0.000246
      f-2     :     0.000286
      f+3     :     0.000642
      f-3     :     0.000014

  3 H s       :     0.045267  s :     0.045267
      pz      :     0.000923  p :     0.018600
      px      :     0.001722
      py      :     0.015954
      dz2     :    -0.000006  d :    -0.000034
      dxz     :     0.000007
      dyz     :    -0.000037
      dx2y2   :     0.000009
      dxy     :    -0.000008

  4 H s       :     0.045329  s :     0.045329
      pz      :     0.000924  p :     0.018638
      px      :     0.001721
      py      :     0.015993
      dz2     :    -0.000006  d :    -0.000034
      dxz     :     0.000007
      dyz     :    -0.000037
      dx2y2   :     0.000009
      dxy     :    -0.000008

  5 H s       :     0.005874  s :     0.005874
      pz      :     0.001831  p :     0.083035
      px      :     0.001100
      py      :     0.080104
      dz2     :     0.000017  d :     0.000469
      dxz     :     0.000005
      dyz     :     0.000341
      dx2y2   :     0.000011
      dxy     :     0.000095

  6 H s       :     0.005901  s :     0.005901
      pz      :     0.001820  p :     0.083121
      px      :     0.001101
      py      :     0.080199
      dz2     :     0.000017  d :     0.000469
      dxz     :     0.000005
      dyz     :     0.000341
      dx2y2   :     0.000011
      dxy     :     0.000095



                     *******************************
                     * LOEWDIN POPULATION ANALYSIS *
                     *******************************

-------------------------------------------
LOEWDIN ATOMIC CHARGES AND SPIN POPULATIONS
-------------------------------------------
   0 O :    0.118485    1.102981
   1 C :   -0.042400    0.132061
   2 C :   -0.000674    0.431768
   3 H :    0.023655    0.047663
   4 H :    0.023666    0.047693
   5 H :   -0.061376    0.118930
   6 H :   -0.061356    0.118903

----------------------------------------------------
LOEWDIN REDUCED ORBITAL CHARGES AND SPIN POPULATIONS
----------------------------------------------------
CHARGE
  0 O s       :     3.439941  s :     3.439941
      pz      :     1.000246  p :     4.015150
      px      :     1.479952
      py      :     1.534952
      dz2     :     0.036615  d :     0.419961
      dxz     :     0.049180
      dyz     :     0.081200
      dx2y2   :     0.114887
      dxy     :     0.138077
      f0      :     0.000653  f :     0.006465
      f+1     :     0.000245
      f-1     :     0.001019
      f+2     :     0.000206
      f-2     :     0.000856
      f+3     :     0.001164
      f-3     :     0.002321

  1 C s       :     2.647035  s :     2.647035
      pz      :     0.909260  p :     2.559738
      px      :     0.930439
      py      :     0.720038
      dz2     :     0.097603  d :     0.746591
      dxz     :     0.206106
      dyz     :     0.061020
      dx2y2   :     0.205855
      dxy     :     0.176006
      f0      :     0.007908  f :     0.089036
      f+1     :     0.007892
      f-1     :     0.009359
      f+2     :     0.007266
      f-2     :     0.006462
      f+3     :     0.024302
      f-3     :     0.025846

  2 C s       :     2.671793  s :     2.671793
      pz      :     0.926443  p :     2.587126
      px      :     0.880649
      py      :     0.780034
      dz2     :     0.105191  d :     0.674696
      dxz     :     0.185267
      dyz     :     0.034623
      dx2y2   :     0.194295
      dxy     :     0.155319
      f0      :     0.005727  f :     0.067059
      f+1     :     0.007350
      f-1     :     0.008228
      f+2     :     0.005501
      f-2     :     0.002927
      f+3     :     0.021808
      f-3     :     0.015517

  3 H s       :     0.682007  s :     0.682007
      pz      :     0.114009  p :     0.264425
      px      :     0.081636
      py      :     0.068780
      dz2     :     0.009271  d :     0.029913
      dxz     :     0.008615
      dyz     :     0.005890
      dx2y2   :     0.003418
      dxy     :     0.002718

  4 H s       :     0.681982  s :     0.681982
      pz      :     0.114011  p :     0.264439
      px      :     0.081639
      py      :     0.068790
      dz2     :     0.009271  d :     0.029913
      dxz     :     0.008615
      dyz     :     0.005892
      dx2y2   :     0.003418
      dxy     :     0.002718

  5 H s       :     0.692512  s :     0.692512
      pz      :     0.115663  p :     0.337843
      px      :     0.076671
      py      :     0.145509
      dz2     :     0.009146  d :     0.031021
      dxz     :     0.008627
      dyz     :     0.007783
      dx2y2   :     0.002817
      dxy     :     0.002649

  6 H s       :     0.692502  s :     0.692502
      pz      :     0.115680  p :     0.337833
      px      :     0.076672
      py      :     0.145481
      dz2     :     0.009149  d :     0.031020
      dxz     :     0.008628
      dyz     :     0.007784
      dx2y2   :     0.002814
      dxy     :     0.002645


SPIN
  0 O s       :     0.087018  s :     0.087018
      pz      :     0.760129  p :     0.977823
      px      :     0.076104
      py      :     0.141590
      dz2     :     0.006545  d :     0.037437
      dxz     :    -0.001310
      dyz     :     0.013236
      dx2y2   :     0.001177
      dxy     :     0.017790
      f0      :     0.000147  f :     0.000703
      f+1     :     0.000073
      f-1     :     0.000232
      f+2     :     0.000025
      f-2     :     0.000004
      f+3     :     0.000215
      f-3     :     0.000006

  1 C s       :     0.000438  s :     0.000438
      pz      :     0.011320  p :     0.016429
      px      :     0.006711
      py      :    -0.001602
      dz2     :     0.006478  d :     0.094019
      dxz     :     0.015925
      dyz     :     0.058554
      dx2y2   :     0.004064
      dxy     :     0.008998
      f0      :     0.003442  f :     0.021174
      f+1     :     0.000396
      f-1     :     0.000576
      f+2     :     0.004580
      f-2     :     0.003027
      f+3     :     0.009295
      f-3     :    -0.000143

  2 C s       :     0.020767  s :     0.020767
      pz      :     0.019139  p :     0.287359
      px      :     0.011467
      py      :     0.256753
      dz2     :     0.011190  d :     0.109628
      dxz     :     0.002618
      dyz     :     0.028747
      dx2y2   :     0.035665
      dxy     :     0.031408
      f0      :     0.001088  f :     0.014015
      f+1     :     0.000264
      f-1     :     0.001729
      f+2     :     0.001994
      f-2     :     0.001304
      f+3     :     0.007822
      f-3     :    -0.000186

  3 H s       :     0.026935  s :     0.026935
      pz      :     0.001007  p :     0.021069
      px      :    -0.000202
      py      :     0.020264
      dz2     :    -0.000048  d :    -0.000340
      dxz     :     0.000037
      dyz     :    -0.000281
      dx2y2   :     0.000092
      dxy     :    -0.000140

  4 H s       :     0.026960  s :     0.026960
      pz      :     0.001006  p :     0.021073
      px      :    -0.000200
      py      :     0.020268
      dz2     :    -0.000048  d :    -0.000340
      dxz     :     0.000037
      dyz     :    -0.000281
      dx2y2   :     0.000092
      dxy     :    -0.000140

  5 H s       :     0.007634  s :     0.007634
      pz      :     0.002267  p :     0.106373
      px      :     0.000709
      py      :     0.103397
      dz2     :     0.000250  d :     0.004923
      dxz     :     0.000285
      dyz     :     0.003553
      dx2y2   :     0.000050
      dxy     :     0.000784

  6 H s       :     0.007640  s :     0.007640
      pz      :     0.002265  p :     0.106342
      px      :     0.000707
      py      :     0.103370
      dz2     :     0.000249  d :     0.004921
      dxz     :     0.000285
      dyz     :     0.003554
      dx2y2   :     0.000050
      dxy     :     0.000782



                      *****************************
                      * MAYER POPULATION ANALYSIS *
                      *****************************

  NA   - Mulliken gross atomic population
  ZA   - Total nuclear charge
  QA   - Mulliken gross atomic charge
  VA   - Mayer's total valence
  BVA  - Mayer's bonded valence
  FA   - Mayer's free valence

  ATOM       NA         ZA         QA         VA         BVA        FA
  0 O      8.2624     8.0000    -0.2624     2.4548     1.5532     0.9016
  1 C      5.8635     6.0000     0.1365     3.1081     3.0932     0.0149
  2 C      6.5257     6.0000    -0.5257     3.5383     3.3220     0.2163
  3 H      0.8327     1.0000     0.1673     1.0675     1.0656     0.0019
  4 H      0.8327     1.0000     0.1673     1.0675     1.0656     0.0019
  5 H      0.8415     1.0000     0.1585     1.1510     1.1420     0.0089
  6 H      0.8415     1.0000     0.1585     1.1511     1.1422     0.0090

  Mayer bond orders larger than 0.100000
B(  0-O ,  1-C ) :   0.7078 B(  0-O ,  2-C ) :   0.6060 B(  1-C ,  2-C ) :   0.5715 
B(  1-C ,  3-H ) :   0.9896 B(  1-C ,  4-H ) :   0.9896 B(  2-C ,  5-H ) :   1.0845 
B(  2-C ,  6-H ) :   1.0846 

-------
TIMINGS
-------

Total SCF time: 0 days 0 hours 0 min 7 sec 

Total time                  ....       7.098 sec
Sum of individual times     ....       7.076 sec  ( 99.7%)

SCF preparation             ....       0.406 sec  (  5.7%)
Fock matrix formation       ....       5.970 sec  ( 84.1%)
  Startup                   ....       0.038 sec  (  0.6% of F)
  Split-RI-J                ....       0.260 sec  (  4.4% of F)
  Chain of spheres X        ....       3.776 sec  ( 63.3% of F)
  XC integration            ....       1.750 sec  ( 29.3% of F)
    XC Preparation          ....       0.000 sec  (  0.0% of XC)
    Basis function eval.    ....       0.127 sec  (  7.3% of XC)
    Density eval.           ....       0.551 sec  ( 31.5% of XC)
    XC-Functional eval.     ....       0.047 sec  (  2.7% of XC)
    XC-Potential eval.      ....       0.922 sec  ( 52.7% of XC)
Diagonalization             ....       0.000 sec  (  0.0%)
Density matrix formation    ....       0.090 sec  (  1.3%)
Total Energy calculation    ....       0.066 sec  (  0.9%)
Population analysis         ....       0.025 sec  (  0.4%)
Orbital Transformation      ....       0.048 sec  (  0.7%)
Orbital Orthonormalization  ....       0.000 sec  (  0.0%)
DIIS solution               ....       0.286 sec  (  4.0%)
SOSCF solution              ....       0.181 sec  (  2.5%)
Finished LeanSCF after   7.1 sec

Maximum memory used throughout the entire LEANSCF-calculation: 14.8 MB
[1740996398.639686] [ohm:3127278:0]        ib_iface.c:1059 UCX  ERROR ibv_create_cq(cqe=256) failed: Connection timed out
[1740996398.640218] [ohm:3127275:0]        ib_iface.c:1059 UCX  ERROR ibv_create_cq(cqe=256) failed: Connection timed out
[1740996398.640296] [ohm:3127279:0]        ib_iface.c:1059 UCX  ERROR ibv_create_cq(cqe=256) failed: Connection timed out
[1740996398.640272] [ohm:3127280:0]        ib_iface.c:1059 UCX  ERROR ibv_create_cq(cqe=256) failed: Connection timed out
[1740996398.640439] [ohm:3127276:0]        ib_iface.c:1059 UCX  ERROR ibv_create_cq(cqe=256) failed: Connection timed out
[1740996398.641607] [ohm:3127277:0]        ib_iface.c:1059 UCX  ERROR ibv_create_cq(cqe=256) failed: Connection timed out
[1740996398.641609] [ohm:3127281:0]        ib_iface.c:1059 UCX  ERROR ibv_create_cq(cqe=256) failed: Connection timed out
[1740996398.643150] [ohm:3127274:0]        ib_iface.c:1059 UCX  ERROR ibv_create_cq(cqe=256) failed: Connection timed out
[1740996398.645491] [ohm:3127284:0]        ib_iface.c:1059 UCX  ERROR ibv_create_cq(cqe=256) failed: Connection timed out
[1740996398.647201] [ohm:3127287:0]        ib_iface.c:1059 UCX  ERROR ibv_create_cq(cqe=256) failed: Connection timed out
[1740996398.647207] [ohm:3127295:0]        ib_iface.c:1059 UCX  ERROR ibv_create_cq(cqe=256) failed: Connection timed out
[1740996398.649133] [ohm:3127282:0]        ib_iface.c:1059 UCX  ERROR ibv_create_cq(cqe=256) failed: Connection timed out
[1740996398.651023] [ohm:3127286:0]        ib_iface.c:1059 UCX  ERROR ibv_create_cq(cqe=256) failed: Connection timed out
[1740996398.668661] [ohm:3127303:0]        ib_iface.c:1059 UCX  ERROR ibv_create_cq(cqe=256) failed: Connection timed out
[1740996398.669844] [ohm:3127289:0]        ib_iface.c:1059 UCX  ERROR ibv_create_cq(cqe=256) failed: Connection timed out
[1740996398.669838] [ohm:3127301:0]        ib_iface.c:1059 UCX  ERROR ibv_create_cq(cqe=256) failed: Connection timed out


           ************************************************************
           *        Program running with 16 parallel MPI-processes    *
           *              working on a common directory               *
           ************************************************************

------------------------------------------------------------------------------
                         ORCA PROPERTY INTEGRAL CALCULATIONS
------------------------------------------------------------------------------

GBWName                                   ... orca.gbw
Number of atoms                           ...      7
Number of basis functions                 ...    182
Max core memory                           ...   1024 MB

Dipole integrals                          ... YES
Quadrupole integrals                      ...  NO
Linear momentum integrals                 ... YES
Angular momentum integrals                ... YES
Higher moments length integrals           ...  NO
Higher moments velocity integrals         ...  NO
Kinetic energy integrals                  ...  NO
GIAO right hand sides                     ...  NO
GIAO dipole derivative integrals          ...  NO
SOC integrals                             ...  NO
EPR diamagnetic integrals (GIAO)          ...  NO
EPR gauge integrals                       ...  NO
Field gradient integrals                  ...  NO (   0 nuclei)
Spin-dipole/Fermi contact integrals       ...  NO (   0 nuclei)
Contact density integrals                 ...  NO (   0 nuclei)
Nucleus-orbit integrals                   ...  NO (   0 nuclei)
Geometric perturbations                   ...  NO (   7 nuclei)

Choice of electric origin   ... Center of mass
Position of electric origin ... (  0.0268, -0.0154, -0.0001) 
Choice of magnetic origin   ... GIAO
Position of magnetic origin ... (  0.0000,  0.0000,  0.0000) 

Calculating integrals                     ... Electric Dipole (Length)     done (  0.0 sec)
Calculating integrals                     ... Linear Momentum              done (  0.0 sec)
Calculating integrals                     ... Angular Momentum  (ElOri)    done (  0.0 sec)

Property integrals calculated in   0.0 sec

Maximum memory used throughout the entire PROPINT-calculation: 10.4 MB
[1740996399.305855] [ohm:3127361:0]        ib_iface.c:1059 UCX  ERROR ibv_create_cq(cqe=256) failed: Connection timed out
[1740996399.309304] [ohm:3127365:0]        ib_iface.c:1059 UCX  ERROR ibv_create_cq(cqe=256) failed: Connection timed out
[1740996399.309423] [ohm:3127363:0]        ib_iface.c:1059 UCX  ERROR ibv_create_cq(cqe=256) failed: Connection timed out
[1740996399.316621] [ohm:3127360:0]        ib_iface.c:1059 UCX  ERROR ibv_create_cq(cqe=256) failed: Connection timed out
[1740996399.316660] [ohm:3127364:0]        ib_iface.c:1059 UCX  ERROR ibv_create_cq(cqe=256) failed: Connection timed out
[1740996399.316848] [ohm:3127362:0]        ib_iface.c:1059 UCX  ERROR ibv_create_cq(cqe=256) failed: Connection timed out
[1740996399.332392] [ohm:3127367:0]        ib_iface.c:1059 UCX  ERROR ibv_create_cq(cqe=256) failed: Connection timed out
[1740996399.336746] [ohm:3127373:0]        ib_iface.c:1059 UCX  ERROR ibv_create_cq(cqe=256) failed: Connection timed out
[1740996399.336747] [ohm:3127383:0]        ib_iface.c:1059 UCX  ERROR ibv_create_cq(cqe=256) failed: Connection timed out
[1740996399.339242] [ohm:3127370:0]        ib_iface.c:1059 UCX  ERROR ibv_create_cq(cqe=256) failed: Connection timed out
[1740996399.343184] [ohm:3127372:0]        ib_iface.c:1059 UCX  ERROR ibv_create_cq(cqe=256) failed: Connection timed out
[1740996399.343196] [ohm:3127366:0]        ib_iface.c:1059 UCX  ERROR ibv_create_cq(cqe=256) failed: Connection timed out
[1740996399.343203] [ohm:3127368:0]        ib_iface.c:1059 UCX  ERROR ibv_create_cq(cqe=256) failed: Connection timed out
[1740996399.344858] [ohm:3127377:0]        ib_iface.c:1059 UCX  ERROR ibv_create_cq(cqe=256) failed: Connection timed out
[1740996399.370486] [ohm:3127389:0]        ib_iface.c:1059 UCX  ERROR ibv_create_cq(cqe=256) failed: Connection timed out
[1740996399.373592] [ohm:3127387:0]        ib_iface.c:1059 UCX  ERROR ibv_create_cq(cqe=256) failed: Connection timed out


           ************************************************************
           *        Program running with 16 parallel MPI-processes    *
           *              working on a common directory               *
           ************************************************************
------------------------------------------------------------------------------
                        ORCA TD-DFT/TDA CALCULATION
------------------------------------------------------------------------------

Input orbitals are from        ... orca.gbw
CI-vector output               ... orca.cis
Solver                         ... FN-2001
Tamm-Dancoff approximation     ... operative
CIS-Integral strategy          ... AO-integrals
Integral handling              ... AO integral Direct
Max. core memory used          ... 512 MB
Reference state                ... UHF
Follow IRoot                   ... off
Number of operators            ... 2
Orbital ranges used for CIS calculation:
 Operator 0:  Orbitals   3... 12  to  11...181

-------------------
XC-INTEGRATION GRID
-------------------

General Integration Accuracy     IntAcc      ... 3.467
Radial Grid Type                 RadialGrid  ... OptM3 with GC (2021)
Angular Grid (max. ang.)         AngularGrid ... 1 (Lebedev-50)
Angular grid pruning method      GridPruning ... 4 (adaptive)
Weight generation scheme         WeightScheme... mBecke (2022)
Basis function cutoff            BFCut       ... 1.0000e-11
Integration weight cutoff        WCut        ... 1.0000e-14
Partially contracted basis set               ... off
Rotationally invariant grid construction     ... off
Angular grids for H and He will be reduced by one unit
Diffuse basis detected: some atoms will have their outermost
                        angular grid increased by 1.

Total number of grid points                  ...     4737
Total number of batches                      ...       76
Average number of points per batch           ...       62
Average number of grid points per atom       ...      677

---------------------
COSX-INTEGRATION GRID
---------------------

General Integration Accuracy     IntAcc      ... 3.067
Radial Grid Type                 RadialGrid  ... OptM3 with GC (2021)
Angular Grid (max. ang.)         AngularGrid ... 1 (Lebedev-50)
Angular grid pruning method      GridPruning ... 4 (adaptive)
Weight generation scheme         WeightScheme... mBecke (2022)
Basis function cutoff            BFCut       ... 1.0000e-11
Integration weight cutoff        WCut        ... 1.0000e-14
Partially contracted basis set               ... on
Rotationally invariant grid construction     ... off
Angular grids for H and He will be reduced by one unit
Diffuse basis detected: some atoms will have their outermost
                        angular grid increased by 1.

Total number of grid points                  ...     2153
Total number of batches                      ...       22
Average number of points per batch           ...       97
Average number of grid points per atom       ...      308

---------------
TD-DFT XC SETUP
---------------

DFT calculation                         ... on
Name of the grid file                   ... orca.grid_cis.tmp
RI-approximation                        ... on
Aux-basis dimension                     ... 0
Functional (TD-DFT)
  Functional kind                       .... Exchange-Correlation
  Functional name                       .... wB97M-V exchange-correlation functional
  Functional family                     .... Hybrid MGGA
  Functional refs                              
    [ 0] N. Mardirossian and M. Head-Gordon.,  J. Chem. Phys. 144, 214110 (2016), doi: 10.1063/1.4952647
  Fraction of HF Exchange (short range) .... 0.1500
  Fraction of HF Exchange (long range)  .... 1.0000
  Range separation parameter mu         .... 0.3000
  Functional external parameters        .... 17
    Parameter  0 _cx00      =  8.500000e-01 : u^00 coefficient for exchange
    Parameter  1 _cx01      =  1.007000e+00 : u^01 coefficient for exchange
    Parameter  2 _cx10      =  2.590000e-01 : u^10 coefficient for exchange
    Parameter  3 _css00     =  4.430000e-01 : u^00 coefficient for same-spin correlation
    Parameter  4 _css04     = -1.437000e+00 : u^04 coefficient for same-spin correlation
    Parameter  5 _css10     = -4.535000e+00 : u^10 coefficient for same-spin correlation
    Parameter  6 _css20     = -3.390000e+00 : u^20 coefficient for same-spin correlation
    Parameter  7 _css43     =  4.278000e+00 : u^43 coefficient for same-spin correlation
    Parameter  8 _cos00     =  1.000000e+00 : u^00 coefficient for opposite-spin correlation
    Parameter  9 _cos10     =  1.358000e+00 : u^10 coefficient for opposite-spin correlation
    Parameter 10 _cos20     =  2.924000e+00 : u^20 coefficient for opposite-spin correlation
    Parameter 11 _cos21     = -8.812000e+00 : u^21 coefficient for opposite-spin correlation
    Parameter 12 _cos60     = -1.390000e+00 : u^60 coefficient for opposite-spin correlation
    Parameter 13 _cos61     =  9.142000e+00 : u^61 coefficient for opposite-spin correlation
    Parameter 14 _alpha     =  1.000000e+00 : fraction of HF exchange
    Parameter 15 _beta      = -8.500000e-01 : fraction of short-range exchange
    Parameter 16 _omega     =  3.000000e-01 : range-separation constant
Hybrid DFT                              ... on
   Exchange mixing (TD-DFT)             ...  0.150
   GGA exch. scaling (TD-DFT)           ...  0.000
   GGA corr. scaling (TD-DFT)           ...  1.000
Range-Separated Exchange                ... on
   Range Range separation parameter mu  .... 0.300
   Max. amount of RS exchange (TD-DFT)  ...  0.850

Building densities             ... done
Calculating rho(r) on the grid ... done
Building xc-kernel on the grid ... done
                    *** TD-DFT CALCULATION INITIALIZED ***

------------------------
DAVIDSON-DIAGONALIZATION
------------------------

Dimension of the eigenvalue problem            ...   1710
Number of roots to be determined               ...      2
Maximum size of the expansion space            ...     20
Maximum number of iterations                   ...    100
Convergence tolerance for the residual         ...    2.500e-07
Convergence tolerance for the energies         ...    2.500e-07
Orthogonality tolerance                        ...    1.000e-14
Level Shift                                    ...    0.000e+00
Constructing the preconditioner                ... o.k.
Building the initial guess                     ... o.k.
Number of trial vectors determined             ...     20


                       ****Iteration    0****
   Time for iteration     :  TOTAL=0.2 TRAFO=0.0 COSX=0.2
   Size of expansion space: 6
   Lowest Energy          :    -0.217040000492
   Maximum Energy change  :     0.217040000492 (vector 0)
   Maximum residual norm  :     0.002043045245

                       ****Iteration    1****
   Time for iteration     :  TOTAL=0.1 TRAFO=0.0 RIJ=0.0 COSX=0.1
   Size of expansion space: 8
   Lowest Energy          :    -0.220239250466
   Maximum Energy change  :     0.009069862837 (vector 1)
   Maximum residual norm  :     0.000352885370

                       ****Iteration    2****
   Time for iteration     :  TOTAL=0.1 TRAFO=0.0 COSX=0.1
   Size of expansion space: 10
   Lowest Energy          :    -0.220271990296
   Maximum Energy change  :     0.003094836244 (vector 1)
   Maximum residual norm  :     0.000244385060

                       ****Iteration    3****
   Time for iteration     :  TOTAL=0.1 TRAFO=0.0 COSX=0.1
   Size of expansion space: 12
   Lowest Energy          :    -0.220272578257
   Maximum Energy change  :     0.001020511645 (vector 1)
   Maximum residual norm  :     0.000089662122

                       ****Iteration    4****
   Time for iteration     :  TOTAL=0.1 TRAFO=0.0 COSX=0.1
   Size of expansion space: 14
   Lowest Energy          :    -0.220272587127
   Maximum Energy change  :     0.000499635701 (vector 1)
   Maximum residual norm  :     0.000066592382

                       ****Iteration    5****
   Time for iteration     :  TOTAL=0.1 TRAFO=0.0 RIJ=0.0 COSX=0.1
   Size of expansion space: 16
   Lowest Energy          :    -0.220272587231
   Maximum Energy change  :     0.000242059860 (vector 1)
   Maximum residual norm  :     0.000088211903

                       ****Iteration    6****
   Time for iteration     :  TOTAL=0.1 TRAFO=0.0 COSX=0.1
   Size of expansion space: 18
   Lowest Energy          :    -0.220272587233
   Maximum Energy change  :     0.001259111000 (vector 1)
   Maximum residual norm  :     0.001106521398

                       ****Iteration    7****
   Time for iteration     :  TOTAL=0.1 TRAFO=0.0 COSX=0.1
   Size of expansion space: 20
   Lowest Energy          :    -0.220272587233
   Maximum Energy change  :     0.003254728002 (vector 1)
   Maximum residual norm  :     0.000474158282
   Rebuilding the expansion space

                       ****Iteration    8****
   Time for iteration     :  TOTAL=0.2 TRAFO=0.0 RIJ=0.0 COSX=0.1
   Size of expansion space: 4
   Lowest Energy          :    -0.220276252973
   Maximum Energy change  :     0.000481775550 (vector 1)
   Maximum residual norm  :     0.000125490798

                       ****Iteration    9****
   Time for iteration     :  TOTAL=0.1 TRAFO=0.0 COSX=0.1
   Size of expansion space: 6
   Lowest Energy          :    -0.220276252973
   Maximum Energy change  :     0.000128961606 (vector 1)
   Maximum residual norm  :     0.000026538234

                       ****Iteration   10****
   Time for iteration     :  TOTAL=0.1 TRAFO=0.0 RIJ=0.0 COSX=0.1
   Size of expansion space: 7
   Lowest Energy          :    -0.220276252973
   Maximum Energy change  :     0.000034345577 (vector 1)
   Maximum residual norm  :     0.000006574845

                       ****Iteration   11****
   Time for iteration     :  TOTAL=0.1 TRAFO=0.0 COSX=0.1
   Size of expansion space: 8
   Lowest Energy          :    -0.220276252973
   Maximum Energy change  :     0.000007571567 (vector 1)
   Maximum residual norm  :     0.000001585368

                       ****Iteration   12****
   Time for iteration     :  TOTAL=0.1 TRAFO=0.0 COSX=0.1
   Size of expansion space: 9
   Lowest Energy          :    -0.220276252973
   Maximum Energy change  :     0.000003627112 (vector 1)
   Maximum residual norm  :     0.000003758415

                       ****Iteration   13****
   Time for iteration     :  TOTAL=0.1 TRAFO=0.0 COSX=0.1
   Size of expansion space: 10
   Lowest Energy          :    -0.220276252973
   Maximum Energy change  :     0.000005426234 (vector 1)
   Maximum residual norm  :     0.000004772868

                       ****Iteration   14****
   Time for iteration     :  TOTAL=0.1 TRAFO=0.0 COSX=0.1
   Size of expansion space: 11
   Lowest Energy          :    -0.220276252973
   Maximum Energy change  :     0.000002110157 (vector 1)
   Maximum residual norm  :     0.000002420923

                       ****Iteration   15****
   Time for iteration     :  TOTAL=0.1 TRAFO=0.0 COSX=0.1
[...]
      f+2     :     0.000234
      f-2     :    -0.000007
      f+3     :    -0.000233
      f-3     :    -0.000046
  2 C s       :    -0.011225  s :    -0.011225
      pz      :     0.003187  p :    -0.003903
      px      :     0.000571
      py      :    -0.007661
      dz2     :     0.001224  d :    -0.009018
      dxz     :    -0.003677
      dyz     :    -0.007301
      dx2y2   :    -0.001151
      dxy     :     0.001888
      f0      :    -0.000126  f :     0.000562
      f+1     :    -0.000042
      f-1     :     0.000103
      f+2     :     0.000197
      f-2     :    -0.000010
      f+3     :     0.000402
      f-3     :     0.000038
  3 H s       :     0.003494  s :     0.003494
      pz      :     0.000426  p :    -0.000003
      px      :    -0.000118
      py      :    -0.000311
      dz2     :     0.000023  d :     0.000052
      dxz     :     0.000045
      dyz     :    -0.000013
      dx2y2   :     0.000028
      dxy     :    -0.000031
  4 H s       :     0.003499  s :     0.003499
      pz      :     0.000426  p :    -0.000006
      px      :    -0.000119
      py      :    -0.000313
      dz2     :     0.000023  d :     0.000052
      dxz     :     0.000045
      dyz     :    -0.000013
      dx2y2   :     0.000028
      dxy     :    -0.000031
  5 H s       :    -0.000712  s :    -0.000712
      pz      :     0.000688  p :    -0.007642
      px      :    -0.000647
      py      :    -0.007683
      dz2     :     0.000062  d :     0.000093
      dxz     :     0.000032
      dyz     :     0.000031
      dx2y2   :    -0.000003
      dxy     :    -0.000029
  6 H s       :    -0.000712  s :    -0.000712
      pz      :     0.000685  p :    -0.007639
      px      :    -0.000646
      py      :    -0.007678
      dz2     :     0.000062  d :     0.000093
      dxz     :     0.000032
      dyz     :     0.000031
      dx2y2   :    -0.000003
      dxy     :    -0.000029


                      *****************************
                      * MAYER POPULATION ANALYSIS *
                      *****************************

  NA   - Mulliken gross atomic population
  ZA   - Total nuclear charge
  QA   - Mulliken gross atomic charge
  VA   - Mayer's total valence
  BVA  - Mayer's bonded valence
  FA   - Mayer's free valence

  ATOM       NA         ZA         QA         VA         BVA        FA
  0 O      8.3721     8.0000    -0.3721     1.5710     1.7310    -0.1600
  1 C      6.1007     6.0000    -0.1007     3.5364     3.5149     0.0215
  2 C      6.4757     6.0000    -0.4757     3.3533     3.3880    -0.0348
  3 H      0.8117     1.0000     0.1883     1.0928     1.0784     0.0145
  4 H      0.8118     1.0000     0.1882     1.0929     1.0784     0.0145
  5 H      0.7140     1.0000     0.2860     0.9054     0.9292    -0.0238
  6 H      0.7141     1.0000     0.2859     0.9055     0.9293    -0.0238

  Mayer bond orders larger than 0.100000
B(  0-O ,  1-C ) :   0.8196 B(  0-O ,  2-C ) :   0.8807 B(  1-C ,  2-C ) :   0.6911 
B(  1-C ,  3-H ) :   1.0224 B(  1-C ,  4-H ) :   1.0224 B(  2-C ,  5-H ) :   0.9228 
B(  2-C ,  6-H ) :   0.9229 


-------
TIMINGS
-------

Total TD-DFT gradient time  ....        5.837 sec

Fock matrix formation       ....       1.215 sec  ( 20.8%)
  Coulomb formation         ....       0.935 sec  ( 76.9% of F)
  XC integration            ....       0.280 sec  ( 23.1% of F)
Z-vector equation           ....       1.944 sec  ( 33.3%)
Densities                   ....       0.000 sec  (  0.0%)
One electron gradient       ....       0.009 sec  (  0.2%)
Two electron gradient       ....       0.000 sec  (  0.0%)
RI-J Coulomb gradient       ....       0.092 sec  (  1.6%)
COSX gradient               ....       0.442 sec  (  7.6%)
XC gradient                 ....       1.922 sec  ( 32.9%)

Maximum memory used throughout the entire CIS-calculation: 35.8 MB
=> NOW LEAVING ORCA_CIS


-------------------------------------------------------------------------------
                          DFT DISPERSION CORRECTION                            
                                                                               
                              DFTD3 V3.1  Rev 1                                
                          USING Becke-Johnson damping                          
-------------------------------------------------------------------------------
The WB97M functional is recognized
Active option DFTDOPT                   ...         4   

molecular C6(AA) [au] = 350.958059 


            DFT-D V3
 parameters
 s6 scaling factor         :     1.0000 
 a1 scaling factor         :     0.5660 
 s8 scaling factor         :     0.3908 
 a2 scaling factor         :     3.1280 
 ad hoc parameters k1-k3   :    16.0000     1.3333    -4.0000 

 Edisp/kcal,au: -3.285905388236  -0.005236422992 
 E6   /kcal   :  -2.650212438 
 E8   /kcal   :  -0.635692950 
 % E8         :  19.346051548 

-------------------------   ----------------
Dispersion correction           -0.005236423
-------------------------   ----------------


-------------------------   --------------------
FINAL SINGLE POINT ENERGY      -153.868244444423
-------------------------   --------------------

[1740996408.327735] [ohm:3127480:0]        ib_iface.c:1059 UCX  ERROR ibv_create_cq(cqe=256) failed: Connection timed out
[1740996408.327921] [ohm:3127484:0]        ib_iface.c:1059 UCX  ERROR ibv_create_cq(cqe=256) failed: Connection timed out
[1740996408.340392] [ohm:3127479:0]        ib_iface.c:1059 UCX  ERROR ibv_create_cq(cqe=256) failed: Connection timed out
[1740996408.340393] [ohm:3127481:0]        ib_iface.c:1059 UCX  ERROR ibv_create_cq(cqe=256) failed: Connection timed out
[1740996408.350475] [ohm:3127482:0]        ib_iface.c:1059 UCX  ERROR ibv_create_cq(cqe=256) failed: Connection timed out
[1740996408.356681] [ohm:3127486:0]        ib_iface.c:1059 UCX  ERROR ibv_create_cq(cqe=256) failed: Connection timed out
[1740996408.358290] [ohm:3127489:0]        ib_iface.c:1059 UCX  ERROR ibv_create_cq(cqe=256) failed: Connection timed out
[1740996408.367970] [ohm:3127485:0]        ib_iface.c:1059 UCX  ERROR ibv_create_cq(cqe=256) failed: Connection timed out
[1740996408.367980] [ohm:3127491:0]        ib_iface.c:1059 UCX  ERROR ibv_create_cq(cqe=256) failed: Connection timed out
[1740996408.368092] [ohm:3127483:0]        ib_iface.c:1059 UCX  ERROR ibv_create_cq(cqe=256) failed: Connection timed out
[1740996408.368425] [ohm:3127487:0]        ib_iface.c:1059 UCX  ERROR ibv_create_cq(cqe=256) failed: Connection timed out
[1740996408.372634] [ohm:3127495:0]        ib_iface.c:1059 UCX  ERROR ibv_create_cq(cqe=256) failed: Connection timed out
[1740996408.374586] [ohm:3127492:0]        ib_iface.c:1059 UCX  ERROR ibv_create_cq(cqe=256) failed: Connection timed out
[1740996408.374804] [ohm:3127499:0]        ib_iface.c:1059 UCX  ERROR ibv_create_cq(cqe=256) failed: Connection timed out
[1740996408.380176] [ohm:3127503:0]        ib_iface.c:1059 UCX  ERROR ibv_create_cq(cqe=256) failed: Connection timed out
[1740996408.392011] [ohm:3127508:0]        ib_iface.c:1059 UCX  ERROR ibv_create_cq(cqe=256) failed: Connection timed out


           ************************************************************
           *        Program running with 16 parallel MPI-processes    *
           *              working on a common directory               *
           ************************************************************

------------------------------------------------------------------------------
                              ORCA PROPERTY CALCULATIONS
------------------------------------------------------------------------------

GBWName                                 ... orca.gbw
Number of atoms                         ...      7
Number of basis functions               ...    182
Max core memory                         ...   1024 MB

Electric properties:
Dipole moment                           ... YES
Quadrupole moment                       ...  NO
Static polarizability (Dipole/Dipole)   ...  NO
Static polarizability (Dipole/Quad.)    ...  NO
Static polarizability (Quad./Quad.)     ...  NO
Static polarizability (Velocity)        ...  NO

Atomic electric properties:
Dipole moment                           ...  NO
Quadrupole moment                       ...  NO
Static polarizability                   ...  NO

Choice of electric origin               ... Center of mass
Position of electric origin             ...     0.026774    -0.015388    -0.000056

General magnetic properties:
Magnetizability                         ...  NO

EPR properties:
g-Tensor (aka g-matrix)                 ...  NO
Zero-Field splitting spin-orbit         ...  NO
Zero-field splitting spin-spin          ...  NO
Hyperfine couplings                     ...  NO (   0 nuclei)
Quadrupole couplings                    ...  NO (   0 nuclei)
Contact density                         ...  NO (   0 nuclei)

NMR properties:
Chemical shifts                         ...  NO (   0 nuclei)
Spin-rotation constants                 ...  NO (   0 nuclei)
Spin-spin couplings                     ...  NO (   0 nuclei,    0 pairs)

Choice of magnetic origin               ... GIAO
Position of magnetic origin             ...     0.000000     0.000000     0.000000

Properties with geometric perturbations:
SCF Hessian                             ...  NO
IR spectrum                             ...  NO
VCD spectrum                            ...  NO
X-ray spectroscopy properties:
SCF XES/XAS/RIXS spectra                ...  NO


-------------
DIPOLE MOMENT
-------------

Method             : SCF
Type of density    : Electron Density
Multiplicity       :   3
Irrep              :   0
Energy             :  -153.6427317684582192 Eh
Relativity type    : 
Basis              : AO
                                X                 Y                 Z
Electronic contribution:      0.779050807       2.428304011      -0.000165033
Nuclear contribution   :     -0.082325432      -2.430951096       0.000196984
                        -----------------------------------------
Total Dipole Moment    :      0.696725375      -0.002647085       0.000031951
                        -----------------------------------------
Magnitude (a.u.)       :      0.696730404
Magnitude (Debye)      :      1.770947948



--------------------
Rotational spectrum 
--------------------
 
Rotational constants in cm-1:             0.863129             0.721226             0.466331 
Rotational constants in MHz :         25875.954413         21621.826273         13980.264709 

Dipole components along the rotational axes: 
x,y,z [a.u.] :     0.556800    -0.418816    -0.000044 
x,y,z [Debye]:     1.415273    -1.064547    -0.000112 

 

-------------
DIPOLE MOMENT
-------------

Method             : TDA/CIS
Type of density    : Electron Density
Level              : Relaxed density
State              :   1
Multiplicity       :   3
Irrep              :   0
Energy             :     0.0000000000000000 Eh
Relativity type    : 
Basis              : AO
                                X                 Y                 Z
Electronic contribution:     -0.095913199       1.138904009      -0.000161198
Nuclear contribution   :     -0.082325432      -2.430951096       0.000196984
                        -----------------------------------------
Total Dipole Moment    :     -0.178238632      -1.292047087       0.000035786
                        -----------------------------------------
Magnitude (a.u.)       :      1.304283207
Magnitude (Debye)      :      3.315224448



--------------------
Rotational spectrum 
--------------------
 
Rotational constants in cm-1:             0.863129             0.721226             0.466331 
Rotational constants in MHz :         25875.954413         21621.826273         13980.264709 

Dipole components along the rotational axes: 
x,y,z [a.u.] :    -0.915590    -0.928897     0.000000 
x,y,z [Debye]:    -2.327245    -2.361068     0.000000 

 

Dipole moment calculation done in   0.0 sec 

Maximum memory used throughout the entire PROP-calculation: 7.6 MB
[1740996409.020736] [ohm:3127568:0]        ib_iface.c:1059 UCX  ERROR ibv_create_cq(cqe=256) failed: Connection timed out
[1740996409.020744] [ohm:3127572:0]        ib_iface.c:1059 UCX  ERROR ibv_create_cq(cqe=256) failed: Connection timed out
[1740996409.043052] [ohm:3127567:0]        ib_iface.c:1059 UCX  ERROR ibv_create_cq(cqe=256) failed: Connection timed out
[1740996409.053952] [ohm:3127574:0]        ib_iface.c:1059 UCX  ERROR ibv_create_cq(cqe=256) failed: Connection timed out
[1740996409.054182] [ohm:3127570:0]        ib_iface.c:1059 UCX  ERROR ibv_create_cq(cqe=256) failed: Connection timed out
[1740996409.057368] [ohm:3127571:0]        ib_iface.c:1059 UCX  ERROR ibv_create_cq(cqe=256) failed: Connection timed out
[1740996409.057372] [ohm:3127579:0]        ib_iface.c:1059 UCX  ERROR ibv_create_cq(cqe=256) failed: Connection timed out
[1740996409.057660] [ohm:3127577:0]        ib_iface.c:1059 UCX  ERROR ibv_create_cq(cqe=256) failed: Connection timed out
[1740996409.057660] [ohm:3127583:0]        ib_iface.c:1059 UCX  ERROR ibv_create_cq(cqe=256) failed: Connection timed out
[1740996409.058180] [ohm:3127573:0]        ib_iface.c:1059 UCX  ERROR ibv_create_cq(cqe=256) failed: Connection timed out
[1740996409.059146] [ohm:3127575:0]        ib_iface.c:1059 UCX  ERROR ibv_create_cq(cqe=256) failed: Connection timed out
[1740996409.060009] [ohm:3127569:0]        ib_iface.c:1059 UCX  ERROR ibv_create_cq(cqe=256) failed: Connection timed out
[1740996409.076336] [ohm:3127592:0]        ib_iface.c:1059 UCX  ERROR ibv_create_cq(cqe=256) failed: Connection timed out
[1740996409.076434] [ohm:3127587:0]        ib_iface.c:1059 UCX  ERROR ibv_create_cq(cqe=256) failed: Connection timed out
[1740996409.096292] [ohm:3127597:0]        ib_iface.c:1059 UCX  ERROR ibv_create_cq(cqe=256) failed: Connection timed out
[1740996409.098041] [ohm:3127594:0]        ib_iface.c:1059 UCX  ERROR ibv_create_cq(cqe=256) failed: Connection timed out

--------------------------------
SUGGESTED CITATIONS FOR THIS RUN
--------------------------------

Below you find a list of papers that are relevant to this ORCA run
We neither can nor want to force you to cite these papers, but we appreciate if you do
You receive ORCA, which is the product of decades of hard work by many enthusiastic individuals, for free
The only thing we kindly ask in return is that you cite our papers,
We deeply appreciate it, if you show your appreciation for ORCA by not just citing the generic ORCA reference.

Please note that relegating all ORCA citations to the supporting information does *not* help us.
SI sections are not indexed - citations you put there will not count into any citation statistics
But we need these citations in order to attract the funding resources that allow us to do what we are doing

Therefore, if you are a happy ORCA user, please consider citing a few of the papers listed below in the main body of your paper

In addition to the list printed below, the program has created the file orca.bibtex that contains the list in bibtex format
You can import this file easily into all common literature databanks and citation aid programs


List of essential papers. We consider these as the minimum necessary citations

  1. Neese,F.
     Software update: the ORCA program system, version 5.0
     WIRES Comput. Molec. Sci., 2022 12(1)e1606
     doi.org/10.1002/wcms.1606

List of papers to cite with high priority. The work reported in these papers was absolutely
necessary for this run to complete.
Our perspective: the developers of density functionals and basis sets usually get cited in chemistry papers
Good! But without the algorithms to do something with them, the functionals or basis sets would not do anything.
Hence, in our opinion, the algorithm design and method developments papers are equally worthy of getting cited

  1. Neese,F.; Olbrich,G.
     Efficient use of the resolution of the identity approximation in time-dependent density functional calculations with hybrid density functionals
     Chem. Phys. Lett., 2002 362 170-178
     doi.org/10.1016/s0009-2614(02)01053-9
  2. Neese,F.
     An improvement of the resolution of the identity approximation for the formation of the Coulomb matrix
     J. Comp. Chem., 2003 24(14)1740-1747
     doi.org/10.1002/jcc.10318
  3. Neese,F.; Wennmohs,F.; Hansen,A.; Becker,U.
     Efficient, approximate and parallel Hartree-Fock and hybrid DFT calculations. A 'chain-of-spheres' algorithm for the Hartree-Fock exchange
     Chem. Phys., 2009 356(1-3)98-109
     doi.org/10.1016/j.chemphys.2008.10.036
  4. Petrenko,T.; Kossmann,S.; Neese,F.
     Efficient time-dependent density functional theory approximations for hybrid density functionals: Analytical gradients and parallelization
     J. Chem. Phys., 2011 134 054116
     doi.org/10.1063/1.3533441
  5. Helmich-Paris,B.; de Souza,B.; Neese,F.; Izsák,R.
     An improved chain of spheres for exchange algorithm
     J. Chem. Phys., 2021 155 104109
     doi.org/doi: 10.1063/5.0058766.
  6. Neese,F.
     The SHARK Integral Generation and Digestion System
     J. Comp. Chem., 2022  1-16
     doi.org/10.1002/jcc.26942
  7. Lehtola,S.; Steigemann,C.; Oliveira,M.; Marques,M.
     Recent developments in Libxc - A comprehensive library of functionals for density functional theory
     Software X, 2018 7 
     doi.org/10.1016/j.softx.2017.11.002
  8. Grimme,S.; Antony,J.; Ehrlich,S.; Krieg,H.
     A consistent and accurate ab initio parametrization of density functional dispersion correction (DFT-D) for the 94 elements H-Pu
     J. Chem. Phys., 2010 132 154104-XXXX
     doi.org/10.1063/1.3382344
  9. Grimme,S.; Ehrlich,S.; Goerigk,L.
     Effect of the damping function in dispersion corrected density functional theory
     J. Comput. Chem., 2011 32(7)1456-1465
     doi.org/10.1002/jcc.21759

List of suggested additional citations. These are papers that are important in the 'surrounding' of 
of this run, or papers that preceded the highly important papers. If you like your results we are grateful for a citation.

  1. Izsak,R.; Neese,F.
     An overlap fitted chain of spheres exchange method
     J. Chem. Phys., 2011 135 144105
     doi.org/10.1063/1.3646921
  2. Izsak,R.; Hansen,A.; Neese,F.
     The resolution of identity and chain of spheres approximations for the LPNO-CCSD singles Fock term
     Molec. Phys., 2012 110 2413-2417
     doi.org/10.1080/00268976.2012.687466
  3. Neese,F.
     The ORCA program system
     WIRES Comput. Molec. Sci., 2012 2(1)73-78
     doi.org/10.1002/wcms.81
  4. Izsak,R.; Neese,F.; Klopper,W.
     Robust fitting techniques in the chain of spheres approximation to the Fock exchange: The role of the complementary space
     J. Chem. Phys., 2013 139 
     doi.org/10.1063/1.4819264
  5. Neese,F.
     Software update: the ORCA program system, version 4.0
     WIRES Comput. Molec. Sci., 2018 8(1)1-6
     doi.org/10.1002/wcms.1327
  6. Neese,F.; Wennmohs,F.; Becker,U.; Riplinger,C.
     The ORCA quantum chemistry program package
     J. Chem. Phys., 2020 152 Art. No. L224108
     doi.org/10.1063/5.0004608

List of optional additional citations

  1. Neese,F.
     Approximate second-order SCF convergence for spin unrestricted wavefunctions
     Chem. Phys. Lett., 2000 325(1-3)93-98
     doi.org/10.1016/s0009-2614(00)00662-x

Timings for individual modules:

Sum of individual times          ...       19.528 sec (=   0.325 min)
Startup calculation              ...        0.974 sec (=   0.016 min)   5.0 %
SCF iterations                   ...        8.180 sec (=   0.136 min)  41.9 %
Property integrals               ...        0.699 sec (=   0.012 min)   3.6 %
Property calculations            ...        0.674 sec (=   0.011 min)   3.5 %
CIS module                       ...        9.001 sec (=   0.150 min)  46.1 %
                             ****ORCA TERMINATED NORMALLY****
TOTAL RUN TIME: 0 days 0 hours 0 minutes 20 seconds 297 msec
