
                                 *****************
                                 * O   R   C   A *
                                 *****************

                                            #,                                       
                                            ###                                      
                                            ####                                     
                                            #####                                    
                                            ######                                   
                                           ########,                                 
                                     ,,################,,,,,                         
                               ,,#################################,,                 
                          ,,##########################################,,             
                       ,#########################################, ''#####,          
                    ,#############################################,,   '####,        
                  ,##################################################,,,,####,       
                ,###########''''           ''''###############################       
              ,#####''   ,,,,##########,,,,          '''####'''          '####       
            ,##' ,,,,###########################,,,                        '##       
           ' ,,###''''                  '''############,,,                           
         ,,##''                                '''############,,,,        ,,,,,,###''
      ,#''                                            '''#######################'''  
     '                                                          ''''####''''         
             ,#######,   #######,   ,#######,      ##                                
            ,#'     '#,  ##    ##  ,#'     '#,    #''#        ,####,   ,####,        
            ##       ##  ##   ,#'  ##            #'  '#       #'       #'  '#        
            ##       ##  #######   ##           ,######,      #####,   #    #        
            '#,     ,#'  ##    ##  '#,     ,#' ,#      #,     #,   #   #,  ,#        
             '#######'   ##     ##  '#######'  #'      '#     '####' # '####'        



                #########################################################
                #                        -***-                          #
                #          Department of theory and spectroscopy        #
                #                                                       #
                #                      Frank Neese                      #
                #                                                       #
                #     Directorship, Architecture, Infrastructure        #
                #                    SHARK, DRIVERS                     #
                #        Core code/Algorithms in most modules           #
                #                                                       #
                #        Max Planck Institute fuer Kohlenforschung      #
                #                Kaiser Wilhelm Platz 1                 #
                #                 D-45470 Muelheim/Ruhr                 #
                #                      Germany                          #
                #                                                       #
                #                  All rights reserved                  #
                #                        -***-                          #
                #########################################################


                         Program Version 6.0.0  -   RELEASE  -


 With contributions from (in alphabetic order):
   Daniel Aravena         : Magnetic Suceptibility
   Michael Atanasov       : Ab Initio Ligand Field Theory (pilot matlab implementation)
   Alexander A. Auer      : GIAO ZORA, VPT2 properties, NMR spectrum
   Ute Becker             : All parallelization in ORCA, NUMFREQ, NUMCALC
   Giovanni Bistoni       : ED, misc. LED, open-shell LED, HFLD
   Martin Brehm           : Molecular dynamics
   Dmytro Bykov           : pre 5.0 version of the SCF Hessian
   Marcos Casanova-Páez   : Triplet and SCS-CIS(D). UHF-(DLPNO)-IP/EA/STEOM-CCSD. UHF-CVS-IP/STEOM-CCSD
   Vijay G. Chilkuri      : MRCI spin determinant printing, contributions to CSF-ICE
   Pauline Colinet        : FMM embedding
   Dipayan Datta          : RHF DLPNO-CCSD density
   Achintya Kumar Dutta   : EOM-CC, STEOM-CC
   Nicolas Foglia         : Exact transition moments, OPA infrastructure, MCD improvements
   Dmitry Ganyushin       : Spin-Orbit,Spin-Spin,Magnetic field MRCI
   Miquel Garcia          : C-PCM and meta-GGA Hessian, CCSD/C-PCM, Gaussian charge scheme
   Tiago L. C. Gouveia    : GS-ROHF, GS-ROCIS
   Yang Guo               : DLPNO-NEVPT2, F12-NEVPT2, CIM, IAO-localization
   Andreas Hansen         : Spin unrestricted coupled pair/coupled cluster methods
   Ingolf Harden          : AUTO-CI MPn and infrastructure 
   Benjamin Helmich-Paris : MC-RPA, TRAH-(SCF,CASSCF), AVAS, COSX integrals, SCF dyn. polar.
   Lee Huntington         : MR-EOM, pCC
   Robert Izsak           : Overlap fitted RIJCOSX, COSX-SCS-MP3, EOM
   Riya Kayal             : Wick's Theorem for AUTO-CI, AUTO-CI UHF-CCSDT
   Emily Kempfer          : AUTO-CI, RHF CISDT and CCSDT
   Christian Kollmar      : KDIIS, OOCD, Brueckner-CCSD(T), CCSD density, CASPT2, CASPT2-K, improved NEVPT2
   Axel Koslowski         : Symmetry handling
   Simone Kossmann        : Meta GGA functionals, TD-DFT gradient, OOMP2, (MP2 Hessian; deprecated post 5.0)
   Lucas Lang             : DCDCAS
   Marvin Lechner         : AUTO-CI (C++ implementation), FIC-MRCC
   Spencer Leger          : CASSCF response
   Dagmar Lenk            : GEPOL surface, SMD, ORCA-2-JSON
   Dimitrios Liakos       : Extrapolation schemes; Compound Job, initial MDCI parallelization
   Dimitrios Manganas     : Further ROCIS development; embedding schemes. LFT, Crystal Embedding
   Dimitrios Pantazis     : SARC Basis sets
   Anastasios Papadopoulos: AUTO-CI, single reference methods and gradients
   Taras Petrenko         : pre 6.0 DFT Hessian and TD-DFT gradient, (ASA, deprecated), ECA, 1-Electron XAS/XES, NRVS
   Peter Pinski           : DLPNO-MP2, DLPNO-MP2 Gradient
   Christoph Reimann      : Effective Core Potentials
   Marius Retegan         : Local ZFS, SOC
   Christoph Riplinger    : Optimizer, TS searches, QM/MM, DLPNO-CCSD(T), (RO)-DLPNO pert. Triples
   Michael Roemelt        : Original ROCIS implementation
   Masaaki Saitow         : Open-shell DLPNO-CCSD energy and density
   Barbara Sandhoefer     : DKH picture change effects
   Kantharuban Sivalingam : CASSCF convergence/infrastructure, NEVPT2 and variants, FIC-MRCI
   Bernardo de Souza      : ESD, SOC TD-DFT
   Georgi Stoychev        : AutoAux, RI-MP2 NMR, DLPNO-MP2 response, X2C
   Van Anh Tran           : RI-MP2 g-tensors
   Willem Van den Heuvel  : Paramagnetic NMR
   Zikuan Wang            : NOTCH, Electric field optimization 
   Frank Wennmohs         : Technical directorship and infrastructure
   Hang Xu                : AUTO-CI-Response properties 


 We gratefully acknowledge several colleagues who have allowed us to
 interface, adapt or use parts of their codes:
   Stefan Grimme, W. Hujo, H. Kruse, P. Pracht,  : VdW corrections, initial TS optimization,
                  C. Bannwarth, S. Ehlert,         DFT functionals, gCP, sTDA/sTD-DF
                  L. Wittmann, M. Mueller
   Ed Valeev, F. Pavosevic, A. Kumar             : LibInt (2-el integral package), F12 methods
   Garnet Chan, S. Sharma, J. Yang, R. Olivares  : DMRG
   Ulf Ekstrom                                   : XCFun DFT Library
   Mihaly Kallay                                 : mrcc  (arbitrary order and MRCC methods)
   Frank Weinhold                                : gennbo (NPA and NBO analysis)
   Simon Mueller                                 : openCOSMO-RS
   Christopher J. Cramer and Donald G. Truhlar   : smd solvation model
   Lars Goerigk                                  : TD-DFT with DH, B97 family of functionals
   V. Asgeirsson, H. Jonsson                     : NEB implementation
   FAccTs GmbH                                   : IRC, NEB, NEB-TS, DLPNO-Multilevel, CI-OPT
                                                   MM, QMMM, 2- and 3-layer-ONIOM, Crystal-QMMM,
                                                   LR-CPCM, SF, NACMEs, symmetry and pop. for TD-DFT,
                                                   nearIR, NL-DFT gradient (VV10), updates on ESD,
                                                   ML-optimized integration grids, MBIS, APM,
                                                   GOAT, DOCKER, SOLVATOR, interface openCOSMO-RS
   S Lehtola, MJT Oliveira, MAL Marques          : LibXC Library
   Liviu Ungur et al                             : ANISO software


 Your calculation uses the libint2 library for the computation of 2-el integrals
 For citations please refer to: http://libint.valeyev.net

 Your ORCA version has been built with support for libXC version: 6.2.2
 For citations please refer to: https://libxc.gitlab.io

 This ORCA versions uses:
   CBLAS   interface :  Fast vector & matrix operations
   LAPACKE interface :  Fast linear algebra routines
   SCALAPACK package :  Parallel linear algebra routines
   Shared memory     :  Shared parallel matrices
   BLAS/LAPACK       :  OpenBLAS 0.3.27  USE64BITINT DYNAMIC_ARCH NO_AFFINITY Zen SINGLE_THREADED
        Core in use  :  Zen
   Copyright (c) 2011-2014, The OpenBLAS Project


Your calculation utilizes the atom-pairwise dispersion correction
with the Becke-Johnson damping scheme (D3BJ)


Warning: RI is on but no J-basis has been assigned. Assigning Def2/J (nothing to worry about!)
================================================================================

----- Orbital basis set information -----
Your calculation utilizes the basis: def2-TZVPPD
   F. Weigend and R. Ahlrichs, Phys. Chem. Chem. Phys. 7, 3297 (2005).
   D. Rappoport and F. Furche, J. Chem. Phys. 133, 134105 (2010)
   D. Rappoport, J. Chem. Phys. 155, 124102 (2021).

----- AuxJ basis set information -----
Your calculation utilizes the auxiliary basis: def2/J
   F. Weigend, Phys. Chem. Chem. Phys. 8, 1057 (2006).

================================================================================
                                        WARNINGS
                       Please study these warnings very carefully!
================================================================================

Using LibXC functional ID 531 : wB97M-V exchange-correlation functional
[ 1]  N. Mardirossian and M. Head-Gordon.,  J. Chem. Phys. 144, 214110 (2016)
Using LibXC functional ID 531 : wB97M-V exchange-correlation functional
[ 1]  N. Mardirossian and M. Head-Gordon.,  J. Chem. Phys. 144, 214110 (2016)

WARNING: B97M-V or wB97M-V functional requested.
  ===> : libXC variant has now been activated.
         Any manually given DFX/HFX/RangeSep scaling parameters are IGNORED!

Your calculation utilizes LibXC
 by S Lehtola, C Steigemann, MJT Oliveira & MAL Marques
Please cite in your paper:
 S Lehtola, C Steigemann, MJT Oliveira & MAL Marques, SoftwareX, 7, (2018), 1.
   


WARNING: your system is open-shell and RHF/RKS was chosen
  ===> : WILL SWITCH to UHF/UKS

INFO   : Checking CIS options ...

WARNING: CIS/ROCIS methods need fully converged wavefunctions
  ===> : Setting SCFConvForced true
         You can overwrite this default with %scf ConvForced false 


================================================================================
                                       INPUT FILE
================================================================================
NAME = orca.inp
|  1> ! Engrad def2-TZVPPD wB97M-D3BJ 
|  2> %pal nprocs 8 end%pal nprocs 32 end 
|  3> %tddft Nroots 2 Iroot 2 
|  4> sf true 
|  5> end 
|  6> *xyz 0 3 
|  7> O   0.55950332 0.50209878 -0.79654125
|  8> C   0.3203041 0.08978806 0.42709204
|  9> C   -0.90885642 -0.62869041 0.40927493
| 10> H   0.37233744 0.82610823 1.21183098
| 11> H   1.24391078 -0.62100061 0.67092585
| 12> H   -1.56189373 -0.71838621 -0.48708423
| 13> H   -1.08387445 -1.11989442 1.33890846
| 14> *
| 15> 
| 16>                          ****END OF INPUT****
================================================================================

                     *******************************
                     * Energy+Gradient Calculation *
                     *******************************

---------------------------------
CARTESIAN COORDINATES (ANGSTROEM)
---------------------------------
  O      0.559503    0.502099   -0.796541
  C      0.320304    0.089788    0.427092
  C     -0.908856   -0.628690    0.409275
  H      0.372337    0.826108    1.211831
  H      1.243911   -0.621001    0.670926
  H     -1.561894   -0.718386   -0.487084
  H     -1.083874   -1.119894    1.338908

----------------------------
CARTESIAN COORDINATES (A.U.)
----------------------------
  NO LB      ZA    FRAG     MASS         X           Y           Z
   0 O     8.0000    0    15.999    1.057308    0.948829   -1.505245
   1 C     6.0000    0    12.011    0.605287    0.169675    0.807087
   2 C     6.0000    0    12.011   -1.717490   -1.188053    0.773418
   3 H     1.0000    0     1.008    0.703616    1.561118    2.290029
   4 H     1.0000    0     1.008    2.350651   -1.173521    1.267866
   5 H     1.0000    0     1.008   -2.951551   -1.357553   -0.920456
   6 H     1.0000    0     1.008   -2.048226   -2.116294    2.530170

--------------------------------
INTERNAL COORDINATES (ANGSTROEM)
--------------------------------
 O      0   0   0     0.000000000000     0.00000000     0.00000000
 C      1   0   0     1.313200222766     0.00000000     0.00000000
 C      2   1   0     1.423855450946   107.69889894     0.00000000
 H      2   1   3     1.077353268512   117.08624309   230.97143051
 H      2   1   3     1.190682476414   103.70685577   118.59689213
 H      3   2   1     1.112637770573   123.87835520   355.00018205
 H      3   2   1     1.065894549365   111.30738836   171.07717333

---------------------------
INTERNAL COORDINATES (A.U.)
---------------------------
 O      0   0   0     0.000000000000     0.00000000     0.00000000
 C      1   0   0     2.481588780031     0.00000000     0.00000000
 C      2   1   0     2.690696856579   107.69889894     0.00000000
 H      2   1   3     2.035902626972   117.08624309   230.97143051
 H      2   1   3     2.250063792882   103.70685577   118.59689213
 H      3   2   1     2.102580672640   123.87835520   355.00018205
 H      3   2   1     2.014248785939   111.30738836   171.07717333

---------------------
BASIS SET INFORMATION
---------------------
There are 3 groups of distinct atoms

 Group   1 Type O   : 12s7p3d1f contracted to 6s4p3d1f pattern {621111/4111/111/1}
 Group   2 Type C   : 12s6p3d1f contracted to 6s3p3d1f pattern {621111/411/111/1}
 Group   3 Type H   : 5s3p1d contracted to 3s3p1d pattern {311/111/1}

Atom   0O    basis set group =>   1
Atom   1C    basis set group =>   2
Atom   2C    basis set group =>   2
Atom   3H    basis set group =>   3
Atom   4H    basis set group =>   3
Atom   5H    basis set group =>   3
Atom   6H    basis set group =>   3
---------------------------------
AUXILIARY/J BASIS SET INFORMATION
---------------------------------
There are 3 groups of distinct atoms

 Group   1 Type O   : 12s5p4d2f1g contracted to 6s4p3d1f1g pattern {711111/2111/211/2/1}
 Group   2 Type C   : 12s5p4d2f1g contracted to 6s4p3d1f1g pattern {711111/2111/211/2/1}
 Group   3 Type H   : 5s2p1d contracted to 3s1p1d pattern {311/2/1}

Atom   0O    basis set group =>   1
Atom   1C    basis set group =>   2
Atom   2C    basis set group =>   2
Atom   3H    basis set group =>   3
Atom   4H    basis set group =>   3
Atom   5H    basis set group =>   3
Atom   6H    basis set group =>   3
[1741043708.430500] [ohm:335032:0]        ib_iface.c:1059 UCX  ERROR ibv_create_cq(cqe=256) failed: Connection timed out
[1741043708.430640] [ohm:335021:0]        ib_iface.c:1059 UCX  ERROR ibv_create_cq(cqe=256) failed: Connection timed out
[1741043708.435452] [ohm:335030:0]        ib_iface.c:1059 UCX  ERROR ibv_create_cq(cqe=256) failed: Connection timed out
[1741043708.437313] [ohm:335026:0]        ib_iface.c:1059 UCX  ERROR ibv_create_cq(cqe=256) failed: Connection timed out
[1741043708.438418] [ohm:335022:0]        ib_iface.c:1059 UCX  ERROR ibv_create_cq(cqe=256) failed: Connection timed out
[1741043708.439460] [ohm:335024:0]        ib_iface.c:1059 UCX  ERROR ibv_create_cq(cqe=256) failed: Connection timed out
[1741043708.459741] [ohm:335029:0]        ib_iface.c:1059 UCX  ERROR ibv_create_cq(cqe=256) failed: Connection timed out
[1741043708.514289] [ohm:335058:0]        ib_iface.c:1059 UCX  ERROR ibv_create_cq(cqe=256) failed: Connection timed out
[1741043708.517055] [ohm:335046:0]        ib_iface.c:1059 UCX  ERROR ibv_create_cq(cqe=256) failed: Connection timed out
[1741043708.526756] [ohm:335039:0]        ib_iface.c:1059 UCX  ERROR ibv_create_cq(cqe=256) failed: Connection timed out
[1741043708.526810] [ohm:335042:0]        ib_iface.c:1059 UCX  ERROR ibv_create_cq(cqe=256) failed: Connection timed out
[1741043708.526963] [ohm:335040:0]        ib_iface.c:1059 UCX  ERROR ibv_create_cq(cqe=256) failed: Connection timed out
[1741043708.527001] [ohm:335061:0]        ib_iface.c:1059 UCX  ERROR ibv_create_cq(cqe=256) failed: Connection timed out
[1741043708.527913] [ohm:335041:0]        ib_iface.c:1059 UCX  ERROR ibv_create_cq(cqe=256) failed: Connection timed out
[1741043708.528042] [ohm:335033:0]        ib_iface.c:1059 UCX  ERROR ibv_create_cq(cqe=256) failed: Connection timed out
[1741043708.528303] [ohm:335020:0]        ib_iface.c:1059 UCX  ERROR ibv_create_cq(cqe=256) failed: Connection timed out
[1741043708.528406] [ohm:335025:0]        ib_iface.c:1059 UCX  ERROR ibv_create_cq(cqe=256) failed: Connection timed out
[1741043708.528867] [ohm:335037:0]        ib_iface.c:1059 UCX  ERROR ibv_create_cq(cqe=256) failed: Connection timed out
[1741043708.529082] [ohm:335034:0]        ib_iface.c:1059 UCX  ERROR ibv_create_cq(cqe=256) failed: Connection timed out
[1741043708.529166] [ohm:335047:0]        ib_iface.c:1059 UCX  ERROR ibv_create_cq(cqe=256) failed: Connection timed out
[1741043708.529432] [ohm:335035:0]        ib_iface.c:1059 UCX  ERROR ibv_create_cq(cqe=256) failed: Connection timed out
[1741043708.529430] [ohm:335036:0]        ib_iface.c:1059 UCX  ERROR ibv_create_cq(cqe=256) failed: Connection timed out
[1741043708.529428] [ohm:335044:0]        ib_iface.c:1059 UCX  ERROR ibv_create_cq(cqe=256) failed: Connection timed out
[1741043708.529444] [ohm:335027:0]        ib_iface.c:1059 UCX  ERROR ibv_create_cq(cqe=256) failed: Connection timed out
[1741043708.530736] [ohm:335023:0]        ib_iface.c:1059 UCX  ERROR ibv_create_cq(cqe=256) failed: Connection timed out
[1741043708.531784] [ohm:335031:0]        ib_iface.c:1059 UCX  ERROR ibv_create_cq(cqe=256) failed: Connection timed out
[1741043708.534928] [ohm:335055:0]        ib_iface.c:1059 UCX  ERROR ibv_create_cq(cqe=256) failed: Connection timed out
[1741043708.535295] [ohm:335043:0]        ib_iface.c:1059 UCX  ERROR ibv_create_cq(cqe=256) failed: Connection timed out
[1741043708.535358] [ohm:335068:0]        ib_iface.c:1059 UCX  ERROR ibv_create_cq(cqe=256) failed: Connection timed out
[1741043708.535373] [ohm:335028:0]        ib_iface.c:1059 UCX  ERROR ibv_create_cq(cqe=256) failed: Connection timed out
[1741043708.535628] [ohm:335038:0]        ib_iface.c:1059 UCX  ERROR ibv_create_cq(cqe=256) failed: Connection timed out
[1741043708.535642] [ohm:335045:0]        ib_iface.c:1059 UCX  ERROR ibv_create_cq(cqe=256) failed: Connection timed out


           ************************************************************
           *        Program running with 32 parallel MPI-processes    *
           *              working on a common directory               *
           ************************************************************
------------------------------------------------------------------------------
                             ORCA STARTUP CALCULATIONS
                           -- RI-GTO INTEGRALS CHOSEN --
------------------------------------------------------------------------------
------------------------------------------------------------------------------
                   ___                                                        
                  /   \      - P O W E R E D   B Y -                         
                 /     \                                                     
                 |  |  |   _    _      __       _____    __    __             
                 |  |  |  | |  | |    /  \     |  _  \  |  |  /  |          
                  \  \/   | |  | |   /    \    | | | |  |  | /  /          
                 / \  \   | |__| |  /  /\  \   | |_| |  |  |/  /          
                |  |  |   |  __  | /  /__\  \  |    /   |      \           
                |  |  |   | |  | | |   __   |  |    \   |  |\   \          
                \     /   | |  | | |  |  |  |  | |\  \  |  | \   \       
                 \___/    |_|  |_| |__|  |__|  |_| \__\ |__|  \__/        
                                                                              
                      - O R C A' S   B I G   F R I E N D -                    
                                      &                                       
                       - I N T E G R A L  F E E D E R -                       
                                                                              
 v1 FN, 2020, v2 2021, v3 2022-2024                                           
------------------------------------------------------------------------------


----------------------
SHARK INTEGRAL PACKAGE
----------------------

Number of atoms                             ...      7
Number of basis functions                   ...    182
Number of shells                            ...     68
Maximum angular momentum                    ...      3
Integral batch strategy                     ... SHARK/LIBINT Hybrid
RI-J (if used) integral strategy            ... SPLIT-RIJ (Revised 2003 algorithm where possible)
Printlevel                                  ...      1
Contraction scheme used                     ... SEGMENTED contraction
Prescreening option                         ... SCHWARTZ
   Thresh                                   ... 2.500e-11
   Tcut                                     ... 2.500e-12
   Tpresel                                  ... 2.500e-12 
Coulomb Range Separation                    ... NOT USED
Exchange Range Separation                   ... Long Range
   Mu parameter                             ... 3.000e-01
   Scaling (regular/separated)              ... 1.500e-01 8.500e-01
Multipole approximations                    ... NOT USED
Finite Nucleus Model                        ... NOT USED
CABS basis                                  ... NOT available
Auxiliary Coulomb fitting basis             ... AVAILABLE
   # of basis functions in Aux-J            ...    191
   # of shells in Aux-J                     ...     65
   Maximum angular momentum in Aux-J        ...      4
Auxiliary J/K fitting basis                 ... NOT available
Auxiliary Correlation fitting basis         ... NOT available
Auxiliary 'external' fitting basis          ... NOT available

Checking pre-screening integrals            ... done (  0.0 sec) Dimension = 68
Check shell pair data                       ... done (  0.0 sec)
Shell pair information
Shell pair cut-off parameter TPreSel        ...   2.5e-12
Total number of shell pairs                 ...      2346
Shell pairs after pre-screening             ...      2332
Total number of primitive shell pairs       ...      5434
Primitive shell pairs kept                  ...      4854
          la=0 lb=0:    457 shell pairs
          la=1 lb=0:    657 shell pairs
          la=1 lb=1:    253 shell pairs
          la=2 lb=0:    387 shell pairs
          la=2 lb=1:    286 shell pairs
          la=2 lb=2:     91 shell pairs
          la=3 lb=0:     90 shell pairs
          la=3 lb=1:     66 shell pairs
          la=3 lb=2:     39 shell pairs
          la=3 lb=3:      6 shell pairs

Calculating one electron integrals          ... done (  0.0 sec)
Calculating RI/J V-Matrix + Cholesky decomp.... done (  0.0 sec)
Calculating Nuclear repulsion               ... done (  0.0 sec) ENN=     70.223121611608 Eh

Diagonalization of the overlap matrix:
Smallest eigenvalue                        ... 1.671e-05
Time for diagonalization                   ...    0.003 sec
Threshold for overlap eigenvalues          ... 1.000e-07
Number of eigenvalues below threshold      ... 0
Time for construction of square roots      ...    0.003 sec
Total time needed                          ...    0.007 sec

-------------------
DFT GRID GENERATION
-------------------

General Integration Accuracy     IntAcc      ... 4.388
Radial Grid Type                 RadialGrid  ... OptM3 with GC (2021)
Angular Grid (max. ang.)         AngularGrid ... 4 (Lebedev-302)
Angular grid pruning method      GridPruning ... 4 (adaptive)
Weight generation scheme         WeightScheme... mBecke (2022)
Basis function cutoff            BFCut       ... 1.0000e-11
Integration weight cutoff        WCut        ... 1.0000e-14
Partially contracted basis set               ... off
Rotationally invariant grid construction     ... off
Angular grids for H and He will be reduced by one unit
Diffuse basis detected: some atoms will have their outermost
                        angular grid increased by 1.

Total number of grid points                  ...    33131
Total number of batches                      ...      522
Average number of points per batch           ...       63
Average number of grid points per atom       ...     4733

--------------------
COSX GRID GENERATION
--------------------

GRIDX 1
-------
General Integration Accuracy     IntAcc      ... 3.816
Radial Grid Type                 RadialGrid  ... OptM3 with GC (2021)
Angular Grid (max. ang.)         AngularGrid ... 1 (Lebedev-50)
Angular grid pruning method      GridPruning ... 4 (adaptive)
Weight generation scheme         WeightScheme... mBecke (2022)
Basis function cutoff            BFCut       ... 1.0000e-11
Integration weight cutoff        WCut        ... 1.0000e-14
Partially contracted basis set               ... on
Rotationally invariant grid construction     ... off
Angular grids for H and He will be reduced by one unit
Diffuse basis detected: some atoms will have their outermost
                        angular grid increased by 1.

Total number of grid points                  ...     4162
Total number of batches                      ...       36
Average number of points per batch           ...      115
Average number of grid points per atom       ...      595
UseSFitting                                  ... on

GRIDX 2
-------
General Integration Accuracy     IntAcc      ... 4.020
Radial Grid Type                 RadialGrid  ... OptM3 with GC (2021)
Angular Grid (max. ang.)         AngularGrid ... 2 (Lebedev-110)
Angular grid pruning method      GridPruning ... 4 (adaptive)
Weight generation scheme         WeightScheme... mBecke (2022)
Basis function cutoff            BFCut       ... 1.0000e-11
Integration weight cutoff        WCut        ... 1.0000e-14
Partially contracted basis set               ... on
Rotationally invariant grid construction     ... off
Angular grids for H and He will be reduced by one unit
Diffuse basis detected: some atoms will have their outermost
                        angular grid increased by 1.

Total number of grid points                  ...    10277
Total number of batches                      ...       82
Average number of points per batch           ...      125
Average number of grid points per atom       ...     1468
UseSFitting                                  ... on

GRIDX 3
-------
General Integration Accuracy     IntAcc      ... 4.338
Radial Grid Type                 RadialGrid  ... OptM3 with GC (2021)
Angular Grid (max. ang.)         AngularGrid ... 3 (Lebedev-194)
Angular grid pruning method      GridPruning ... 4 (adaptive)
Weight generation scheme         WeightScheme... mBecke (2022)
Basis function cutoff            BFCut       ... 1.0000e-11
Integration weight cutoff        WCut        ... 1.0000e-14
Partially contracted basis set               ... on
Rotationally invariant grid construction     ... off
Angular grids for H and He will be reduced by one unit
Diffuse basis detected: some atoms will have their outermost
                        angular grid increased by 1.

Total number of grid points                  ...    23108
Total number of batches                      ...      185
Average number of points per batch           ...      124
Average number of grid points per atom       ...     3301
UseSFitting                                  ... on
Initializing property integral containers    ... done (  0.0 sec)

SHARK setup successfully completed in   0.3 seconds

Maximum memory used throughout the entire STARTUP-calculation: 13.8 MB
[1741043709.666290] [ohm:335192:0]        ib_iface.c:1059 UCX  ERROR ibv_create_cq(cqe=256) failed: Connection timed out
[1741043709.666405] [ohm:335188:0]        ib_iface.c:1059 UCX  ERROR ibv_create_cq(cqe=256) failed: Connection timed out
[1741043709.671375] [ohm:335193:0]        ib_iface.c:1059 UCX  ERROR ibv_create_cq(cqe=256) failed: Connection timed out
[1741043709.672404] [ohm:335194:0]        ib_iface.c:1059 UCX  ERROR ibv_create_cq(cqe=256) failed: Connection timed out
[1741043709.714682] [ohm:335203:0]        ib_iface.c:1059 UCX  ERROR ibv_create_cq(cqe=256) failed: Connection timed out
[1741043709.716712] [ohm:335204:0]        ib_iface.c:1059 UCX  ERROR ibv_create_cq(cqe=256) failed: Connection timed out
[1741043709.726871] [ohm:335190:0]        ib_iface.c:1059 UCX  ERROR ibv_create_cq(cqe=256) failed: Connection timed out
[1741043709.746083] [ohm:335222:0]        ib_iface.c:1059 UCX  ERROR ibv_create_cq(cqe=256) failed: Connection timed out
[1741043709.746171] [ohm:335211:0]        ib_iface.c:1059 UCX  ERROR ibv_create_cq(cqe=256) failed: Connection timed out
[1741043709.746291] [ohm:335197:0]        ib_iface.c:1059 UCX  ERROR ibv_create_cq(cqe=256) failed: Connection timed out
[1741043709.746494] [ohm:335236:0]        ib_iface.c:1059 UCX  ERROR ibv_create_cq(cqe=256) failed: Connection timed out
[1741043709.752371] [ohm:335191:0]        ib_iface.c:1059 UCX  ERROR ibv_create_cq(cqe=256) failed: Connection timed out
[1741043709.752434] [ohm:335196:0]        ib_iface.c:1059 UCX  ERROR ibv_create_cq(cqe=256) failed: Connection timed out
[1741043709.752573] [ohm:335198:0]        ib_iface.c:1059 UCX  ERROR ibv_create_cq(cqe=256) failed: Connection timed out
[1741043709.752665] [ohm:335218:0]        ib_iface.c:1059 UCX  ERROR ibv_create_cq(cqe=256) failed: Connection timed out
[1741043709.753896] [ohm:335223:0]        ib_iface.c:1059 UCX  ERROR ibv_create_cq(cqe=256) failed: Connection timed out
[1741043709.754825] [ohm:335201:0]        ib_iface.c:1059 UCX  ERROR ibv_create_cq(cqe=256) failed: Connection timed out
[1741043709.754824] [ohm:335221:0]        ib_iface.c:1059 UCX  ERROR ibv_create_cq(cqe=256) failed: Connection timed out
[1741043709.754824] [ohm:335207:0]        ib_iface.c:1059 UCX  ERROR ibv_create_cq(cqe=256) failed: Connection timed out
[1741043709.754871] [ohm:335200:0]        ib_iface.c:1059 UCX  ERROR ibv_create_cq(cqe=256) failed: Connection timed out
[1741043709.755347] [ohm:335226:0]        ib_iface.c:1059 UCX  ERROR ibv_create_cq(cqe=256) failed: Connection timed out
[1741043709.757076] [ohm:335189:0]        ib_iface.c:1059 UCX  ERROR ibv_create_cq(cqe=256) failed: Connection timed out
[1741043709.757079] [ohm:335215:0]        ib_iface.c:1059 UCX  ERROR ibv_create_cq(cqe=256) failed: Connection timed out
[1741043709.757862] [ohm:335208:0]        ib_iface.c:1059 UCX  ERROR ibv_create_cq(cqe=256) failed: Connection timed out
[1741043709.758197] [ohm:335233:0]        ib_iface.c:1059 UCX  ERROR ibv_create_cq(cqe=256) failed: Connection timed out
[1741043709.758300] [ohm:335195:0]        ib_iface.c:1059 UCX  ERROR ibv_create_cq(cqe=256) failed: Connection timed out
[1741043709.758408] [ohm:335199:0]        ib_iface.c:1059 UCX  ERROR ibv_create_cq(cqe=256) failed: Connection timed out
[1741043709.758461] [ohm:335219:0]        ib_iface.c:1059 UCX  ERROR ibv_create_cq(cqe=256) failed: Connection timed out
[1741043709.759443] [ohm:335202:0]        ib_iface.c:1059 UCX  ERROR ibv_create_cq(cqe=256) failed: Connection timed out
[1741043709.759942] [ohm:335230:0]        ib_iface.c:1059 UCX  ERROR ibv_create_cq(cqe=256) failed: Connection timed out
[1741043709.759937] [ohm:335224:0]        ib_iface.c:1059 UCX  ERROR ibv_create_cq(cqe=256) failed: Connection timed out
[1741043709.760620] [ohm:335240:0]        ib_iface.c:1059 UCX  ERROR ibv_create_cq(cqe=256) failed: Connection timed out


           ************************************************************
           *        Program running with 32 parallel MPI-processes    *
           *              working on a common directory               *
           ************************************************************
-------------------------------------------------------------------------------
                                 ORCA GUESS
                   Start orbitals & Density for SCF / CASSCF
-------------------------------------------------------------------------------

------------
SCF SETTINGS
------------
Hamiltonian:
 Density Functional     Method          .... DFT(GTOs)
  Functional kind                       .... Exchange-Correlation
  Functional name                       .... wB97M-V exchange-correlation functional
  Functional family                     .... Hybrid MGGA
  Functional refs                              
    [ 0] N. Mardirossian and M. Head-Gordon.,  J. Chem. Phys. 144, 214110 (2016), doi: 10.1063/1.4952647
  Fraction of HF Exchange (short range) .... 0.1500
  Fraction of HF Exchange (long range)  .... 1.0000
  Range separation parameter mu         .... 0.3000
  Functional external parameters        .... 17
    Parameter  0 _cx00      =  8.500000e-01 : u^00 coefficient for exchange
    Parameter  1 _cx01      =  1.007000e+00 : u^01 coefficient for exchange
    Parameter  2 _cx10      =  2.590000e-01 : u^10 coefficient for exchange
    Parameter  3 _css00     =  4.430000e-01 : u^00 coefficient for same-spin correlation
    Parameter  4 _css04     = -1.437000e+00 : u^04 coefficient for same-spin correlation
    Parameter  5 _css10     = -4.535000e+00 : u^10 coefficient for same-spin correlation
    Parameter  6 _css20     = -3.390000e+00 : u^20 coefficient for same-spin correlation
    Parameter  7 _css43     =  4.278000e+00 : u^43 coefficient for same-spin correlation
    Parameter  8 _cos00     =  1.000000e+00 : u^00 coefficient for opposite-spin correlation
    Parameter  9 _cos10     =  1.358000e+00 : u^10 coefficient for opposite-spin correlation
    Parameter 10 _cos20     =  2.924000e+00 : u^20 coefficient for opposite-spin correlation
    Parameter 11 _cos21     = -8.812000e+00 : u^21 coefficient for opposite-spin correlation
    Parameter 12 _cos60     = -1.390000e+00 : u^60 coefficient for opposite-spin correlation
    Parameter 13 _cos61     =  9.142000e+00 : u^61 coefficient for opposite-spin correlation
    Parameter 14 _alpha     =  1.000000e+00 : fraction of HF exchange
    Parameter 15 _beta      = -8.500000e-01 : fraction of short-range exchange
    Parameter 16 _omega     =  3.000000e-01 : range-separation constant
 Long-range corrected/Screened/Range-Separated Hybrid DFT is turned on
   Amount of maximum screened exact exchange              ....  0.850000
   Range separation parameter mu (erf(mu*r12)/r12)        ....  0.300000
 RI-approximation to the Coulomb term is turned on
   Number of AuxJ basis functions       .... 191
   RIJ-COSX (HFX calculated with COS-X)).... on


General Settings:
 Integral files         IntName         .... orca
 Hartree-Fock type      HFTyp           .... UHF
 Total Charge           Charge          ....    0
 Multiplicity           Mult            ....    3
 Number of Electrons    NEL             ....   24
 Basis Dimension        Dim             ....  182
 Nuclear Repulsion      ENuc            ....     70.2231216116 Eh

Convergence Acceleration:
 AO-DIIS                CNVDIIS         .... on
   Start iteration      DIISMaxIt       ....    12
   Startup error        DIISStart       ....  0.200000
   # of expansion vecs  DIISMaxEq       ....     5
   Bias factor          DIISBfac        ....   1.050
   Max. coefficient     DIISMaxC        ....  10.000
 MO-DIIS                CNVKDIIS        .... off
 Trust-Rad. Augm. Hess. CNVTRAH         .... auto
   Auto Start mean grad. ratio tolernc. ....  1.125000
   Auto Start start iteration           ....    50
   Auto Start num. interpolation iter.  ....    10
   Max. Number of Micro iterations      ....    24
   Max. Number of Macro iterations      .... Maxiter - #DIIS iter
   Number of Davidson start vectors     ....     2
   Converg. threshold    (grad. norm)   ....   1.000e-05
   Grad. Scal. Fac. for Micro threshold ....   0.100
   Minimum threshold for Micro iter.    ....   1.000e-02
   NR start threshold (gradient norm)   ....   1.000e-04
   Initial trust radius                 ....   0.400
   Minimum AH scaling param. (alpha)    ....   1.000
   Maximum AH scaling param. (alpha)    .... 1000.000
   Quad. conv. algorithm                .... NR
   White noise on init. David. guess    .... on
   Maximum white noise                  ....   0.010
   Pseudo random numbers                .... off
   Inactive MOs                         .... canonical
   Orbital update algorithm             .... Taylor
   Preconditioner                       .... Diag
   Full preconditioner red. dimension   ....   250
 SOSCF                  CNVSOSCF        .... on
   Start iteration      SOSCFMaxIt      ....   150
   Startup grad/error   SOSCFStart      ....  0.003300
   Hessian update       SOSCFHessUp     .... L-BFGS
 Level Shifting         CNVShift        .... on
   Level shift para.    LevelShift      ....    0.2500
   Turn off err/grad.   ShiftErr        ....    0.0010
 Zerner damping         CNVZerner       .... off
 Static damping         CNVDamp         .... on
   Fraction old density DampFac         ....    0.7000
   Max. Damping (<1)    DampMax         ....    0.9800
   Min. Damping (>=0)   DampMin         ....    0.0000
   Turn off err/grad.   DampErr         ....    0.1000

SCF Procedure:
 Maximum # iterations   MaxIter         ....   125
 SCF integral mode      SCFMode         .... Direct
   Integral package                     .... SHARK and LIBINT hybrid scheme
 Reset frequency        DirectResetFreq ....    20
 Integral Threshold     Thresh          ....  2.500e-11 Eh
 Primitive CutOff       TCut            ....  2.500e-12 Eh

Convergence Tolerance:
 Convergence Check Mode ConvCheckMode   .... Total+1el-Energy
 Convergence forced     ConvForced      .... 1
 Energy Change          TolE            ....  1.000e-08 Eh
 1-El. energy change                    ....  1.000e-05 Eh
 Orbital Gradient       TolG            ....  1.000e-05
 Orbital Rotation angle TolX            ....  1.000e-05
 DIIS Error             TolErr          ....  5.000e-07

------------------------------
INITIAL GUESS: MODEL POTENTIAL
------------------------------
Loading Hartree-Fock densities                     ... done
Calculating cut-offs                               ... done
Initializing the effective Hamiltonian             ... done
Setting up the integral package (SHARK)            ... done
Starting the Coulomb interaction                   ... done (   0.0 sec)
Making the grid                                    ... done (   0.0 sec)
Mapping shells                                     ... done
Starting the XC term evaluation                    ... done (   0.0 sec)
  promolecular density results
     # of electrons  =     23.997208007
     EX              =    -19.490004396
     EC              =     -0.770270248
     EX+EC           =    -20.260274645
Transforming the Hamiltonian                       ... done (   0.0 sec)
Diagonalizing the Hamiltonian                      ... done (   0.0 sec)
Back transforming the eigenvectors                 ... done (   0.0 sec)
Now organizing SCF variables                       ... done
                      ------------------
                      INITIAL GUESS DONE (   0.1 sec)
                      ------------------
             **** ENERGY FILE WAS UPDATED (orca.en.tmp) ****
Finished Guess after   0.7 sec
Maximum memory used throughout the entire GUESS-calculation: 9.6 MB
[1741043710.690324] [ohm:335365:0]        ib_iface.c:1059 UCX  ERROR ibv_create_cq(cqe=256) failed: Connection timed out
[1741043710.690324] [ohm:335369:0]        ib_iface.c:1059 UCX  ERROR ibv_create_cq(cqe=256) failed: Connection timed out
[1741043710.690327] [ohm:335362:0]        ib_iface.c:1059 UCX  ERROR ibv_create_cq(cqe=256) failed: Connection timed out
[1741043710.690475] [ohm:335357:0]        ib_iface.c:1059 UCX  ERROR ibv_create_cq(cqe=256) failed: Connection timed out
[1741043710.690819] [ohm:335359:0]        ib_iface.c:1059 UCX  ERROR ibv_create_cq(cqe=256) failed: Connection timed out
[1741043710.691689] [ohm:335361:0]        ib_iface.c:1059 UCX  ERROR ibv_create_cq(cqe=256) failed: Connection timed out
[1741043710.720152] [ohm:335371:0]        ib_iface.c:1059 UCX  ERROR ibv_create_cq(cqe=256) failed: Connection timed out
[1741043710.720143] [ohm:335380:0]        ib_iface.c:1059 UCX  ERROR ibv_create_cq(cqe=256) failed: Connection timed out
[1741043710.720175] [ohm:335370:0]        ib_iface.c:1059 UCX  ERROR ibv_create_cq(cqe=256) failed: Connection timed out
[1741043710.721339] [ohm:335366:0]        ib_iface.c:1059 UCX  ERROR ibv_create_cq(cqe=256) failed: Connection timed out
[1741043710.722188] [ohm:335358:0]        ib_iface.c:1059 UCX  ERROR ibv_create_cq(cqe=256) failed: Connection timed out
[1741043710.724610] [ohm:335392:0]        ib_iface.c:1059 UCX  ERROR ibv_create_cq(cqe=256) failed: Connection timed out
[1741043710.725994] [ohm:335393:0]        ib_iface.c:1059 UCX  ERROR ibv_create_cq(cqe=256) failed: Connection timed out
[1741043710.731968] [ohm:335399:0]        ib_iface.c:1059 UCX  ERROR ibv_create_cq(cqe=256) failed: Connection timed out
[1741043710.734834] [ohm:335374:0]        ib_iface.c:1059 UCX  ERROR ibv_create_cq(cqe=256) failed: Connection timed out
[1741043710.736923] [ohm:335363:0]        ib_iface.c:1059 UCX  ERROR ibv_create_cq(cqe=256) failed: Connection timed out
[1741043710.737160] [ohm:335389:0]        ib_iface.c:1059 UCX  ERROR ibv_create_cq(cqe=256) failed: Connection timed out
[1741043710.737162] [ohm:335388:0]        ib_iface.c:1059 UCX  ERROR ibv_create_cq(cqe=256) failed: Connection timed out
[1741043710.737439] [ohm:335364:0]        ib_iface.c:1059 UCX  ERROR ibv_create_cq(cqe=256) failed: Connection timed out
[1741043710.737891] [ohm:335373:0]        ib_iface.c:1059 UCX  ERROR ibv_create_cq(cqe=256) failed: Connection timed out
[1741043710.738947] [ohm:335384:0]        ib_iface.c:1059 UCX  ERROR ibv_create_cq(cqe=256) failed: Connection timed out
[1741043710.739447] [ohm:335360:0]        ib_iface.c:1059 UCX  ERROR ibv_create_cq(cqe=256) failed: Connection timed out
[1741043710.739566] [ohm:335381:0]        ib_iface.c:1059 UCX  ERROR ibv_create_cq(cqe=256) failed: Connection timed out
[1741043710.739611] [ohm:335372:0]        ib_iface.c:1059 UCX  ERROR ibv_create_cq(cqe=256) failed: Connection timed out
[1741043710.739979] [ohm:335367:0]        ib_iface.c:1059 UCX  ERROR ibv_create_cq(cqe=256) failed: Connection timed out
[1741043710.740598] [ohm:335403:0]        ib_iface.c:1059 UCX  ERROR ibv_create_cq(cqe=256) failed: Connection timed out
[1741043710.740819] [ohm:335368:0]        ib_iface.c:1059 UCX  ERROR ibv_create_cq(cqe=256) failed: Connection timed out
[1741043710.741624] [ohm:335394:0]        ib_iface.c:1059 UCX  ERROR ibv_create_cq(cqe=256) failed: Connection timed out
[1741043710.741755] [ohm:335391:0]        ib_iface.c:1059 UCX  ERROR ibv_create_cq(cqe=256) failed: Connection timed out
[1741043710.742064] [ohm:335397:0]        ib_iface.c:1059 UCX  ERROR ibv_create_cq(cqe=256) failed: Connection timed out
[1741043710.742918] [ohm:335406:0]        ib_iface.c:1059 UCX  ERROR ibv_create_cq(cqe=256) failed: Connection timed out
[1741043710.743003] [ohm:335390:0]        ib_iface.c:1059 UCX  ERROR ibv_create_cq(cqe=256) failed: Connection timed out


           ************************************************************
           *        Program running with 32 parallel MPI-processes    *
           *              working on a common directory               *
           ************************************************************

-------------------------------------------------------------------------------------------
                                      ORCA LEAN-SCF
                              memory conserving SCF solver
-------------------------------------------------------------------------------------------

----------------------------------------D-I-I-S--------------------------------------------
Iteration    Energy (Eh)           Delta-E    RMSDP     MaxDP     DIISErr   Damp  Time(sec)
-------------------------------------------------------------------------------------------
               ***  Starting incremental Fock matrix formation  ***
    1    -153.6839305008271879     0.00e+00  8.48e-04  2.13e-02  7.36e-02  0.700   0.3
    2    -153.7161078100752718    -3.22e-02  7.53e-04  1.95e-02  4.67e-02  0.700   0.3
                               ***Turning on AO-DIIS***
    3    -153.7333595946668936    -1.73e-02  6.05e-04  2.29e-02  2.66e-02  0.700   0.2
    4    -153.7439458425770340    -1.06e-02  1.51e-03  6.09e-02  1.78e-02  0.000   0.2
    5    -153.7684358695939579    -2.45e-02  1.50e-04  5.15e-03  5.64e-03  0.000   0.2
                              *** Initializing SOSCF ***
---------------------------------------S-O-S-C-F--------------------------------------
Iteration    Energy (Eh)           Delta-E    RMSDP     MaxDP     MaxGrad    Time(sec)
--------------------------------------------------------------------------------------
    6    -153.7689069846717871    -4.71e-04  8.98e-05  2.36e-03  3.12e-03     0.3
               *** Restarting incremental Fock matrix formation ***
    7    -153.7691094628811186    -2.02e-04  4.91e-05  2.18e-03  4.37e-03     0.3
    8    -153.7691893492949475    -7.99e-05  6.24e-05  2.01e-03  1.38e-03     0.2
    9    -153.7692542055184219    -6.49e-05  4.04e-05  1.80e-03  1.34e-03     0.2
   10    -153.7692749336005420    -2.07e-05  1.43e-04  6.99e-03  1.32e-03     0.3
   11    -153.7693375411991212    -6.26e-05  2.82e-04  1.40e-02  1.23e-03     0.2
   12    -153.7694461365015854    -1.09e-04  5.27e-04  2.50e-02  1.64e-03     0.2
   13    -153.7696204687671582    -1.74e-04  4.88e-04  1.98e-02  2.14e-03     0.3
   14    -153.7697832216326219    -1.63e-04  2.53e-04  8.83e-03  1.98e-03     0.3
   15    -153.7698955353713188    -1.12e-04  4.89e-05  1.33e-03  9.75e-04     0.2
   16    -153.7699132948380338    -1.78e-05  2.55e-05  8.40e-04  5.15e-04     0.2
   17    -153.7699173867499667    -4.09e-06  1.31e-05  4.83e-04  1.70e-04     0.2
   18    -153.7699184323336965    -1.05e-06  4.62e-06  1.33e-04  5.76e-05     0.2
   19    -153.7699185691988930    -1.37e-07  1.74e-06  6.89e-05  2.48e-05     0.2
   20    -153.7699185884253836    -1.92e-08  7.87e-07  2.97e-05  1.04e-05     0.2
   21    -153.7699185912942994    -2.87e-09  4.40e-07  1.62e-05  4.04e-06     0.2
                 **** Energy Check signals convergence ****

               *****************************************************
               *                     SUCCESS                       *
               *           SCF CONVERGED AFTER  21 CYCLES          *
               *****************************************************

Recomputing exchange energy using gridx3       ... done (    0.246 sec)
Old exchange energy                            :     -6.204820445 Eh
New exchange energy                            :     -6.204827615 Eh
Exchange energy change after final integration :     -0.000007170 Eh
Total energy after final integration           :   -153.769925762 Eh
             **** ENERGY FILE WAS UPDATED (orca.en.tmp) ****

----------------
TOTAL SCF ENERGY
----------------

Total Energy       :       -153.76992576156189 Eh           -4184.29241 eV

Components:
Nuclear Repulsion  :         70.22312161160809 Eh            1910.86829 eV
Electronic Energy  :       -223.99304020290236 Eh           -6095.16050 eV
One Electron Energy:       -346.91049585988833 Eh           -9439.91451 eV
Two Electron Energy:        122.91745565698595 Eh            3344.75401 eV

Virial components:
Potential Energy   :       -307.25729059302557 Eh           -8360.89594 eV
Kinetic Energy     :        153.48736483146368 Eh            4176.60353 eV
Virial Ratio       :          2.00184093935295

DFT components:
N(Alpha)           :       12.999998134011 electrons
N(Beta)            :       10.999995349641 electrons
N(Total)           :       23.999993483652 electrons
E(XC)              :      -14.729722251232 Eh       

---------------
SCF CONVERGENCE
---------------

  Last Energy change         ...    2.8689e-09  Tolerance :   1.0000e-08
  Last MAX-Density change    ...    1.6215e-05  Tolerance :   1.0000e-07
  Last RMS-Density change    ...    4.3966e-07  Tolerance :   5.0000e-09
  Last DIIS Error            ...    3.1186e-03  Tolerance :   5.0000e-07
  Last Orbital Gradient      ...    4.0429e-06  Tolerance :   1.0000e-05
  Last Orbital Rotation      ...    8.7793e-05  Tolerance :   1.0000e-05


----------------------
UHF SPIN CONTAMINATION
----------------------

Warning: in a DFT calculation there is little theoretical justification to 
         calculate <S**2> as in Hartree-Fock theory. We will do it anyways
         but you should keep in mind that the values have only limited relevance

Expectation value of <S**2>     :     2.008684
Ideal value S*(S+1) for S=1.0   :     2.000000
Deviation                       :     0.008684

----------------
ORBITAL ENERGIES
----------------
                 SPIN UP ORBITALS
  NO   OCC          E(Eh)            E(eV) 
   0   1.0000     -19.380380      -527.3669 
   1   1.0000     -10.410359      -283.2803 
   2   1.0000     -10.364518      -282.0329 
   3   1.0000      -1.190522       -32.3957 
   4   1.0000      -0.884881       -24.0788 
   5   1.0000      -0.729165       -19.8416 
   6   1.0000      -0.615597       -16.7512 
   7   1.0000      -0.606643       -16.5076 
   8   1.0000      -0.561256       -15.2725 
   9   1.0000      -0.518041       -14.0966 
  10   1.0000      -0.440466       -11.9857 
  11   1.0000      -0.404201       -10.9989 
  12   1.0000      -0.314198        -8.5498 
  13   0.0000       0.039934         1.0867 
  14   0.0000       0.060543         1.6475 
  15   0.0000       0.079934         2.1751 
  16   0.0000       0.081332         2.2132 
  17   0.0000       0.111542         3.0352 
  18   0.0000       0.119304         3.2464 
  19   0.0000       0.135476         3.6865 
  20   0.0000       0.143398         3.9020 
  21   0.0000       0.177638         4.8338 
  22   0.0000       0.191975         5.2239 
  23   0.0000       0.199223         5.4211 

                 SPIN DOWN ORBITALS
  NO   OCC          E(Eh)            E(eV) 
   0   1.0000     -19.358208      -526.7636 
   1   1.0000     -10.411947      -283.3235 
   2   1.0000     -10.350530      -281.6522 
   3   1.0000      -1.142682       -31.0940 
   4   1.0000      -0.850170       -23.1343 
   5   1.0000      -0.701850       -19.0983 
   6   1.0000      -0.586105       -15.9487 
   7   1.0000      -0.562427       -15.3044 
   8   1.0000      -0.535332       -14.5671 
   9   1.0000      -0.499990       -13.6054 
  10   1.0000      -0.375497       -10.2178 
  11   0.0000      -0.054857        -1.4927 
  12   0.0000       0.005939         0.1616 
  13   0.0000       0.040591         1.1045 
  14   0.0000       0.060235         1.6391 
  15   0.0000       0.079959         2.1758 
  16   0.0000       0.081437         2.2160 
  17   0.0000       0.113437         3.0868 
  18   0.0000       0.119223         3.2442 
  19   0.0000       0.137568         3.7434 
  20   0.0000       0.147130         4.0036 
  21   0.0000       0.178626         4.8607 
*Only the first 10 virtual orbitals were printed.

                    ********************************
                    * MULLIKEN POPULATION ANALYSIS *
                    ********************************

--------------------------------------------
MULLIKEN ATOMIC CHARGES AND SPIN POPULATIONS
--------------------------------------------
   0 O :   -0.359634    0.859889
   1 C :    0.130570    0.017997
   2 C :   -0.674202    0.878116
   3 H :    0.226202    0.054758
   4 H :    0.176719    0.153106
   5 H :    0.246240    0.014937
   6 H :    0.254104    0.021197
Sum of atomic charges         :   -0.0000000
Sum of atomic spin populations:    2.0000000

-----------------------------------------------------
MULLIKEN REDUCED ORBITAL CHARGES AND SPIN POPULATIONS
-----------------------------------------------------
CHARGE
  0 O s       :     4.022089  s :     4.022089
      pz      :     1.389396  p :     4.314906
      px      :     1.175204
      py      :     1.750305
      dz2     :     0.007673  d :     0.021169
      dxz     :     0.007320
      dyz     :     0.004835
      dx2y2   :     0.001338
      dxy     :     0.000003
      f0      :     0.000434  f :     0.001471
      f+1     :     0.000302
      f-1     :     0.000433
      f+2     :     0.000114
      f-2     :     0.000129
      f+3     :     0.000027
      f-3     :     0.000030

  1 C s       :     3.140510  s :     3.140510
      pz      :     0.694678  p :     2.497663
      px      :     0.855427
      py      :     0.947558
      dz2     :     0.049621  d :     0.218756
      dxz     :     0.024101
      dyz     :     0.079588
      dx2y2   :     0.035031
      dxy     :     0.030414
      f0      :     0.004015  f :     0.012501
      f+1     :     0.001650
      f-1     :     0.002653
      f+2     :     0.000917
      f-2     :     0.001459
      f+3     :     0.001060
      f-3     :     0.000748

  2 C s       :     3.654150  s :     3.654150
      pz      :     1.120705  p :     2.981057
      px      :     0.920210
      py      :     0.940141
      dz2     :     0.007993  d :     0.034574
      dxz     :     0.009384
      dyz     :     0.005851
      dx2y2   :     0.008684
      dxy     :     0.002662
      f0      :     0.000576  f :     0.004422
      f+1     :     0.000599
      f-1     :     0.000310
      f+2     :     0.000400
      f-2     :     0.000821
      f+3     :     0.001088
      f-3     :     0.000629

  3 H s       :     0.736565  s :     0.736565
      pz      :     0.018592  p :     0.034613
      px      :     0.003276
      py      :     0.012745
      dz2     :     0.000984  d :     0.002620
      dxz     :     0.000468
      dyz     :     0.000430
      dx2y2   :     0.000268
      dxy     :     0.000469

  4 H s       :     0.790590  s :     0.790590
      pz      :     0.005581  p :     0.030358
      px      :     0.014316
      py      :     0.010461
      dz2     :     0.000262  d :     0.002333
      dxz     :     0.000416
      dyz     :     0.000440
      dx2y2   :     0.000619
      dxy     :     0.000595

  5 H s       :     0.717444  s :     0.717444
      pz      :     0.004851  p :     0.034055
      px      :     0.012393
      py      :     0.016811
      dz2     :     0.000637  d :     0.002261
      dxz     :     0.000567
      dyz     :     0.000510
      dx2y2   :     0.000257
      dxy     :     0.000289

  6 H s       :     0.699118  s :     0.699118
      pz      :     0.010999  p :     0.044309
      px      :     0.014569
      py      :     0.018741
      dz2     :     0.000675  d :     0.002469
      dxz     :     0.000735
      dyz     :     0.000569
      dx2y2   :     0.000226
      dxy     :     0.000264


SPIN
  0 O s       :    -0.002705  s :    -0.002705
      pz      :     0.022783  p :     0.867684
      px      :     0.736879
      py      :     0.108023
      dz2     :     0.000041  d :    -0.004875
      dxz     :    -0.003318
      dyz     :    -0.000674
      dx2y2   :    -0.000684
      dxy     :    -0.000240
      f0      :    -0.000112  f :    -0.000215
      f+1     :    -0.000084
      f-1     :    -0.000022
      f+2     :    -0.000008
      f-2     :    -0.000018
      f+3     :     0.000019
      f-3     :     0.000009

  1 C s       :     0.013884  s :     0.013884
      pz      :    -0.031382  p :    -0.095570
      px      :    -0.026866
      py      :    -0.037322
      dz2     :     0.000393  d :     0.096538
      dxz     :     0.018791
      dyz     :     0.012270
      dx2y2   :     0.036505
      dxy     :     0.028581
      f0      :     0.000081  f :     0.003144
      f+1     :     0.001218
      f-1     :     0.000259
      f+2     :     0.000375
      f-2     :     0.000244
      f+3     :     0.000905
      f-3     :     0.000062

  2 C s       :    -0.027360  s :    -0.027360
      pz      :     0.088754  p :     0.911135
      px      :     0.230732
      py      :     0.591649
      dz2     :    -0.000970  d :    -0.004583
      dxz     :    -0.000486
      dyz     :    -0.001410
      dx2y2   :    -0.000027
      dxy     :    -0.001690
      f0      :    -0.000016  f :    -0.001076
      f+1     :    -0.000151
      f-1     :    -0.000211
      f+2     :    -0.000125
      f-2     :    -0.000079
      f+3     :    -0.000224
      f-3     :    -0.000269

  3 H s       :     0.054664  s :     0.054664
      pz      :    -0.000883  p :     0.000077
      px      :    -0.001442
      py      :     0.002402
      dz2     :     0.000007  d :     0.000017
      dxz     :    -0.000021
      dyz     :     0.000010
      dx2y2   :     0.000004
      dxy     :     0.000019

  4 H s       :     0.145081  s :     0.145081
      pz      :     0.002144  p :     0.007854
      px      :     0.003706
      py      :     0.002004
      dz2     :     0.000036  d :     0.000171
      dxz     :     0.000006
      dyz     :     0.000037
      dx2y2   :     0.000034
      dxy     :     0.000058

  5 H s       :    -0.011002  s :    -0.011002
      pz      :     0.002551  p :     0.024980
      px      :     0.005789
      py      :     0.016640
      dz2     :     0.000207  d :     0.000959
      dxz     :     0.000046
      dyz     :     0.000408
      dx2y2   :     0.000123
      dxy     :     0.000175

  6 H s       :    -0.000231  s :    -0.000231
      pz      :     0.001209  p :     0.020323
      px      :     0.004630
      py      :     0.014484
      dz2     :     0.000272  d :     0.001105
      dxz     :     0.000313
      dyz     :     0.000280
      dx2y2   :     0.000184
      dxy     :     0.000054



                     *******************************
                     * LOEWDIN POPULATION ANALYSIS *
                     *******************************

-------------------------------------------
LOEWDIN ATOMIC CHARGES AND SPIN POPULATIONS
-------------------------------------------
   0 O :    0.069955    0.792522
   1 C :   -0.336414    0.250389
   2 C :    0.231741    0.672232
   3 H :    0.004061    0.027085
   4 H :    0.105426    0.110316
   5 H :   -0.010287    0.068802
   6 H :   -0.064482    0.078653

----------------------------------------------------
LOEWDIN REDUCED ORBITAL CHARGES AND SPIN POPULATIONS
----------------------------------------------------
CHARGE
  0 O s       :     3.426914  s :     3.426914
      pz      :     1.488175  p :     4.199594
      px      :     1.099638
      py      :     1.611781
      dz2     :     0.093089  d :     0.298358
      dxz     :     0.073905
      dyz     :     0.087298
      dx2y2   :     0.014842
      dxy     :     0.029224
      f0      :     0.001582  f :     0.005179
      f+1     :     0.001138
      f-1     :     0.001371
      f+2     :     0.000383
      f-2     :     0.000564
      f+3     :     0.000067
      f-3     :     0.000074

  1 C s       :     2.650143  s :     2.650143
      pz      :     0.833999  p :     2.600653
      px      :     0.888902
      py      :     0.877753
      dz2     :     0.264729  d :     0.984166
      dxz     :     0.166125
      dyz     :     0.253959
      dx2y2   :     0.126657
      dxy     :     0.172696
      f0      :     0.030642  f :     0.101452
      f+1     :     0.016114
      f-1     :     0.018653
      f+2     :     0.010392
      f-2     :     0.011006
      f+3     :     0.008064
      f-3     :     0.006583

  2 C s       :     2.721548  s :     2.721548
      pz      :     0.932396  p :     2.595240
      px      :     0.886147
      py      :     0.776697
      dz2     :     0.066620  d :     0.423751
      dxz     :     0.112579
      dyz     :     0.062638
      dx2y2   :     0.095793
      dxy     :     0.086122
      f0      :     0.003643  f :     0.027720
      f+1     :     0.003882
      f-1     :     0.002973
      f+2     :     0.002017
      f-2     :     0.004177
      f+3     :     0.006699
      f-3     :     0.004330

  3 H s       :     0.698003  s :     0.698003
      pz      :     0.094898  p :     0.266613
      px      :     0.072512
      py      :     0.099202
      dz2     :     0.008249  d :     0.031323
      dxz     :     0.004896
      dyz     :     0.009185
      dx2y2   :     0.003753
      dxy     :     0.005240

  4 H s       :     0.647611  s :     0.647611
      pz      :     0.050131  p :     0.224907
      px      :     0.093834
      py      :     0.080943
      dz2     :     0.002545  d :     0.022055
      dxz     :     0.003797
      dyz     :     0.002907
      dx2y2   :     0.006060
      dxy     :     0.006746

  5 H s       :     0.711133  s :     0.711133
      pz      :     0.114139  p :     0.271301
      px      :     0.083290
      py      :     0.073871
      dz2     :     0.007728  d :     0.027853
      dxz     :     0.008641
      dyz     :     0.005666
      dx2y2   :     0.002936
      dxy     :     0.002882

  6 H s       :     0.727463  s :     0.727463
      pz      :     0.127818  p :     0.303572
      px      :     0.082045
      py      :     0.093709
      dz2     :     0.010604  d :     0.033448
      dxz     :     0.008187
      dyz     :     0.009397
      dx2y2   :     0.002589
      dxy     :     0.002671


SPIN
  0 O s       :     0.008396  s :     0.008396
      pz      :     0.015237  p :     0.765234
      px      :     0.650205
      py      :     0.099792
      dz2     :    -0.000575  d :     0.018857
      dxz     :     0.008727
      dyz     :     0.001724
      dx2y2   :     0.003771
      dxy     :     0.005210
      f0      :    -0.000117  f :     0.000035
      f+1     :     0.000063
      f-1     :     0.000001
      f+2     :     0.000006
      f-2     :     0.000012
      f+3     :     0.000039
      f-3     :     0.000031

  1 C s       :    -0.004172  s :    -0.004172
      pz      :    -0.011671  p :    -0.027154
      px      :    -0.004713
      py      :    -0.010769
      dz2     :     0.003815  d :     0.253812
      dxz     :     0.059410
      dyz     :     0.031010
      dx2y2   :     0.091886
      dxy     :     0.067691
      f0      :     0.001434  f :     0.027903
      f+1     :     0.011393
      f-1     :     0.002517
      f+2     :     0.003495
      f-2     :     0.001392
      f+3     :     0.006932
      f-3     :     0.000740

  2 C s       :     0.017143  s :     0.017143
      pz      :     0.068824  p :     0.649928
      px      :     0.163660
      py      :     0.417444
      dz2     :    -0.002732  d :     0.005707
      dxz     :    -0.003151
      dyz     :     0.004232
      dx2y2   :     0.004703
      dxy     :     0.002654
      f0      :     0.000019  f :    -0.000546
      f+1     :    -0.000343
      f-1     :    -0.000259
      f+2     :    -0.000179
      f-2     :     0.000277
      f+3     :     0.000325
      f-3     :    -0.000387

  3 H s       :     0.024742  s :     0.024742
      pz      :    -0.001520  p :     0.002502
      px      :     0.001489
      py      :     0.002534
      dz2     :    -0.000137  d :    -0.000159
      dxz     :    -0.000131
      dyz     :    -0.000061
      dx2y2   :    -0.000058
      dxy     :     0.000227

  4 H s       :     0.100082  s :     0.100082
      pz      :     0.003292  p :     0.010693
      px      :     0.005696
      py      :     0.001705
      dz2     :     0.000037  d :    -0.000459
      dxz     :    -0.000118
      dyz     :    -0.000016
      dx2y2   :    -0.000150
      dxy     :    -0.000212

  5 H s       :    -0.014795  s :    -0.014795
      pz      :     0.009586  p :     0.073753
      px      :     0.018086
      py      :     0.046081
      dz2     :     0.001727  d :     0.009845
      dxz     :     0.001029
      dyz     :     0.004169
      dx2y2   :     0.001228
      dxy     :     0.001691

  6 H s       :    -0.008781  s :    -0.008781
      pz      :     0.010197  p :     0.076153
      px      :     0.017448
      py      :     0.048508
      dz2     :     0.002945  d :     0.011281
      dxz     :     0.002740
      dyz     :     0.003289
      dx2y2   :     0.002068
      dxy     :     0.000239



                      *****************************
                      * MAYER POPULATION ANALYSIS *
                      *****************************

  NA   - Mulliken gross atomic population
  ZA   - Total nuclear charge
  QA   - Mulliken gross atomic charge
  VA   - Mayer's total valence
  BVA  - Mayer's bonded valence
  FA   - Mayer's free valence

  ATOM       NA         ZA         QA         VA         BVA        FA
  0 O      8.3596     8.0000    -0.3596     1.7496     1.0321     0.7176
  1 C      5.8694     6.0000     0.1306     3.4678     3.4532     0.0146
  2 C      6.6742     6.0000    -0.6742     3.5376     2.8038     0.7337
  3 H      0.7738     1.0000     0.2262     1.0292     1.0274     0.0018
  4 H      0.8233     1.0000     0.1767     1.0083     0.9850     0.0234
  5 H      0.7538     1.0000     0.2462     0.9371     0.9365     0.0006
  6 H      0.7459     1.0000     0.2541     0.9279     0.9277     0.0003

  Mayer bond orders larger than 0.100000
B(  0-O ,  1-C ) :   0.8748 B(  1-C ,  2-C ) :   0.7634 B(  1-C ,  3-H ) :   1.0019 
B(  1-C ,  4-H ) :   0.8932 B(  2-C ,  5-H ) :   0.9454 B(  2-C ,  6-H ) :   0.9928 


-------
TIMINGS
-------

Total SCF time: 0 days 0 hours 0 min 6 sec 

Total time                  ....       6.148 sec
Sum of individual times     ....       6.128 sec  ( 99.7%)

SCF preparation             ....       0.569 sec  (  9.2%)
Fock matrix formation       ....       4.761 sec  ( 77.4%)
  Startup                   ....       0.050 sec  (  1.1% of F)
  Split-RI-J                ....       0.285 sec  (  6.0% of F)
  Chain of spheres X        ....       3.003 sec  ( 63.1% of F)
  XC integration            ....       1.245 sec  ( 26.1% of F)
    XC Preparation          ....       0.000 sec  (  0.0% of XC)
    Basis function eval.    ....       0.083 sec  (  6.6% of XC)
    Density eval.           ....       0.330 sec  ( 26.5% of XC)
    XC-Functional eval.     ....       0.029 sec  (  2.3% of XC)
    XC-Potential eval.      ....       0.537 sec  ( 43.2% of XC)
Diagonalization             ....       0.000 sec  (  0.0%)
Density matrix formation    ....       0.103 sec  (  1.7%)
Total Energy calculation    ....       0.081 sec  (  1.3%)
Population analysis         ....       0.025 sec  (  0.4%)
Orbital Transformation      ....       0.059 sec  (  1.0%)
Orbital Orthonormalization  ....       0.000 sec  (  0.0%)
DIIS solution               ....       0.273 sec  (  4.4%)
SOSCF solution              ....       0.253 sec  (  4.1%)
Finished LeanSCF after   6.2 sec

Maximum memory used throughout the entire LEANSCF-calculation: 14.6 MB
[1741043717.139008] [ohm:335563:0]        ib_iface.c:1059 UCX  ERROR ibv_create_cq(cqe=256) failed: Connection timed out
[1741043717.138977] [ohm:335564:0]        ib_iface.c:1059 UCX  ERROR ibv_create_cq(cqe=256) failed: Connection timed out
[1741043717.139642] [ohm:335557:0]        ib_iface.c:1059 UCX  ERROR ibv_create_cq(cqe=256) failed: Connection timed out
[1741043717.141429] [ohm:335554:0]        ib_iface.c:1059 UCX  ERROR ibv_create_cq(cqe=256) failed: Connection timed out
[1741043717.141443] [ohm:335560:0]        ib_iface.c:1059 UCX  ERROR ibv_create_cq(cqe=256) failed: Connection timed out
[1741043717.172497] [ohm:335573:0]        ib_iface.c:1059 UCX  ERROR ibv_create_cq(cqe=256) failed: Connection timed out
[1741043717.172547] [ohm:335567:0]        ib_iface.c:1059 UCX  ERROR ibv_create_cq(cqe=256) failed: Connection timed out
[1741043717.172642] [ohm:335589:0]        ib_iface.c:1059 UCX  ERROR ibv_create_cq(cqe=256) failed: Connection timed out
[1741043717.189924] [ohm:335571:0]        ib_iface.c:1059 UCX  ERROR ibv_create_cq(cqe=256) failed: Connection timed out
[1741043717.201166] [ohm:335555:0]        ib_iface.c:1059 UCX  ERROR ibv_create_cq(cqe=256) failed: Connection timed out
[1741043717.201192] [ohm:335581:0]        ib_iface.c:1059 UCX  ERROR ibv_create_cq(cqe=256) failed: Connection timed out
[1741043717.206622] [ohm:335574:0]        ib_iface.c:1059 UCX  ERROR ibv_create_cq(cqe=256) failed: Connection timed out
[1741043717.216525] [ohm:335577:0]        ib_iface.c:1059 UCX  ERROR ibv_create_cq(cqe=256) failed: Connection timed out
[1741043717.216526] [ohm:335579:0]        ib_iface.c:1059 UCX  ERROR ibv_create_cq(cqe=256) failed: Connection timed out
[1741043717.216552] [ohm:335572:0]        ib_iface.c:1059 UCX  ERROR ibv_create_cq(cqe=256) failed: Connection timed out
[1741043717.216572] [ohm:335568:0]        ib_iface.c:1059 UCX  ERROR ibv_create_cq(cqe=256) failed: Connection timed out
[1741043717.216972] [ohm:335599:0]        ib_iface.c:1059 UCX  ERROR ibv_create_cq(cqe=256) failed: Connection timed out
[1741043717.218345] [ohm:335605:0]        ib_iface.c:1059 UCX  ERROR ibv_create_cq(cqe=256) failed: Connection timed out
[1741043717.220360] [ohm:335570:0]        ib_iface.c:1059 UCX  ERROR ibv_create_cq(cqe=256) failed: Connection timed out
[1741043717.220355] [ohm:335603:0]        ib_iface.c:1059 UCX  ERROR ibv_create_cq(cqe=256) failed: Connection timed out
[1741043717.223802] [ohm:335586:0]        ib_iface.c:1059 UCX  ERROR ibv_create_cq(cqe=256) failed: Connection timed out
[1741043717.223881] [ohm:335556:0]        ib_iface.c:1059 UCX  ERROR ibv_create_cq(cqe=256) failed: Connection timed out
[1741043717.224498] [ohm:335566:0]        ib_iface.c:1059 UCX  ERROR ibv_create_cq(cqe=256) failed: Connection timed out
[1741043717.224709] [ohm:335576:0]        ib_iface.c:1059 UCX  ERROR ibv_create_cq(cqe=256) failed: Connection timed out
[1741043717.225659] [ohm:335597:0]        ib_iface.c:1059 UCX  ERROR ibv_create_cq(cqe=256) failed: Connection timed out
[1741043717.226988] [ohm:335575:0]        ib_iface.c:1059 UCX  ERROR ibv_create_cq(cqe=256) failed: Connection timed out
[1741043717.226933] [ohm:335562:0]        ib_iface.c:1059 UCX  ERROR ibv_create_cq(cqe=256) failed: Connection timed out
[1741043717.227072] [ohm:335569:0]        ib_iface.c:1059 UCX  ERROR ibv_create_cq(cqe=256) failed: Connection timed out
[1741043717.227250] [ohm:335565:0]        ib_iface.c:1059 UCX  ERROR ibv_create_cq(cqe=256) failed: Connection timed out
[1741043717.227412] [ohm:335561:0]        ib_iface.c:1059 UCX  ERROR ibv_create_cq(cqe=256) failed: Connection timed out
[1741043717.227546] [ohm:335559:0]        ib_iface.c:1059 UCX  ERROR ibv_create_cq(cqe=256) failed: Connection timed out
[1741043717.227685] [ohm:335558:0]        ib_iface.c:1059 UCX  ERROR ibv_create_cq(cqe=256) failed: Connection timed out


           ************************************************************
           *        Program running with 32 parallel MPI-processes    *
           *              working on a common directory               *
           ************************************************************

------------------------------------------------------------------------------
                         ORCA PROPERTY INTEGRAL CALCULATIONS
------------------------------------------------------------------------------

GBWName                                   ... orca.gbw
Number of atoms                           ...      7
Number of basis functions                 ...    182
Max core memory                           ...   1024 MB

Dipole integrals                          ... YES
Quadrupole integrals                      ...  NO
Linear momentum integrals                 ... YES
Angular momentum integrals                ... YES
Higher moments length integrals           ...  NO
Higher moments velocity integrals         ...  NO
Kinetic energy integrals                  ...  NO
GIAO right hand sides                     ...  NO
GIAO dipole derivative integrals          ...  NO
SOC integrals                             ...  NO
EPR diamagnetic integrals (GIAO)          ...  NO
EPR gauge integrals                       ...  NO
Field gradient integrals                  ...  NO (   0 nuclei)
Spin-dipole/Fermi contact integrals       ...  NO (   0 nuclei)
Contact density integrals                 ...  NO (   0 nuclei)
Nucleus-orbit integrals                   ...  NO (   0 nuclei)
Geometric perturbations                   ...  NO (   7 nuclei)

Choice of electric origin   ... Center of mass
Position of electric origin ... (  0.0362, -0.0037,  0.0025) 
Choice of magnetic origin   ... GIAO
Position of magnetic origin ... (  0.0000,  0.0000,  0.0000) 

Calculating integrals                     ... Electric Dipole (Length)     done (  0.0 sec)
Calculating integrals                     ... Linear Momentum              done (  0.0 sec)
Calculating integrals                     ... Angular Momentum  (ElOri)    done (  0.0 sec)

Property integrals calculated in   0.0 sec

Maximum memory used throughout the entire PROPINT-calculation: 10.2 MB
[1741043718.080110] [ohm:335763:0]        ib_iface.c:1059 UCX  ERROR ibv_create_cq(cqe=256) failed: Connection timed out
[1741043718.087971] [ohm:335745:0]        ib_iface.c:1059 UCX  ERROR ibv_create_cq(cqe=256) failed: Connection timed out
[1741043718.088379] [ohm:335751:0]        ib_iface.c:1059 UCX  ERROR ibv_create_cq(cqe=256) failed: Connection timed out
[1741043718.088469] [ohm:335743:0]        ib_iface.c:1059 UCX  ERROR ibv_create_cq(cqe=256) failed: Connection timed out
[1741043718.089852] [ohm:335737:0]        ib_iface.c:1059 UCX  ERROR ibv_create_cq(cqe=256) failed: Connection timed out
[1741043718.091689] [ohm:335768:0]        ib_iface.c:1059 UCX  ERROR ibv_create_cq(cqe=256) failed: Connection timed out
[1741043718.094507] [ohm:335759:0]        ib_iface.c:1059 UCX  ERROR ibv_create_cq(cqe=256) failed: Connection timed out
[1741043718.095528] [ohm:335736:0]        ib_iface.c:1059 UCX  ERROR ibv_create_cq(cqe=256) failed: Connection timed out
[1741043718.098599] [ohm:335750:0]        ib_iface.c:1059 UCX  ERROR ibv_create_cq(cqe=256) failed: Connection timed out
[1741043718.105186] [ohm:335735:0]        ib_iface.c:1059 UCX  ERROR ibv_create_cq(cqe=256) failed: Connection timed out
[1741043718.112631] [ohm:335742:0]        ib_iface.c:1059 UCX  ERROR ibv_create_cq(cqe=256) failed: Connection timed out
[1741043718.112730] [ohm:335738:0]        ib_iface.c:1059 UCX  ERROR ibv_create_cq(cqe=256) failed: Connection timed out
[1741043718.121925] [ohm:335754:0]        ib_iface.c:1059 UCX  ERROR ibv_create_cq(cqe=256) failed: Connection timed out
[1741043718.121984] [ohm:335757:0]        ib_iface.c:1059 UCX  ERROR ibv_create_cq(cqe=256) failed: Connection timed out
[1741043718.123990] [ohm:335739:0]        ib_iface.c:1059 UCX  ERROR ibv_create_cq(cqe=256) failed: Connection timed out
[1741043718.124004] [ohm:335773:0]        ib_iface.c:1059 UCX  ERROR ibv_create_cq(cqe=256) failed: Connection timed out
[1741043718.127621] [ohm:335758:0]        ib_iface.c:1059 UCX  ERROR ibv_create_cq(cqe=256) failed: Connection timed out
[1741043718.129530] [ohm:335746:0]        ib_iface.c:1059 UCX  ERROR ibv_create_cq(cqe=256) failed: Connection timed out
[1741043718.129674] [ohm:335734:0]        ib_iface.c:1059 UCX  ERROR ibv_create_cq(cqe=256) failed: Connection timed out
[1741043718.129696] [ohm:335753:0]        ib_iface.c:1059 UCX  ERROR ibv_create_cq(cqe=256) failed: Connection timed out
[1741043718.130222] [ohm:335749:0]        ib_iface.c:1059 UCX  ERROR ibv_create_cq(cqe=256) failed: Connection timed out
[1741043718.130250] [ohm:335741:0]        ib_iface.c:1059 UCX  ERROR ibv_create_cq(cqe=256) failed: Connection timed out
[1741043718.130610] [ohm:335756:0]        ib_iface.c:1059 UCX  ERROR ibv_create_cq(cqe=256) failed: Connection timed out
[1741043718.131218] [ohm:335762:0]        ib_iface.c:1059 UCX  ERROR ibv_create_cq(cqe=256) failed: Connection timed out
[1741043718.131447] [ohm:335744:0]        ib_iface.c:1059 UCX  ERROR ibv_create_cq(cqe=256) failed: Connection timed out
[1741043718.133255] [ohm:335781:0]        ib_iface.c:1059 UCX  ERROR ibv_create_cq(cqe=256) failed: Connection timed out
[1741043718.133375] [ohm:335733:0]        ib_iface.c:1059 UCX  ERROR ibv_create_cq(cqe=256) failed: Connection timed out
[1741043718.133224] [ohm:335740:0]        ib_iface.c:1059 UCX  ERROR ibv_create_cq(cqe=256) failed: Connection timed out
[1741043718.133377] [ohm:335747:0]        ib_iface.c:1059 UCX  ERROR ibv_create_cq(cqe=256) failed: Connection timed out
[1741043718.133366] [ohm:335748:0]        ib_iface.c:1059 UCX  ERROR ibv_create_cq(cqe=256) failed: Connection timed out
[1741043718.133311] [ohm:335755:0]        ib_iface.c:1059 UCX  ERROR ibv_create_cq(cqe=256) failed: Connection timed out
[1741043718.133225] [ohm:335752:0]        ib_iface.c:1059 UCX  ERROR ibv_create_cq(cqe=256) failed: Connection timed out


           ************************************************************
           *        Program running with 32 parallel MPI-processes    *
           *              working on a common directory               *
           ************************************************************
------------------------------------------------------------------------------
                        ORCA TD-DFT/TDA CALCULATION
------------------------------------------------------------------------------

Input orbitals are from        ... orca.gbw
CI-vector output               ... orca.cis
Solver                         ... FN-2001
Tamm-Dancoff approximation     ... operative
CIS-Integral strategy          ... AO-integrals
Integral handling              ... AO integral Direct
Max. core memory used          ... 512 MB
Reference state                ... UHF
Follow IRoot                   ... off
Number of operators            ... 2
Orbital ranges used for CIS calculation:
 Operator 0:  Orbitals   3... 12  to  11...181

-------------------
XC-INTEGRATION GRID
-------------------

General Integration Accuracy     IntAcc      ... 3.467
Radial Grid Type                 RadialGrid  ... OptM3 with GC (2021)
Angular Grid (max. ang.)         AngularGrid ... 1 (Lebedev-50)
Angular grid pruning method      GridPruning ... 4 (adaptive)
Weight generation scheme         WeightScheme... mBecke (2022)
Basis function cutoff            BFCut       ... 1.0000e-11
[...]
=> NOW LEAVING ORCA_CIS


-------------------------------------------------------------------------------
                          DFT DISPERSION CORRECTION                            
                                                                               
                              DFTD3 V3.1  Rev 1                                
                          USING Becke-Johnson damping                          
-------------------------------------------------------------------------------
The WB97M functional is recognized
Active option DFTDOPT                   ...         4   

molecular C6(AA) [au] = 394.731246 


            DFT-D V3
 parameters
 s6 scaling factor         :     1.0000 
 a1 scaling factor         :     0.5660 
 s8 scaling factor         :     0.3908 
 a2 scaling factor         :     3.1280 
 ad hoc parameters k1-k3   :    16.0000     1.3333    -4.0000 

 Edisp/kcal,au: -3.530835562253  -0.005626744028 
 E6   /kcal   :  -2.844509839 
 E8   /kcal   :  -0.686325724 
 % E8         :  19.438054013 

-------------------------   ----------------
Dispersion correction           -0.005626744
-------------------------   ----------------


-------------------------   --------------------
FINAL SINGLE POINT ENERGY      -153.737542951915
-------------------------   --------------------

[1741043724.491975] [ohm:335931:0]        ib_iface.c:1059 UCX  ERROR ibv_create_cq(cqe=256) failed: Connection timed out
[1741043724.491973] [ohm:335935:0]        ib_iface.c:1059 UCX  ERROR ibv_create_cq(cqe=256) failed: Connection timed out
[1741043724.492008] [ohm:335941:0]        ib_iface.c:1059 UCX  ERROR ibv_create_cq(cqe=256) failed: Connection timed out
[1741043724.492991] [ohm:335921:0]        ib_iface.c:1059 UCX  ERROR ibv_create_cq(cqe=256) failed: Connection timed out
[1741043724.493136] [ohm:335938:0]        ib_iface.c:1059 UCX  ERROR ibv_create_cq(cqe=256) failed: Connection timed out
[1741043724.494009] [ohm:335922:0]        ib_iface.c:1059 UCX  ERROR ibv_create_cq(cqe=256) failed: Connection timed out
[1741043724.497833] [ohm:335934:0]        ib_iface.c:1059 UCX  ERROR ibv_create_cq(cqe=256) failed: Connection timed out
[1741043724.497858] [ohm:335930:0]        ib_iface.c:1059 UCX  ERROR ibv_create_cq(cqe=256) failed: Connection timed out
[1741043724.516505] [ohm:335943:0]        ib_iface.c:1059 UCX  ERROR ibv_create_cq(cqe=256) failed: Connection timed out
[1741043724.543832] [ohm:335937:0]        ib_iface.c:1059 UCX  ERROR ibv_create_cq(cqe=256) failed: Connection timed out
[1741043724.543943] [ohm:335932:0]        ib_iface.c:1059 UCX  ERROR ibv_create_cq(cqe=256) failed: Connection timed out
[1741043724.543942] [ohm:335940:0]        ib_iface.c:1059 UCX  ERROR ibv_create_cq(cqe=256) failed: Connection timed out
[1741043724.552767] [ohm:335968:0]        ib_iface.c:1059 UCX  ERROR ibv_create_cq(cqe=256) failed: Connection timed out
[1741043724.558976] [ohm:335954:0]        ib_iface.c:1059 UCX  ERROR ibv_create_cq(cqe=256) failed: Connection timed out
[1741043724.558989] [ohm:335957:0]        ib_iface.c:1059 UCX  ERROR ibv_create_cq(cqe=256) failed: Connection timed out
[1741043724.558976] [ohm:335967:0]        ib_iface.c:1059 UCX  ERROR ibv_create_cq(cqe=256) failed: Connection timed out
[1741043724.559003] [ohm:335944:0]        ib_iface.c:1059 UCX  ERROR ibv_create_cq(cqe=256) failed: Connection timed out
[1741043724.559166] [ohm:335971:0]        ib_iface.c:1059 UCX  ERROR ibv_create_cq(cqe=256) failed: Connection timed out
[1741043724.570869] [ohm:335939:0]        ib_iface.c:1059 UCX  ERROR ibv_create_cq(cqe=256) failed: Connection timed out
[1741043724.576090] [ohm:335942:0]        ib_iface.c:1059 UCX  ERROR ibv_create_cq(cqe=256) failed: Connection timed out
[1741043724.576132] [ohm:335936:0]        ib_iface.c:1059 UCX  ERROR ibv_create_cq(cqe=256) failed: Connection timed out
[1741043724.576168] [ohm:335961:0]        ib_iface.c:1059 UCX  ERROR ibv_create_cq(cqe=256) failed: Connection timed out
[1741043724.576234] [ohm:335945:0]        ib_iface.c:1059 UCX  ERROR ibv_create_cq(cqe=256) failed: Connection timed out
[1741043724.576579] [ohm:335924:0]        ib_iface.c:1059 UCX  ERROR ibv_create_cq(cqe=256) failed: Connection timed out
[1741043724.576504] [ohm:335925:0]        ib_iface.c:1059 UCX  ERROR ibv_create_cq(cqe=256) failed: Connection timed out
[1741043724.576452] [ohm:335927:0]        ib_iface.c:1059 UCX  ERROR ibv_create_cq(cqe=256) failed: Connection timed out
[1741043724.576501] [ohm:335928:0]        ib_iface.c:1059 UCX  ERROR ibv_create_cq(cqe=256) failed: Connection timed out
[1741043724.576269] [ohm:335929:0]        ib_iface.c:1059 UCX  ERROR ibv_create_cq(cqe=256) failed: Connection timed out
[1741043724.576876] [ohm:335948:0]        ib_iface.c:1059 UCX  ERROR ibv_create_cq(cqe=256) failed: Connection timed out
[1741043724.576938] [ohm:335923:0]        ib_iface.c:1059 UCX  ERROR ibv_create_cq(cqe=256) failed: Connection timed out
[1741043724.577329] [ohm:335933:0]        ib_iface.c:1059 UCX  ERROR ibv_create_cq(cqe=256) failed: Connection timed out
[1741043724.577962] [ohm:335926:0]        ib_iface.c:1059 UCX  ERROR ibv_create_cq(cqe=256) failed: Connection timed out


           ************************************************************
           *        Program running with 32 parallel MPI-processes    *
           *              working on a common directory               *
           ************************************************************

------------------------------------------------------------------------------
                              ORCA PROPERTY CALCULATIONS
------------------------------------------------------------------------------

GBWName                                 ... orca.gbw
Number of atoms                         ...      7
Number of basis functions               ...    182
Max core memory                         ...   1024 MB

Electric properties:
Dipole moment                           ... YES
Quadrupole moment                       ...  NO
Static polarizability (Dipole/Dipole)   ...  NO
Static polarizability (Dipole/Quad.)    ...  NO
Static polarizability (Quad./Quad.)     ...  NO
Static polarizability (Velocity)        ...  NO

Atomic electric properties:
Dipole moment                           ...  NO
Quadrupole moment                       ...  NO
Static polarizability                   ...  NO

Choice of electric origin               ... Center of mass
Position of electric origin             ...     0.036232    -0.003686     0.002496

General magnetic properties:
Magnetizability                         ...  NO

EPR properties:
g-Tensor (aka g-matrix)                 ...  NO
Zero-Field splitting spin-orbit         ...  NO
Zero-field splitting spin-spin          ...  NO
Hyperfine couplings                     ...  NO (   0 nuclei)
Quadrupole couplings                    ...  NO (   0 nuclei)
Contact density                         ...  NO (   0 nuclei)

NMR properties:
Chemical shifts                         ...  NO (   0 nuclei)
Spin-rotation constants                 ...  NO (   0 nuclei)
Spin-spin couplings                     ...  NO (   0 nuclei,    0 pairs)

Choice of magnetic origin               ... GIAO
Position of magnetic origin             ...     0.000000     0.000000     0.000000

Properties with geometric perturbations:
SCF Hessian                             ...  NO
IR spectrum                             ...  NO
VCD spectrum                            ...  NO
X-ray spectroscopy properties:
SCF XES/XAS/RIXS spectra                ...  NO


-------------
DIPOLE MOMENT
-------------

Method             : SCF
Type of density    : Electron Density
Multiplicity       :   3
Irrep              :   0
Energy             :  -153.7699257615618933 Eh
Relativity type    : 
Basis              : AO
                                X                 Y                 Z
Electronic contribution:      0.943089198       1.204735517      -1.875160442
Nuclear contribution   :     -1.029831500      -1.517431004       2.548761978
                        -----------------------------------------
Total Dipole Moment    :     -0.086742302      -0.312695488       0.673601536
                        -----------------------------------------
Magnitude (a.u.)       :      0.747690928
Magnitude (Debye)      :      1.900479306



--------------------
Rotational spectrum 
--------------------
 
Rotational constants in cm-1:             1.382643             0.411342             0.337509 
Rotational constants in MHz :         41450.605276         12331.721898         10118.254360 

Dipole components along the rotational axes: 
x,y,z [a.u.] :     0.578640     0.467435     0.075643 
x,y,z [Debye]:     1.470786     1.188125     0.192270 

 

-------------
DIPOLE MOMENT
-------------

Method             : TDA/CIS
Type of density    : Electron Density
Level              : Relaxed density
State              :   2
Multiplicity       :   3
Irrep              :   0
Energy             :     0.0000000000000000 Eh
Relativity type    : 
Basis              : AO
                                X                 Y                 Z
Electronic contribution:      0.905519351       1.293924723      -1.786115930
Nuclear contribution   :     -1.029831500      -1.517431004       2.548761978
                        -----------------------------------------
Total Dipole Moment    :     -0.124312149      -0.223506282       0.762646048
                        -----------------------------------------
Magnitude (a.u.)       :      0.804386451
Magnitude (Debye)      :      2.044587873



--------------------
Rotational spectrum 
--------------------
 
Rotational constants in cm-1:             1.382643             0.411342             0.337509 
Rotational constants in MHz :         41450.605276         12331.721898         10118.254360 

Dipole components along the rotational axes: 
x,y,z [a.u.] :     0.605388     0.528311    -0.037819 
x,y,z [Debye]:     1.538774     1.342860    -0.096129 

 

Dipole moment calculation done in   0.0 sec 

Maximum memory used throughout the entire PROP-calculation: 7.4 MB
[1741043725.464330] [ohm:336115:0]        ib_iface.c:1059 UCX  ERROR ibv_create_cq(cqe=256) failed: Connection timed out
[1741043725.464435] [ohm:336099:0]        ib_iface.c:1059 UCX  ERROR ibv_create_cq(cqe=256) failed: Connection timed out
[1741043725.465332] [ohm:336108:0]        ib_iface.c:1059 UCX  ERROR ibv_create_cq(cqe=256) failed: Connection timed out
[1741043725.469805] [ohm:336091:0]        ib_iface.c:1059 UCX  ERROR ibv_create_cq(cqe=256) failed: Connection timed out
[1741043725.475461] [ohm:336107:0]        ib_iface.c:1059 UCX  ERROR ibv_create_cq(cqe=256) failed: Connection timed out
[1741043725.478371] [ohm:336103:0]        ib_iface.c:1059 UCX  ERROR ibv_create_cq(cqe=256) failed: Connection timed out
[1741043725.486630] [ohm:336098:0]        ib_iface.c:1059 UCX  ERROR ibv_create_cq(cqe=256) failed: Connection timed out
[1741043725.486743] [ohm:336090:0]        ib_iface.c:1059 UCX  ERROR ibv_create_cq(cqe=256) failed: Connection timed out
[1741043725.487340] [ohm:336114:0]        ib_iface.c:1059 UCX  ERROR ibv_create_cq(cqe=256) failed: Connection timed out
[1741043725.487368] [ohm:336095:0]        ib_iface.c:1059 UCX  ERROR ibv_create_cq(cqe=256) failed: Connection timed out
[1741043725.487375] [ohm:336102:0]        ib_iface.c:1059 UCX  ERROR ibv_create_cq(cqe=256) failed: Connection timed out
[1741043725.489537] [ohm:336094:0]        ib_iface.c:1059 UCX  ERROR ibv_create_cq(cqe=256) failed: Connection timed out
[1741043725.490849] [ohm:336127:0]        ib_iface.c:1059 UCX  ERROR ibv_create_cq(cqe=256) failed: Connection timed out
[1741043725.491602] [ohm:336110:0]        ib_iface.c:1059 UCX  ERROR ibv_create_cq(cqe=256) failed: Connection timed out
[1741043725.491649] [ohm:336112:0]        ib_iface.c:1059 UCX  ERROR ibv_create_cq(cqe=256) failed: Connection timed out
[1741043725.492188] [ohm:336096:0]        ib_iface.c:1059 UCX  ERROR ibv_create_cq(cqe=256) failed: Connection timed out
[1741043725.493000] [ohm:336092:0]        ib_iface.c:1059 UCX  ERROR ibv_create_cq(cqe=256) failed: Connection timed out
[1741043725.493713] [ohm:336106:0]        ib_iface.c:1059 UCX  ERROR ibv_create_cq(cqe=256) failed: Connection timed out
[1741043725.495470] [ohm:336101:0]        ib_iface.c:1059 UCX  ERROR ibv_create_cq(cqe=256) failed: Connection timed out
[1741043725.498424] [ohm:336100:0]        ib_iface.c:1059 UCX  ERROR ibv_create_cq(cqe=256) failed: Connection timed out
[1741043725.498534] [ohm:336097:0]        ib_iface.c:1059 UCX  ERROR ibv_create_cq(cqe=256) failed: Connection timed out
[1741043725.499755] [ohm:336121:0]        ib_iface.c:1059 UCX  ERROR ibv_create_cq(cqe=256) failed: Connection timed out
[1741043725.499859] [ohm:336105:0]        ib_iface.c:1059 UCX  ERROR ibv_create_cq(cqe=256) failed: Connection timed out
[1741043725.500028] [ohm:336137:0]        ib_iface.c:1059 UCX  ERROR ibv_create_cq(cqe=256) failed: Connection timed out
[1741043725.501087] [ohm:336139:0]        ib_iface.c:1059 UCX  ERROR ibv_create_cq(cqe=256) failed: Connection timed out
[1741043725.501560] [ohm:336116:0]        ib_iface.c:1059 UCX  ERROR ibv_create_cq(cqe=256) failed: Connection timed out
[1741043725.501333] [ohm:336113:0]        ib_iface.c:1059 UCX  ERROR ibv_create_cq(cqe=256) failed: Connection timed out
[1741043725.501163] [ohm:336144:0]        ib_iface.c:1059 UCX  ERROR ibv_create_cq(cqe=256) failed: Connection timed out
[1741043725.501251] [ohm:336111:0]        ib_iface.c:1059 UCX  ERROR ibv_create_cq(cqe=256) failed: Connection timed out
[1741043725.501398] [ohm:336109:0]        ib_iface.c:1059 UCX  ERROR ibv_create_cq(cqe=256) failed: Connection timed out
[1741043725.501642] [ohm:336093:0]        ib_iface.c:1059 UCX  ERROR ibv_create_cq(cqe=256) failed: Connection timed out
[1741043725.501687] [ohm:336104:0]        ib_iface.c:1059 UCX  ERROR ibv_create_cq(cqe=256) failed: Connection timed out

--------------------------------
SUGGESTED CITATIONS FOR THIS RUN
--------------------------------

Below you find a list of papers that are relevant to this ORCA run
We neither can nor want to force you to cite these papers, but we appreciate if you do
You receive ORCA, which is the product of decades of hard work by many enthusiastic individuals, for free
The only thing we kindly ask in return is that you cite our papers,
We deeply appreciate it, if you show your appreciation for ORCA by not just citing the generic ORCA reference.

Please note that relegating all ORCA citations to the supporting information does *not* help us.
SI sections are not indexed - citations you put there will not count into any citation statistics
But we need these citations in order to attract the funding resources that allow us to do what we are doing

Therefore, if you are a happy ORCA user, please consider citing a few of the papers listed below in the main body of your paper

In addition to the list printed below, the program has created the file orca.bibtex that contains the list in bibtex format
You can import this file easily into all common literature databanks and citation aid programs


List of essential papers. We consider these as the minimum necessary citations

  1. Neese,F.
     Software update: the ORCA program system, version 5.0
     WIRES Comput. Molec. Sci., 2022 12(1)e1606
     doi.org/10.1002/wcms.1606

List of papers to cite with high priority. The work reported in these papers was absolutely
necessary for this run to complete.
Our perspective: the developers of density functionals and basis sets usually get cited in chemistry papers
Good! But without the algorithms to do something with them, the functionals or basis sets would not do anything.
Hence, in our opinion, the algorithm design and method developments papers are equally worthy of getting cited

  1. Neese,F.; Olbrich,G.
     Efficient use of the resolution of the identity approximation in time-dependent density functional calculations with hybrid density functionals
     Chem. Phys. Lett., 2002 362 170-178
     doi.org/10.1016/s0009-2614(02)01053-9
  2. Neese,F.
     An improvement of the resolution of the identity approximation for the formation of the Coulomb matrix
     J. Comp. Chem., 2003 24(14)1740-1747
     doi.org/10.1002/jcc.10318
  3. Neese,F.; Wennmohs,F.; Hansen,A.; Becker,U.
     Efficient, approximate and parallel Hartree-Fock and hybrid DFT calculations. A 'chain-of-spheres' algorithm for the Hartree-Fock exchange
     Chem. Phys., 2009 356(1-3)98-109
     doi.org/10.1016/j.chemphys.2008.10.036
  4. Petrenko,T.; Kossmann,S.; Neese,F.
     Efficient time-dependent density functional theory approximations for hybrid density functionals: Analytical gradients and parallelization
     J. Chem. Phys., 2011 134 054116
     doi.org/10.1063/1.3533441
  5. Helmich-Paris,B.; de Souza,B.; Neese,F.; Izsák,R.
     An improved chain of spheres for exchange algorithm
     J. Chem. Phys., 2021 155 104109
     doi.org/doi: 10.1063/5.0058766.
  6. Neese,F.
     The SHARK Integral Generation and Digestion System
     J. Comp. Chem., 2022  1-16
     doi.org/10.1002/jcc.26942
  7. Lehtola,S.; Steigemann,C.; Oliveira,M.; Marques,M.
     Recent developments in Libxc - A comprehensive library of functionals for density functional theory
     Software X, 2018 7 
     doi.org/10.1016/j.softx.2017.11.002
  8. Grimme,S.; Antony,J.; Ehrlich,S.; Krieg,H.
     A consistent and accurate ab initio parametrization of density functional dispersion correction (DFT-D) for the 94 elements H-Pu
     J. Chem. Phys., 2010 132 154104-XXXX
     doi.org/10.1063/1.3382344
  9. Grimme,S.; Ehrlich,S.; Goerigk,L.
     Effect of the damping function in dispersion corrected density functional theory
     J. Comput. Chem., 2011 32(7)1456-1465
     doi.org/10.1002/jcc.21759

List of suggested additional citations. These are papers that are important in the 'surrounding' of 
of this run, or papers that preceded the highly important papers. If you like your results we are grateful for a citation.

  1. Izsak,R.; Neese,F.
     An overlap fitted chain of spheres exchange method
     J. Chem. Phys., 2011 135 144105
     doi.org/10.1063/1.3646921
  2. Izsak,R.; Hansen,A.; Neese,F.
     The resolution of identity and chain of spheres approximations for the LPNO-CCSD singles Fock term
     Molec. Phys., 2012 110 2413-2417
     doi.org/10.1080/00268976.2012.687466
  3. Neese,F.
     The ORCA program system
     WIRES Comput. Molec. Sci., 2012 2(1)73-78
     doi.org/10.1002/wcms.81
  4. Izsak,R.; Neese,F.; Klopper,W.
     Robust fitting techniques in the chain of spheres approximation to the Fock exchange: The role of the complementary space
     J. Chem. Phys., 2013 139 
     doi.org/10.1063/1.4819264
  5. Neese,F.
     Software update: the ORCA program system, version 4.0
     WIRES Comput. Molec. Sci., 2018 8(1)1-6
     doi.org/10.1002/wcms.1327
  6. Neese,F.; Wennmohs,F.; Becker,U.; Riplinger,C.
     The ORCA quantum chemistry program package
     J. Chem. Phys., 2020 152 Art. No. L224108
     doi.org/10.1063/5.0004608

List of optional additional citations

  1. Neese,F.
     Approximate second-order SCF convergence for spin unrestricted wavefunctions
     Chem. Phys. Lett., 2000 325(1-3)93-98
     doi.org/10.1016/s0009-2614(00)00662-x

Timings for individual modules:

Sum of individual times          ...       16.930 sec (=   0.282 min)
Startup calculation              ...        1.225 sec (=   0.020 min)   7.2 %
SCF iterations                   ...        7.493 sec (=   0.125 min)  44.3 %
Property integrals               ...        0.909 sec (=   0.015 min)   5.4 %
Property calculations            ...        0.902 sec (=   0.015 min)   5.3 %
CIS module                       ...        6.402 sec (=   0.107 min)  37.8 %
                             ****ORCA TERMINATED NORMALLY****
TOTAL RUN TIME: 0 days 0 hours 0 minutes 17 seconds 944 msec
