30
Properties=species:S:1:pos:R:3:momenta:R:3:forces:R:3 Coordinates=T from=T ORCA-job=T orca=T E=T -908.931592107915=T energy=-24729.315357079668 free_energy=-24729.315357079668 stress="-1.0127359327367587e-06 -1.2736347440066867e-06 1.7447820647330453e-07 -1.2736347440066867e-06 -1.737102245855973e-06 6.903723681333001e-07 1.7447820647330453e-07 6.903723681333001e-07 -3.0590960836208443e-07" pbc="F F F"
O        2.92562208       1.25091906      -0.50156497       0.41282904      -0.08902251       0.00317599       0.49954751       0.70604004      -0.25495887
O       -0.53875790       0.42670565      -1.84876919      -0.03705340      -0.00225203       0.20057783       0.00981473      -0.00506647      -0.19147253
O        1.42071256      -2.83491521      -1.81415680       0.11341739      -0.18221394      -0.10258138      -0.04546532       0.01578781       0.08698311
O       -3.09211946      -1.36250697       1.44269188       0.15105004       0.26173280       0.28382326      -0.03697608      -0.04806964       0.01215452
N        0.79313115      -2.03530760       0.22680780      -0.20707770       0.31793977       0.17845967       0.14452350       0.27835087      -0.11090114
N       -2.37317474       0.78639029       1.66330304       0.21906669       0.03341690      -0.04828932      -0.17268254       0.03642359       0.11972021
N        2.21340439      -0.81143645      -1.10854488      -0.05521472      -0.03648098       0.02449142       0.06687305      -0.45397823      -0.31577147
N       -1.91581832      -0.38780295      -0.25526622      -0.12420616       0.17233777      -0.02872073      -0.16232233       0.05764055       0.10156555
C        1.52296507       0.10384097       1.00715143       0.74798936       1.12360417      -0.55770636       1.62089805       1.73167603      -1.04081674
C       -0.98989643       1.81755756       0.01989153       0.02700111      -0.21209426      -0.13724277      -0.04940383       0.23647339      -0.01166542
C        0.82626897      -1.06436538       1.18157565      -0.67514006      -1.11214223       0.35063992      -1.60530465      -1.86172418       1.18845120
C       -1.65773926       1.85984559       1.18022739      -0.00819141      -0.13307092       0.02798993       0.14254479      -0.23465776      -0.06346938
C        1.61144391       1.16062107       2.05242896      -0.08504288      -0.03847251      -0.07149208      -0.21433400      -0.21506722      -0.33347491
C       -0.18004853       2.95631734      -0.51890998       0.14838896       0.02726485       0.05135503      -0.16216035      -0.05228953      -0.01912479
C        2.26877140       0.26251456      -0.22812705      -0.37815716      -0.15276331       0.23385473      -0.67477038      -0.01889091       1.07556918
C       -1.09523482       0.60541872      -0.78962480       0.01805098      -0.13411300      -0.13606148      -0.02550262      -0.03674527       0.04923612
C        1.47122280      -1.96152266      -0.97894161       0.06363585       0.12709377      -0.13056299       0.15007697       0.14998122      -0.09313044
C       -2.51400111      -0.40254376       0.98684589      -0.19572723      -0.06399882       0.00947230       0.19264383       0.01982766      -0.11136437
H        0.26396889      -1.25379700       2.07932685       0.02816094       0.00963426       0.05610459       0.00565248      -0.08649239       0.00299051
H       -1.64674166       2.72878429       1.81298892      -0.02791210      -0.02163909      -0.03960717      -0.00449485       0.10159370       0.08166846
H        1.34111664       2.12782796       1.63210685      -0.02982912       0.03963356      -0.08089384       0.08535931       0.00827889      -0.01327078
H        0.95564815       0.94174665       2.88863464      -0.02719840       0.03966533      -0.04718654      -0.01923742      -0.04377416       0.04401433
H        2.63169590       1.25469824       2.40948945      -0.02635633       0.05804258      -0.06095244       0.17020073      -0.00576419       0.05123563
H       -0.55901462       3.25747959      -1.49588612       0.02896753      -0.01694502       0.00005992       0.05962935       0.00220197       0.04993039
H       -0.21661336       3.81095183       0.15349907      -0.01625017       0.02681638       0.00164178      -0.03295673      -0.01312401      -0.00199010
H        0.85686469       2.66270353      -0.65113571       0.00482433       0.00115768       0.01536345       0.08620234      -0.03535405      -0.04292789
H        0.25990901      -2.86736325       0.37055894      -0.02216915       0.05195681      -0.00336985      -0.12674709      -0.20317262       0.02388662
H       -2.83579052       0.82550309       2.55680708      -0.02563441      -0.03838332      -0.06490763       0.07785556       0.01771729      -0.09994466
H        2.67968292      -0.69079426      -1.98749775      -0.00213504      -0.04547342       0.06277531       0.02025237       0.03106259      -0.12963960
H       -1.99075889      -1.23764002      -0.78596701      -0.02008680      -0.01123129       0.00978947       0.00028363      -0.07888497      -0.05348276
