
                                 *****************
                                 * O   R   C   A *
                                 *****************

                                            #,                                       
                                            ###                                      
                                            ####                                     
                                            #####                                    
                                            ######                                   
                                           ########,                                 
                                     ,,################,,,,,                         
                               ,,#################################,,                 
                          ,,##########################################,,             
                       ,#########################################, ''#####,          
                    ,#############################################,,   '####,        
                  ,##################################################,,,,####,       
                ,###########''''           ''''###############################       
              ,#####''   ,,,,##########,,,,          '''####'''          '####       
            ,##' ,,,,###########################,,,                        '##       
           ' ,,###''''                  '''############,,,                           
         ,,##''                                '''############,,,,        ,,,,,,###''
      ,#''                                            '''#######################'''  
     '                                                          ''''####''''         
             ,#######,   #######,   ,#######,      ##                                
            ,#'     '#,  ##    ##  ,#'     '#,    #''#        ,####,   ,####,        
            ##       ##  ##   ,#'  ##            #'  '#       #'       #'  '#        
            ##       ##  #######   ##           ,######,      #####,   #    #        
            '#,     ,#'  ##    ##  '#,     ,#' ,#      #,     #,   #   #,  ,#        
             '#######'   ##     ##  '#######'  #'      '#     '####' # '####'        



                #########################################################
                #                        -***-                          #
                #          Department of theory and spectroscopy        #
                #                                                       #
                #                      Frank Neese                      #
                #                                                       #
                #     Directorship, Architecture, Infrastructure        #
                #                    SHARK, DRIVERS                     #
                #        Core code/Algorithms in most modules           #
                #                                                       #
                #        Max Planck Institute fuer Kohlenforschung      #
                #                Kaiser Wilhelm Platz 1                 #
                #                 D-45470 Muelheim/Ruhr                 #
                #                      Germany                          #
                #                                                       #
                #                  All rights reserved                  #
                #                        -***-                          #
                #########################################################


                         Program Version 6.0.0  -   RELEASE  -


 With contributions from (in alphabetic order):
   Daniel Aravena         : Magnetic Suceptibility
   Michael Atanasov       : Ab Initio Ligand Field Theory (pilot matlab implementation)
   Alexander A. Auer      : GIAO ZORA, VPT2 properties, NMR spectrum
   Ute Becker             : All parallelization in ORCA, NUMFREQ, NUMCALC
   Giovanni Bistoni       : ED, misc. LED, open-shell LED, HFLD
   Martin Brehm           : Molecular dynamics
   Dmytro Bykov           : pre 5.0 version of the SCF Hessian
   Marcos Casanova-Páez   : Triplet and SCS-CIS(D). UHF-(DLPNO)-IP/EA/STEOM-CCSD. UHF-CVS-IP/STEOM-CCSD
   Vijay G. Chilkuri      : MRCI spin determinant printing, contributions to CSF-ICE
   Pauline Colinet        : FMM embedding
   Dipayan Datta          : RHF DLPNO-CCSD density
   Achintya Kumar Dutta   : EOM-CC, STEOM-CC
   Nicolas Foglia         : Exact transition moments, OPA infrastructure, MCD improvements
   Dmitry Ganyushin       : Spin-Orbit,Spin-Spin,Magnetic field MRCI
   Miquel Garcia          : C-PCM and meta-GGA Hessian, CCSD/C-PCM, Gaussian charge scheme
   Tiago L. C. Gouveia    : GS-ROHF, GS-ROCIS
   Yang Guo               : DLPNO-NEVPT2, F12-NEVPT2, CIM, IAO-localization
   Andreas Hansen         : Spin unrestricted coupled pair/coupled cluster methods
   Ingolf Harden          : AUTO-CI MPn and infrastructure 
   Benjamin Helmich-Paris : MC-RPA, TRAH-(SCF,CASSCF), AVAS, COSX integrals, SCF dyn. polar.
   Lee Huntington         : MR-EOM, pCC
   Robert Izsak           : Overlap fitted RIJCOSX, COSX-SCS-MP3, EOM
   Riya Kayal             : Wick's Theorem for AUTO-CI, AUTO-CI UHF-CCSDT
   Emily Kempfer          : AUTO-CI, RHF CISDT and CCSDT
   Christian Kollmar      : KDIIS, OOCD, Brueckner-CCSD(T), CCSD density, CASPT2, CASPT2-K, improved NEVPT2
   Axel Koslowski         : Symmetry handling
   Simone Kossmann        : Meta GGA functionals, TD-DFT gradient, OOMP2, (MP2 Hessian; deprecated post 5.0)
   Lucas Lang             : DCDCAS
   Marvin Lechner         : AUTO-CI (C++ implementation), FIC-MRCC
   Spencer Leger          : CASSCF response
   Dagmar Lenk            : GEPOL surface, SMD, ORCA-2-JSON
   Dimitrios Liakos       : Extrapolation schemes; Compound Job, initial MDCI parallelization
   Dimitrios Manganas     : Further ROCIS development; embedding schemes. LFT, Crystal Embedding
   Dimitrios Pantazis     : SARC Basis sets
   Anastasios Papadopoulos: AUTO-CI, single reference methods and gradients
   Taras Petrenko         : pre 6.0 DFT Hessian and TD-DFT gradient, (ASA, deprecated), ECA, 1-Electron XAS/XES, NRVS
   Peter Pinski           : DLPNO-MP2, DLPNO-MP2 Gradient
   Christoph Reimann      : Effective Core Potentials
   Marius Retegan         : Local ZFS, SOC
   Christoph Riplinger    : Optimizer, TS searches, QM/MM, DLPNO-CCSD(T), (RO)-DLPNO pert. Triples
   Michael Roemelt        : Original ROCIS implementation
   Masaaki Saitow         : Open-shell DLPNO-CCSD energy and density
   Barbara Sandhoefer     : DKH picture change effects
   Kantharuban Sivalingam : CASSCF convergence/infrastructure, NEVPT2 and variants, FIC-MRCI
   Bernardo de Souza      : ESD, SOC TD-DFT
   Georgi Stoychev        : AutoAux, RI-MP2 NMR, DLPNO-MP2 response, X2C
   Van Anh Tran           : RI-MP2 g-tensors
   Willem Van den Heuvel  : Paramagnetic NMR
   Zikuan Wang            : NOTCH, Electric field optimization 
   Frank Wennmohs         : Technical directorship and infrastructure
   Hang Xu                : AUTO-CI-Response properties 


 We gratefully acknowledge several colleagues who have allowed us to
 interface, adapt or use parts of their codes:
   Stefan Grimme, W. Hujo, H. Kruse, P. Pracht,  : VdW corrections, initial TS optimization,
                  C. Bannwarth, S. Ehlert,         DFT functionals, gCP, sTDA/sTD-DF
                  L. Wittmann, M. Mueller
   Ed Valeev, F. Pavosevic, A. Kumar             : LibInt (2-el integral package), F12 methods
   Garnet Chan, S. Sharma, J. Yang, R. Olivares  : DMRG
   Ulf Ekstrom                                   : XCFun DFT Library
   Mihaly Kallay                                 : mrcc  (arbitrary order and MRCC methods)
   Frank Weinhold                                : gennbo (NPA and NBO analysis)
   Simon Mueller                                 : openCOSMO-RS
   Christopher J. Cramer and Donald G. Truhlar   : smd solvation model
   Lars Goerigk                                  : TD-DFT with DH, B97 family of functionals
   V. Asgeirsson, H. Jonsson                     : NEB implementation
   FAccTs GmbH                                   : IRC, NEB, NEB-TS, DLPNO-Multilevel, CI-OPT
                                                   MM, QMMM, 2- and 3-layer-ONIOM, Crystal-QMMM,
                                                   LR-CPCM, SF, NACMEs, symmetry and pop. for TD-DFT,
                                                   nearIR, NL-DFT gradient (VV10), updates on ESD,
                                                   ML-optimized integration grids, MBIS, APM,
                                                   GOAT, DOCKER, SOLVATOR, interface openCOSMO-RS
   S Lehtola, MJT Oliveira, MAL Marques          : LibXC Library
   Liviu Ungur et al                             : ANISO software


 Your calculation uses the libint2 library for the computation of 2-el integrals
 For citations please refer to: http://libint.valeyev.net

 Your ORCA version has been built with support for libXC version: 6.2.2
 For citations please refer to: https://libxc.gitlab.io

 This ORCA versions uses:
   CBLAS   interface :  Fast vector & matrix operations
   LAPACKE interface :  Fast linear algebra routines
   SCALAPACK package :  Parallel linear algebra routines
   Shared memory     :  Shared parallel matrices
   BLAS/LAPACK       :  OpenBLAS 0.3.27  USE64BITINT DYNAMIC_ARCH NO_AFFINITY Zen SINGLE_THREADED
        Core in use  :  Zen
   Copyright (c) 2011-2014, The OpenBLAS Project


Your calculation utilizes the atom-pairwise dispersion correction
with the Becke-Johnson damping scheme (D3BJ)


Warning: RI is on but no J-basis has been assigned. Assigning Def2/J (nothing to worry about!)
================================================================================

----- Orbital basis set information -----
Your calculation utilizes the basis: def2-TZVPPD
   F. Weigend and R. Ahlrichs, Phys. Chem. Chem. Phys. 7, 3297 (2005).
   D. Rappoport and F. Furche, J. Chem. Phys. 133, 134105 (2010)
   D. Rappoport, J. Chem. Phys. 155, 124102 (2021).

----- AuxJ basis set information -----
Your calculation utilizes the auxiliary basis: def2/J
   F. Weigend, Phys. Chem. Chem. Phys. 8, 1057 (2006).

================================================================================
                                        WARNINGS
                       Please study these warnings very carefully!
================================================================================

Using LibXC functional ID 531 : wB97M-V exchange-correlation functional
[ 1]  N. Mardirossian and M. Head-Gordon.,  J. Chem. Phys. 144, 214110 (2016)
Using LibXC functional ID 531 : wB97M-V exchange-correlation functional
[ 1]  N. Mardirossian and M. Head-Gordon.,  J. Chem. Phys. 144, 214110 (2016)

WARNING: B97M-V or wB97M-V functional requested.
  ===> : libXC variant has now been activated.
         Any manually given DFX/HFX/RangeSep scaling parameters are IGNORED!

Your calculation utilizes LibXC
 by S Lehtola, C Steigemann, MJT Oliveira & MAL Marques
Please cite in your paper:
 S Lehtola, C Steigemann, MJT Oliveira & MAL Marques, SoftwareX, 7, (2018), 1.
   


WARNING: your system is open-shell and RHF/RKS was chosen
  ===> : WILL SWITCH to UHF/UKS

INFO   : Checking CIS options ...

WARNING: CIS/ROCIS methods need fully converged wavefunctions
  ===> : Setting SCFConvForced true
         You can overwrite this default with %scf ConvForced false 


================================================================================
                                       INPUT FILE
================================================================================
NAME = orca.inp
|  1> ! Engrad def2-TZVPPD wB97M-D3BJ 
|  2> %pal nprocs 8 end%pal nprocs 64 end 
|  3> %tddft Nroots 2 Iroot 1 
|  4> sf true 
|  5> end 
|  6> *xyz 0 3 
|  7> O   2.21122961 0.31090478 -1.18809542
|  8> O   -0.8068693 2.43441125 -2.61181307
|  9> O   0.55736117 -3.71187121 0.23570309
| 10> O   -2.56468444 -1.14156086 -0.91023204
| 11> N   0.81779656 -2.06943087 1.75884544
| 12> N   -1.34790388 -0.28271442 0.80068007
| 13> N   1.41260847 -1.70498866 -0.4431863
| 14> N   -0.94600304 0.39408583 -1.51286856
| 15> C   1.27352784 0.25047834 0.98676086
| 16> C   -1.27554057 2.46758049 -0.35651986
| 17> C   0.91052087 -0.69209015 2.04582738
| 18> C   -0.18242797 0.24711141 1.46002743
| 19> C   2.14476117 1.4211539 1.37218854
| 20> C   -1.36938322 3.74375274 0.36161187
| 21> C   1.71419664 -0.31194702 -0.31018326
| 22> C   -1.09737745 1.79222278 -1.58270572
| 23> C   0.86386521 -2.58891362 0.49622982
| 24> C   -1.68075367 -0.38330301 -0.55581647
| 25> H   1.20259992 -0.3967817 3.0880495
| 26> H   -0.40784628 1.09587248 2.11980855
| 27> H   2.17263214 2.17429699 0.58261083
| 28> H   1.73329638 1.89764012 2.34520617
| 29> H   3.17548737 1.08769383 1.55010975
| 30> H   -1.89127777 3.7696328 1.30793587
| 31> H   -0.32726074 4.1153375 0.54699001
| 32> H   -1.76951356 4.46174163 -0.33274333
| 33> H   0.4891766 -2.71095725 2.46885866
| 34> H   -1.70048122 -1.12404423 1.24758897
| 35> H   1.64115741 -2.07552055 -1.35871758
| 36> H   -1.09101585 -0.03708864 -2.38306491
| 37> *
| 38> 
| 39>                          ****END OF INPUT****
================================================================================

                     *******************************
                     * Energy+Gradient Calculation *
                     *******************************

---------------------------------
CARTESIAN COORDINATES (ANGSTROEM)
---------------------------------
  O      2.211230    0.310905   -1.188095
  O     -0.806869    2.434411   -2.611813
  O      0.557361   -3.711871    0.235703
  O     -2.564684   -1.141561   -0.910232
  N      0.817797   -2.069431    1.758845
  N     -1.347904   -0.282714    0.800680
  N      1.412608   -1.704989   -0.443186
  N     -0.946003    0.394086   -1.512869
  C      1.273528    0.250478    0.986761
  C     -1.275541    2.467580   -0.356520
  C      0.910521   -0.692090    2.045827
  C     -0.182428    0.247111    1.460027
  C      2.144761    1.421154    1.372189
  C     -1.369383    3.743753    0.361612
  C      1.714197   -0.311947   -0.310183
  C     -1.097377    1.792223   -1.582706
  C      0.863865   -2.588914    0.496230
  C     -1.680754   -0.383303   -0.555816
  H      1.202600   -0.396782    3.088049
  H     -0.407846    1.095872    2.119809
  H      2.172632    2.174297    0.582611
  H      1.733296    1.897640    2.345206
  H      3.175487    1.087694    1.550110
  H     -1.891278    3.769633    1.307936
  H     -0.327261    4.115337    0.546990
  H     -1.769514    4.461742   -0.332743
  H      0.489177   -2.710957    2.468859
  H     -1.700481   -1.124044    1.247589
  H      1.641157   -2.075521   -1.358718
  H     -1.091016   -0.037089   -2.383065

----------------------------
CARTESIAN COORDINATES (A.U.)
----------------------------
  NO LB      ZA    FRAG     MASS         X           Y           Z
   0 O     8.0000    0    15.999    4.178618    0.587525   -2.245175
   1 O     8.0000    0    15.999   -1.524762    4.600371   -4.935611
   2 O     8.0000    0    15.999    1.053260   -7.014420    0.445414
   3 O     8.0000    0    15.999   -4.846551   -2.157237   -1.720089
   4 N     7.0000    0    14.007    1.545412   -3.910658    3.323736
   5 N     7.0000    0    14.007   -2.547169   -0.534253    1.513066
   6 N     7.0000    0    14.007    2.669443   -3.221962   -0.837501
   7 N     7.0000    0    14.007   -1.787687    0.744714   -2.858907
   8 C     6.0000    0    12.011    2.406619    0.473335    1.864708
   9 C     6.0000    0    12.011   -2.410422    4.663051   -0.673725
  10 C     6.0000    0    12.011    1.720635   -1.307861    3.866053
  11 C     6.0000    0    12.011   -0.344739    0.466973    2.759052
  12 C     6.0000    0    12.011    4.053011    2.685592    2.593061
  13 C     6.0000    0    12.011   -2.587759    7.074667    0.683347
  14 C     6.0000    0    12.011    3.239362   -0.589494   -0.586161
  15 C     6.0000    0    12.011   -2.073743    3.386810   -2.990880
  16 C     6.0000    0    12.011    1.632469   -4.892338    0.937738
  17 C     6.0000    0    12.011   -3.176164   -0.724338   -1.050341
  18 H     1.0000    0     1.008    2.272584   -0.749809    5.835568
  19 H     1.0000    0     1.008   -0.770718    2.070899    4.005858
  20 H     1.0000    0     1.008    4.105680    4.108826    1.100975
  21 H     1.0000    0     1.008    3.275455    3.586020    4.431797
  22 H     1.0000    0     1.008    6.000801    2.055443    2.929283
  23 H     1.0000    0     1.008   -3.573997    7.123574    2.471641
  24 H     1.0000    0     1.008   -0.618433    7.776861    1.033661
  25 H     1.0000    0     1.008   -3.343896    8.431470   -0.628794
  26 H     1.0000    0     1.008    0.924410   -5.122967    4.665467
  27 H     1.0000    0     1.008   -3.213444   -2.124136    2.357601
  28 H     1.0000    0     1.008    3.101338   -3.922165   -2.567604
  29 H     1.0000    0     1.008   -2.061721   -0.070087   -4.503340

--------------------------------
INTERNAL COORDINATES (ANGSTROEM)
--------------------------------
 O      0   0   0     0.000000000000     0.00000000     0.00000000
 O      1   0   0     3.955397920007     0.00000000     0.00000000
 O      1   2   0     4.576593676483   107.94688229     0.00000000
 O      3   1   2     4.203193001565    69.27337768   353.55332745
 N      3   1   2     2.255083031994    61.84886637   264.14265306
 N      4   3   1     2.268345737942    68.12745085   299.23085599
 N      3   1   2     2.284713618270     1.09191802   213.16568729
 N      4   3   1     2.311170916754    87.54608048     2.66556548
 C      1   2   3     2.369163523856    92.41349008   297.44369005
 C      2   1   3     2.303714483368    79.08135653    70.80897345
 C      5   3   1     1.409973010565   148.93039409    24.22071280
 C      6   4   3     1.440065431869   156.74824276    64.32932992
 C      9   1   2     1.509332063727    89.20768765   263.30090072
 C     10   2   1     1.467356547081   120.30821252   120.88560866
 C      1   2   3     1.185628904298   103.21947913   326.59693331
 C      2   1   3     1.247342356389    66.69303910    39.77867845
 C      3   1   2     1.192833874653    31.52559993   266.32053744
 C      4   3   1     1.217332727523    76.24207151   332.18767207
 H     11   5   3     1.121937698586   117.60135858   188.47021529
 H     12   6   4     1.098416994925   113.15534034   139.07541241
 H     13   9   1     1.091528407836   111.41929215    42.46296281
 H     13   9   1     1.158924371799   109.16888243   163.44323374
 H     13   9   1     1.097837909083   110.34912212   282.96101032
 H     14  10   2     1.081005463354   118.69375498   160.36654340
 H     14  10   2     1.121810836093   108.03165172   282.56979044
 H     14  10   2     1.075983958486   106.75640488    33.16666607
 H      5   3   1     1.011763780198    88.54832529   181.59835626
 H      6   4   3     1.015812086350    80.33215961   298.11967002
 H      7   3  17     1.013768229992    91.81593111   174.44214686
 H      8   4   3     0.981927607412    80.55401725    94.40867698

---------------------------
INTERNAL COORDINATES (A.U.)
---------------------------
 O      0   0   0     0.000000000000     0.00000000     0.00000000
 O      1   0   0     7.474618819495     0.00000000     0.00000000
 O      1   2   0     8.648508674789   107.94688229     0.00000000
 O      3   1   2     7.942883660972    69.27337768   353.55332745
 N      3   1   2     4.261489339721    61.84886637   264.14265306
 N      4   3   1     4.286552221758    68.12745085   299.23085599
 N      3   1   2     4.317483032970     1.09191802   213.16568729
 N      4   3   1     4.367480081350    87.54608048     2.66556548
 C      1   2   3     4.477070226563    92.41349008   297.44369005
 C      2   1   3     4.353389464313    79.08135653    70.80897345
 C      5   3   1     2.664462846188   148.93039409    24.22071280
 C      6   4   3     2.721329281160   156.74824276    64.32932992
 C      9   1   2     2.852224245590    89.20768765   263.30090072
 C     10   2   1     2.772902014800   120.30821252   120.88560866
 C      1   2   3     2.240513925584   103.21947913   326.59693331
 C      2   1   3     2.357135448815    66.69303910    39.77867845
 C      3   1   2     2.254129346358    31.52559993   266.32053744
 C      4   3   1     2.300425468877    76.24207151   332.18767207
 H     11   5   3     2.120154989649   117.60135858   188.47021529
 H     12   6   4     2.075707301252   113.15534034   139.07541241
 H     13   9   1     2.062689758205   111.41929215    42.46296281
 H     13   9   1     2.190049672627   109.16888243   163.44323374
 H     13   9   1     2.074612987603   110.34912212   282.96101032
 H     14  10   2     2.042804275012   118.69375498   160.36654340
 H     14  10   2     2.119915254281   108.03165172   282.56979044
 H     14  10   2     2.033315006031   106.75640488    33.16666607
 H      5   3   1     1.911956456796    88.54832529   181.59835626
 H      6   4   3     1.919606646729    80.33215961   298.11967002
 H      7   3  17     1.915744317954    91.81593111   174.44214686
 H      8   4   3     1.855574261345    80.55401725    94.40867698

---------------------
BASIS SET INFORMATION
---------------------
There are 4 groups of distinct atoms

 Group   1 Type O   : 12s7p3d1f contracted to 6s4p3d1f pattern {621111/4111/111/1}
 Group   2 Type N   : 12s6p3d1f contracted to 6s3p3d1f pattern {621111/411/111/1}
 Group   3 Type C   : 12s6p3d1f contracted to 6s3p3d1f pattern {621111/411/111/1}
 Group   4 Type H   : 5s3p1d contracted to 3s3p1d pattern {311/111/1}

Atom   0O    basis set group =>   1
Atom   1O    basis set group =>   1
Atom   2O    basis set group =>   1
Atom   3O    basis set group =>   1
Atom   4N    basis set group =>   2
Atom   5N    basis set group =>   2
Atom   6N    basis set group =>   2
Atom   7N    basis set group =>   2
Atom   8C    basis set group =>   3
Atom   9C    basis set group =>   3
Atom  10C    basis set group =>   3
Atom  11C    basis set group =>   3
Atom  12C    basis set group =>   3
Atom  13C    basis set group =>   3
Atom  14C    basis set group =>   3
Atom  15C    basis set group =>   3
Atom  16C    basis set group =>   3
Atom  17C    basis set group =>   3
Atom  18H    basis set group =>   4
Atom  19H    basis set group =>   4
Atom  20H    basis set group =>   4
Atom  21H    basis set group =>   4
Atom  22H    basis set group =>   4
Atom  23H    basis set group =>   4
Atom  24H    basis set group =>   4
Atom  25H    basis set group =>   4
Atom  26H    basis set group =>   4
Atom  27H    basis set group =>   4
Atom  28H    basis set group =>   4
Atom  29H    basis set group =>   4
---------------------------------
AUXILIARY/J BASIS SET INFORMATION
---------------------------------
There are 4 groups of distinct atoms

 Group   1 Type O   : 12s5p4d2f1g contracted to 6s4p3d1f1g pattern {711111/2111/211/2/1}
 Group   2 Type N   : 12s5p4d2f1g contracted to 6s4p3d1f1g pattern {711111/2111/211/2/1}
 Group   3 Type C   : 12s5p4d2f1g contracted to 6s4p3d1f1g pattern {711111/2111/211/2/1}
 Group   4 Type H   : 5s2p1d contracted to 3s1p1d pattern {311/2/1}

Atom   0O    basis set group =>   1
Atom   1O    basis set group =>   1
Atom   2O    basis set group =>   1
Atom   3O    basis set group =>   1
Atom   4N    basis set group =>   2
Atom   5N    basis set group =>   2
Atom   6N    basis set group =>   2
Atom   7N    basis set group =>   2
Atom   8C    basis set group =>   3
Atom   9C    basis set group =>   3
Atom  10C    basis set group =>   3
Atom  11C    basis set group =>   3
Atom  12C    basis set group =>   3
Atom  13C    basis set group =>   3
Atom  14C    basis set group =>   3
Atom  15C    basis set group =>   3
Atom  16C    basis set group =>   3
Atom  17C    basis set group =>   3
Atom  18H    basis set group =>   4
Atom  19H    basis set group =>   4
Atom  20H    basis set group =>   4
Atom  21H    basis set group =>   4
Atom  22H    basis set group =>   4
Atom  23H    basis set group =>   4
Atom  24H    basis set group =>   4
Atom  25H    basis set group =>   4
Atom  26H    basis set group =>   4
Atom  27H    basis set group =>   4
Atom  28H    basis set group =>   4
Atom  29H    basis set group =>   4
[1739875685.832178] [ohm:4178041:0]        ib_iface.c:1059 UCX  ERROR ibv_create_cq(cqe=256) failed: Connection timed out
[1739875685.842081] [ohm:4178044:0]        ib_iface.c:1059 UCX  ERROR ibv_create_cq(cqe=256) failed: Connection timed out
[1739875685.848631] [ohm:4178043:0]        ib_iface.c:1059 UCX  ERROR ibv_create_cq(cqe=256) failed: Connection timed out
[1739875685.854215] [ohm:4178042:0]        ib_iface.c:1059 UCX  ERROR ibv_create_cq(cqe=256) failed: Connection timed out
[1739875685.857577] [ohm:4178046:0]        ib_iface.c:1059 UCX  ERROR ibv_create_cq(cqe=256) failed: Connection timed out
[1739875685.906964] [ohm:4178049:0]        ib_iface.c:1059 UCX  ERROR ibv_create_cq(cqe=256) failed: Connection timed out
[1739875685.915145] [ohm:4178050:0]        ib_iface.c:1059 UCX  ERROR ibv_create_cq(cqe=256) failed: Connection timed out
[1739875685.937430] [ohm:4178048:0]        ib_iface.c:1059 UCX  ERROR ibv_create_cq(cqe=256) failed: Connection timed out
[1739875685.941518] [ohm:4178052:0]        ib_iface.c:1059 UCX  ERROR ibv_create_cq(cqe=256) failed: Connection timed out
[1739875685.951106] [ohm:4178053:0]        ib_iface.c:1059 UCX  ERROR ibv_create_cq(cqe=256) failed: Connection timed out
[1739875685.953143] [ohm:4178047:0]        ib_iface.c:1059 UCX  ERROR ibv_create_cq(cqe=256) failed: Connection timed out
[1739875685.957066] [ohm:4178045:0]        ib_iface.c:1059 UCX  ERROR ibv_create_cq(cqe=256) failed: Connection timed out
[1739875685.961636] [ohm:4178057:0]        ib_iface.c:1059 UCX  ERROR ibv_create_cq(cqe=256) failed: Connection timed out
[1739875685.961713] [ohm:4178067:0]        ib_iface.c:1059 UCX  ERROR ibv_create_cq(cqe=256) failed: Connection timed out
[1739875685.963136] [ohm:4178065:0]        ib_iface.c:1059 UCX  ERROR ibv_create_cq(cqe=256) failed: Connection timed out
[1739875685.978048] [ohm:4178059:0]        ib_iface.c:1059 UCX  ERROR ibv_create_cq(cqe=256) failed: Connection timed out
[1739875686.003032] [ohm:4178070:0]        ib_iface.c:1059 UCX  ERROR ibv_create_cq(cqe=256) failed: Connection timed out
[1739875686.004380] [ohm:4178078:0]        ib_iface.c:1059 UCX  ERROR ibv_create_cq(cqe=256) failed: Connection timed out
[1739875686.007197] [ohm:4178051:0]        ib_iface.c:1059 UCX  ERROR ibv_create_cq(cqe=256) failed: Connection timed out
[1739875686.007201] [ohm:4178066:0]        ib_iface.c:1059 UCX  ERROR ibv_create_cq(cqe=256) failed: Connection timed out
[1739875686.009159] [ohm:4178068:0]        ib_iface.c:1059 UCX  ERROR ibv_create_cq(cqe=256) failed: Connection timed out
[1739875686.013075] [ohm:4178064:0]        ib_iface.c:1059 UCX  ERROR ibv_create_cq(cqe=256) failed: Connection timed out
[1739875686.032334] [ohm:4178069:0]        ib_iface.c:1059 UCX  ERROR ibv_create_cq(cqe=256) failed: Connection timed out
[1739875686.038216] [ohm:4178071:0]        ib_iface.c:1059 UCX  ERROR ibv_create_cq(cqe=256) failed: Connection timed out
[1739875686.056359] [ohm:4178095:0]        ib_iface.c:1059 UCX  ERROR ibv_create_cq(cqe=256) failed: Connection timed out
[1739875686.063854] [ohm:4178086:0]        ib_iface.c:1059 UCX  ERROR ibv_create_cq(cqe=256) failed: Connection timed out
[1739875686.087120] [ohm:4178100:0]        ib_iface.c:1059 UCX  ERROR ibv_create_cq(cqe=256) failed: Connection timed out
[1739875686.089594] [ohm:4178075:0]        ib_iface.c:1059 UCX  ERROR ibv_create_cq(cqe=256) failed: Connection timed out
[1739875686.091181] [ohm:4178112:0]        ib_iface.c:1059 UCX  ERROR ibv_create_cq(cqe=256) failed: Connection timed out
[1739875686.091222] [ohm:4178073:0]        ib_iface.c:1059 UCX  ERROR ibv_create_cq(cqe=256) failed: Connection timed out
[1739875686.113574] [ohm:4178138:0]        ib_iface.c:1059 UCX  ERROR ibv_create_cq(cqe=256) failed: Connection timed out
[1739875686.121002] [ohm:4178105:0]        ib_iface.c:1059 UCX  ERROR ibv_create_cq(cqe=256) failed: Connection timed out
[1739875686.120983] [ohm:4178131:0]        ib_iface.c:1059 UCX  ERROR ibv_create_cq(cqe=256) failed: Connection timed out
[1739875686.123340] [ohm:4178176:0]        ib_iface.c:1059 UCX  ERROR ibv_create_cq(cqe=256) failed: Connection timed out
[1739875686.125897] [ohm:4178107:0]        ib_iface.c:1059 UCX  ERROR ibv_create_cq(cqe=256) failed: Connection timed out
[1739875686.128699] [ohm:4178090:0]        ib_iface.c:1059 UCX  ERROR ibv_create_cq(cqe=256) failed: Connection timed out
[1739875686.130524] [ohm:4178196:0]        ib_iface.c:1059 UCX  ERROR ibv_create_cq(cqe=256) failed: Connection timed out
[1739875686.138362] [ohm:4178126:0]        ib_iface.c:1059 UCX  ERROR ibv_create_cq(cqe=256) failed: Connection timed out
[1739875686.143192] [ohm:4178152:0]        ib_iface.c:1059 UCX  ERROR ibv_create_cq(cqe=256) failed: Connection timed out
[1739875686.146335] [ohm:4178094:0]        ib_iface.c:1059 UCX  ERROR ibv_create_cq(cqe=256) failed: Connection timed out
[1739875686.148672] [ohm:4178181:0]        ib_iface.c:1059 UCX  ERROR ibv_create_cq(cqe=256) failed: Connection timed out
[1739875686.151396] [ohm:4178080:0]        ib_iface.c:1059 UCX  ERROR ibv_create_cq(cqe=256) failed: Connection timed out
[1739875686.155927] [ohm:4178110:0]        ib_iface.c:1059 UCX  ERROR ibv_create_cq(cqe=256) failed: Connection timed out
[1739875686.158006] [ohm:4178091:0]        ib_iface.c:1059 UCX  ERROR ibv_create_cq(cqe=256) failed: Connection timed out
[1739875686.163121] [ohm:4178084:0]        ib_iface.c:1059 UCX  ERROR ibv_create_cq(cqe=256) failed: Connection timed out
[1739875686.166100] [ohm:4178183:0]        ib_iface.c:1059 UCX  ERROR ibv_create_cq(cqe=256) failed: Connection timed out
[1739875686.167466] [ohm:4178155:0]        ib_iface.c:1059 UCX  ERROR ibv_create_cq(cqe=256) failed: Connection timed out
[1739875686.169013] [ohm:4178120:0]        ib_iface.c:1059 UCX  ERROR ibv_create_cq(cqe=256) failed: Connection timed out
[1739875686.171393] [ohm:4178156:0]        ib_iface.c:1059 UCX  ERROR ibv_create_cq(cqe=256) failed: Connection timed out
[1739875686.177590] [ohm:4178150:0]        ib_iface.c:1059 UCX  ERROR ibv_create_cq(cqe=256) failed: Connection timed out
[1739875686.182388] [ohm:4178133:0]        ib_iface.c:1059 UCX  ERROR ibv_create_cq(cqe=256) failed: Connection timed out
[1739875686.183158] [ohm:4178117:0]        ib_iface.c:1059 UCX  ERROR ibv_create_cq(cqe=256) failed: Connection timed out
[1739875686.184331] [ohm:4178146:0]        ib_iface.c:1059 UCX  ERROR ibv_create_cq(cqe=256) failed: Connection timed out
[1739875686.185321] [ohm:4178122:0]        ib_iface.c:1059 UCX  ERROR ibv_create_cq(cqe=256) failed: Connection timed out
[1739875686.190466] [ohm:4178099:0]        ib_iface.c:1059 UCX  ERROR ibv_create_cq(cqe=256) failed: Connection timed out
[1739875686.191654] [ohm:4178161:0]        ib_iface.c:1059 UCX  ERROR ibv_create_cq(cqe=256) failed: Connection timed out
[1739875686.192233] [ohm:4178114:0]        ib_iface.c:1059 UCX  ERROR ibv_create_cq(cqe=256) failed: Connection timed out
[1739875686.195566] [ohm:4178172:0]        ib_iface.c:1059 UCX  ERROR ibv_create_cq(cqe=256) failed: Connection timed out
[1739875686.196374] [ohm:4178148:0]        ib_iface.c:1059 UCX  ERROR ibv_create_cq(cqe=256) failed: Connection timed out
[1739875686.196343] [ohm:4178168:0]        ib_iface.c:1059 UCX  ERROR ibv_create_cq(cqe=256) failed: Connection timed out
[1739875686.196678] [ohm:4178193:0]        ib_iface.c:1059 UCX  ERROR ibv_create_cq(cqe=256) failed: Connection timed out
[1739875686.198563] [ohm:4178187:0]        ib_iface.c:1059 UCX  ERROR ibv_create_cq(cqe=256) failed: Connection timed out
[1739875686.199132] [ohm:4178143:0]        ib_iface.c:1059 UCX  ERROR ibv_create_cq(cqe=256) failed: Connection timed out
[1739875686.200397] [ohm:4178125:0]        ib_iface.c:1059 UCX  ERROR ibv_create_cq(cqe=256) failed: Connection timed out


           ************************************************************
           *        Program running with 64 parallel MPI-processes    *
           *              working on a common directory               *
           ************************************************************
------------------------------------------------------------------------------
                             ORCA STARTUP CALCULATIONS
                           -- RI-GTO INTEGRALS CHOSEN --
------------------------------------------------------------------------------
------------------------------------------------------------------------------
                   ___                                                        
                  /   \      - P O W E R E D   B Y -                         
                 /     \                                                     
                 |  |  |   _    _      __       _____    __    __             
                 |  |  |  | |  | |    /  \     |  _  \  |  |  /  |          
                  \  \/   | |  | |   /    \    | | | |  |  | /  /          
                 / \  \   | |__| |  /  /\  \   | |_| |  |  |/  /          
                |  |  |   |  __  | /  /__\  \  |    /   |      \           
                |  |  |   | |  | | |   __   |  |    \   |  |\   \          
                \     /   | |  | | |  |  |  |  | |\  \  |  | \   \       
                 \___/    |_|  |_| |__|  |__|  |_| \__\ |__|  \__/        
                                                                              
                      - O R C A' S   B I G   F R I E N D -                    
                                      &                                       
                       - I N T E G R A L  F E E D E R -                       
                                                                              
 v1 FN, 2020, v2 2021, v3 2022-2024                                           
------------------------------------------------------------------------------


----------------------
SHARK INTEGRAL PACKAGE
----------------------

Number of atoms                             ...     30
Number of basis functions                   ...    882
Number of shells                            ...    322
Maximum angular momentum                    ...      3
Integral batch strategy                     ... SHARK/LIBINT Hybrid
RI-J (if used) integral strategy            ... SPLIT-RIJ (Revised 2003 algorithm where possible)
Printlevel                                  ...      1
Contraction scheme used                     ... SEGMENTED contraction
Prescreening option                         ... SCHWARTZ
   Thresh                                   ... 2.500e-11
   Tcut                                     ... 2.500e-12
   Tpresel                                  ... 2.500e-12 
Coulomb Range Separation                    ... NOT USED
Exchange Range Separation                   ... Long Range
   Mu parameter                             ... 3.000e-01
   Scaling (regular/separated)              ... 1.500e-01 8.500e-01
Multipole approximations                    ... NOT USED
Finite Nucleus Model                        ... NOT USED
CABS basis                                  ... NOT available
Auxiliary Coulomb fitting basis             ... AVAILABLE
   # of basis functions in Aux-J            ...   1014
   # of shells in Aux-J                     ...    330
   Maximum angular momentum in Aux-J        ...      4
Auxiliary J/K fitting basis                 ... NOT available
Auxiliary Correlation fitting basis         ... NOT available
Auxiliary 'external' fitting basis          ... NOT available

Checking pre-screening integrals            ... done (  0.0 sec) Dimension = 322
Check shell pair data                       ... done (  0.0 sec)
Shell pair information
Shell pair cut-off parameter TPreSel        ...   2.5e-12
Total number of shell pairs                 ...     52003
Shell pairs after pre-screening             ...     44286
Total number of primitive shell pairs       ...    129718
Primitive shell pairs kept                  ...     82263
          la=0 lb=0:   8580 shell pairs
          la=1 lb=0:  11736 shell pairs
          la=1 lb=1:   4057 shell pairs
          la=2 lb=0:   7951 shell pairs
          la=2 lb=1:   5510 shell pairs
          la=2 lb=2:   1901 shell pairs
          la=3 lb=0:   2006 shell pairs
          la=3 lb=1:   1439 shell pairs
          la=3 lb=2:    973 shell pairs
          la=3 lb=3:    133 shell pairs

Calculating one electron integrals          ... done (  0.2 sec)
Calculating RI/J V-Matrix + Cholesky decomp.... done (  0.1 sec)
Calculating Nuclear repulsion               ... done (  0.0 sec) ENN=   1414.175294136023 Eh

Diagonalization of the overlap matrix:
Smallest eigenvalue                        ... 4.068e-07
Time for diagonalization                   ...    0.123 sec
Threshold for overlap eigenvalues          ... 1.000e-07
Number of eigenvalues below threshold      ... 0

IMPORTANT:
Smallest eigenvalue of S below the DiffSThresh (1.000e-06) while
Thresh>1e-12 and/or TCut>1e-13! In order to avoid SCF convergence issues,
Thresh will be set to at least 1e-12 and TCut to at least 1e-13.
This can be turned off by adding %SCF DiffSThresh -1 END to the input.

Time for construction of square roots      ...    0.126 sec
Total time needed                          ...    0.266 sec

-------------------
DFT GRID GENERATION
-------------------

General Integration Accuracy     IntAcc      ... 4.388
Radial Grid Type                 RadialGrid  ... OptM3 with GC (2021)
Angular Grid (max. ang.)         AngularGrid ... 4 (Lebedev-302)
Angular grid pruning method      GridPruning ... 4 (adaptive)
Weight generation scheme         WeightScheme... mBecke (2022)
Basis function cutoff            BFCut       ... 1.0000e-11
Integration weight cutoff        WCut        ... 1.0000e-14
Partially contracted basis set               ... off
Rotationally invariant grid construction     ... off
Angular grids for H and He will be reduced by one unit
Diffuse basis detected: some atoms will have their outermost
                        angular grid increased by 1.

Total number of grid points                  ...   152414
Total number of batches                      ...     2398
Average number of points per batch           ...       63
Average number of grid points per atom       ...     5080

--------------------
COSX GRID GENERATION
--------------------

GRIDX 1
-------
General Integration Accuracy     IntAcc      ... 3.816
Radial Grid Type                 RadialGrid  ... OptM3 with GC (2021)
Angular Grid (max. ang.)         AngularGrid ... 1 (Lebedev-50)
Angular grid pruning method      GridPruning ... 4 (adaptive)
Weight generation scheme         WeightScheme... mBecke (2022)
Basis function cutoff            BFCut       ... 1.0000e-11
Integration weight cutoff        WCut        ... 1.0000e-14
Partially contracted basis set               ... on
Rotationally invariant grid construction     ... off
Angular grids for H and He will be reduced by one unit
Diffuse basis detected: some atoms will have their outermost
                        angular grid increased by 1.

Total number of grid points                  ...    19092
Total number of batches                      ...      167
Average number of points per batch           ...      114
Average number of grid points per atom       ...      636
UseSFitting                                  ... on

GRIDX 2
-------
General Integration Accuracy     IntAcc      ... 4.020
Radial Grid Type                 RadialGrid  ... OptM3 with GC (2021)
Angular Grid (max. ang.)         AngularGrid ... 2 (Lebedev-110)
Angular grid pruning method      GridPruning ... 4 (adaptive)
Weight generation scheme         WeightScheme... mBecke (2022)
Basis function cutoff            BFCut       ... 1.0000e-11
Integration weight cutoff        WCut        ... 1.0000e-14
Partially contracted basis set               ... on
Rotationally invariant grid construction     ... off
Angular grids for H and He will be reduced by one unit
Diffuse basis detected: some atoms will have their outermost
                        angular grid increased by 1.

Total number of grid points                  ...    46099
Total number of batches                      ...      375
Average number of points per batch           ...      122
Average number of grid points per atom       ...     1537
UseSFitting                                  ... on

GRIDX 3
-------
General Integration Accuracy     IntAcc      ... 4.338
Radial Grid Type                 RadialGrid  ... OptM3 with GC (2021)
Angular Grid (max. ang.)         AngularGrid ... 3 (Lebedev-194)
Angular grid pruning method      GridPruning ... 4 (adaptive)
Weight generation scheme         WeightScheme... mBecke (2022)
Basis function cutoff            BFCut       ... 1.0000e-11
Integration weight cutoff        WCut        ... 1.0000e-14
Partially contracted basis set               ... on
Rotationally invariant grid construction     ... off
Angular grids for H and He will be reduced by one unit
Diffuse basis detected: some atoms will have their outermost
                        angular grid increased by 1.

Total number of grid points                  ...   101515
Total number of batches                      ...      807
Average number of points per batch           ...      125
Average number of grid points per atom       ...     3384
UseSFitting                                  ... on
Initializing property integral containers    ... done (  0.0 sec)

SHARK setup successfully completed in   4.0 seconds

Maximum memory used throughout the entire STARTUP-calculation: 79.0 MB
[1739875692.094620] [ohm:4178401:0]        ib_iface.c:1059 UCX  ERROR ibv_create_cq(cqe=256) failed: Connection timed out
[1739875692.113556] [ohm:4178409:0]        ib_iface.c:1059 UCX  ERROR ibv_create_cq(cqe=256) failed: Connection timed out
[1739875692.123919] [ohm:4178403:0]        ib_iface.c:1059 UCX  ERROR ibv_create_cq(cqe=256) failed: Connection timed out
[1739875692.126822] [ohm:4178400:0]        ib_iface.c:1059 UCX  ERROR ibv_create_cq(cqe=256) failed: Connection timed out
[1739875692.129918] [ohm:4178405:0]        ib_iface.c:1059 UCX  ERROR ibv_create_cq(cqe=256) failed: Connection timed out
[1739875692.142378] [ohm:4178399:0]        ib_iface.c:1059 UCX  ERROR ibv_create_cq(cqe=256) failed: Connection timed out
[1739875692.155442] [ohm:4178434:0]        ib_iface.c:1059 UCX  ERROR ibv_create_cq(cqe=256) failed: Connection timed out
[1739875692.159074] [ohm:4178432:0]        ib_iface.c:1059 UCX  ERROR ibv_create_cq(cqe=256) failed: Connection timed out
[1739875692.174270] [ohm:4178410:0]        ib_iface.c:1059 UCX  ERROR ibv_create_cq(cqe=256) failed: Connection timed out
[1739875692.179931] [ohm:4178408:0]        ib_iface.c:1059 UCX  ERROR ibv_create_cq(cqe=256) failed: Connection timed out
[1739875692.183181] [ohm:4178430:0]        ib_iface.c:1059 UCX  ERROR ibv_create_cq(cqe=256) failed: Connection timed out
[1739875692.189116] [ohm:4178466:0]        ib_iface.c:1059 UCX  ERROR ibv_create_cq(cqe=256) failed: Connection timed out
[1739875692.189827] [ohm:4178413:0]        ib_iface.c:1059 UCX  ERROR ibv_create_cq(cqe=256) failed: Connection timed out
[1739875692.204748] [ohm:4178514:0]        ib_iface.c:1059 UCX  ERROR ibv_create_cq(cqe=256) failed: Connection timed out
[1739875692.207096] [ohm:4178478:0]        ib_iface.c:1059 UCX  ERROR ibv_create_cq(cqe=256) failed: Connection timed out
[1739875692.208432] [ohm:4178406:0]        ib_iface.c:1059 UCX  ERROR ibv_create_cq(cqe=256) failed: Connection timed out
[1739875692.224023] [ohm:4178533:0]        ib_iface.c:1059 UCX  ERROR ibv_create_cq(cqe=256) failed: Connection timed out
[1739875692.237788] [ohm:4178474:0]        ib_iface.c:1059 UCX  ERROR ibv_create_cq(cqe=256) failed: Connection timed out
[1739875692.250292] [ohm:4178458:0]        ib_iface.c:1059 UCX  ERROR ibv_create_cq(cqe=256) failed: Connection timed out
[1739875692.255364] [ohm:4178484:0]        ib_iface.c:1059 UCX  ERROR ibv_create_cq(cqe=256) failed: Connection timed out
[1739875692.263301] [ohm:4178534:0]        ib_iface.c:1059 UCX  ERROR ibv_create_cq(cqe=256) failed: Connection timed out
[1739875692.271178] [ohm:4178407:0]        ib_iface.c:1059 UCX  ERROR ibv_create_cq(cqe=256) failed: Connection timed out
[1739875692.271282] [ohm:4178459:0]        ib_iface.c:1059 UCX  ERROR ibv_create_cq(cqe=256) failed: Connection timed out
[1739875692.271591] [ohm:4178456:0]        ib_iface.c:1059 UCX  ERROR ibv_create_cq(cqe=256) failed: Connection timed out
[1739875692.276479] [ohm:4178454:0]        ib_iface.c:1059 UCX  ERROR ibv_create_cq(cqe=256) failed: Connection timed out
[1739875692.279299] [ohm:4178519:0]        ib_iface.c:1059 UCX  ERROR ibv_create_cq(cqe=256) failed: Connection timed out
[1739875692.282027] [ohm:4178404:0]        ib_iface.c:1059 UCX  ERROR ibv_create_cq(cqe=256) failed: Connection timed out
[1739875692.283296] [ohm:4178481:0]        ib_iface.c:1059 UCX  ERROR ibv_create_cq(cqe=256) failed: Connection timed out
[1739875692.305426] [ohm:4178436:0]        ib_iface.c:1059 UCX  ERROR ibv_create_cq(cqe=256) failed: Connection timed out
[1739875692.332652] [ohm:4178451:0]        ib_iface.c:1059 UCX  ERROR ibv_create_cq(cqe=256) failed: Connection timed out
[1739875692.335190] [ohm:4178411:0]        ib_iface.c:1059 UCX  ERROR ibv_create_cq(cqe=256) failed: Connection timed out
[1739875692.336483] [ohm:4178398:0]        ib_iface.c:1059 UCX  ERROR ibv_create_cq(cqe=256) failed: Connection timed out
[1739875692.337933] [ohm:4178402:0]        ib_iface.c:1059 UCX  ERROR ibv_create_cq(cqe=256) failed: Connection timed out
[1739875692.348230] [ohm:4178464:0]        ib_iface.c:1059 UCX  ERROR ibv_create_cq(cqe=256) failed: Connection timed out
[1739875692.348526] [ohm:4178455:0]        ib_iface.c:1059 UCX  ERROR ibv_create_cq(cqe=256) failed: Connection timed out
[1739875692.348539] [ohm:4178541:0]        ib_iface.c:1059 UCX  ERROR ibv_create_cq(cqe=256) failed: Connection timed out
[1739875692.348579] [ohm:4178506:0]        ib_iface.c:1059 UCX  ERROR ibv_create_cq(cqe=256) failed: Connection timed out
[1739875692.355440] [ohm:4178503:0]        ib_iface.c:1059 UCX  ERROR ibv_create_cq(cqe=256) failed: Connection timed out
[1739875692.360099] [ohm:4178487:0]        ib_iface.c:1059 UCX  ERROR ibv_create_cq(cqe=256) failed: Connection timed out
[1739875692.367133] [ohm:4178463:0]        ib_iface.c:1059 UCX  ERROR ibv_create_cq(cqe=256) failed: Connection timed out
[1739875692.370815] [ohm:4178468:0]        ib_iface.c:1059 UCX  ERROR ibv_create_cq(cqe=256) failed: Connection timed out
[1739875692.372930] [ohm:4178535:0]        ib_iface.c:1059 UCX  ERROR ibv_create_cq(cqe=256) failed: Connection timed out
[1739875692.377624] [ohm:4178494:0]        ib_iface.c:1059 UCX  ERROR ibv_create_cq(cqe=256) failed: Connection timed out
[1739875692.379911] [ohm:4178449:0]        ib_iface.c:1059 UCX  ERROR ibv_create_cq(cqe=256) failed: Connection timed out
[1739875692.387408] [ohm:4178501:0]        ib_iface.c:1059 UCX  ERROR ibv_create_cq(cqe=256) failed: Connection timed out
[1739875692.391478] [ohm:4178452:0]        ib_iface.c:1059 UCX  ERROR ibv_create_cq(cqe=256) failed: Connection timed out
[1739875692.398320] [ohm:4178440:0]        ib_iface.c:1059 UCX  ERROR ibv_create_cq(cqe=256) failed: Connection timed out
[1739875692.400559] [ohm:4178447:0]        ib_iface.c:1059 UCX  ERROR ibv_create_cq(cqe=256) failed: Connection timed out
[1739875692.401816] [ohm:4178462:0]        ib_iface.c:1059 UCX  ERROR ibv_create_cq(cqe=256) failed: Connection timed out
[1739875692.408331] [ohm:4178460:0]        ib_iface.c:1059 UCX  ERROR ibv_create_cq(cqe=256) failed: Connection timed out
[1739875692.408888] [ohm:4178475:0]        ib_iface.c:1059 UCX  ERROR ibv_create_cq(cqe=256) failed: Connection timed out
[1739875692.409024] [ohm:4178453:0]        ib_iface.c:1059 UCX  ERROR ibv_create_cq(cqe=256) failed: Connection timed out
[1739875692.415196] [ohm:4178461:0]        ib_iface.c:1059 UCX  ERROR ibv_create_cq(cqe=256) failed: Connection timed out
[1739875692.415327] [ohm:4178545:0]        ib_iface.c:1059 UCX  ERROR ibv_create_cq(cqe=256) failed: Connection timed out
[1739875692.415689] [ohm:4178523:0]        ib_iface.c:1059 UCX  ERROR ibv_create_cq(cqe=256) failed: Connection timed out
[1739875692.415961] [ohm:4178444:0]        ib_iface.c:1059 UCX  ERROR ibv_create_cq(cqe=256) failed: Connection timed out
[1739875692.418267] [ohm:4178517:0]        ib_iface.c:1059 UCX  ERROR ibv_create_cq(cqe=256) failed: Connection timed out
[1739875692.418465] [ohm:4178471:0]        ib_iface.c:1059 UCX  ERROR ibv_create_cq(cqe=256) failed: Connection timed out
[1739875692.419317] [ohm:4178531:0]        ib_iface.c:1059 UCX  ERROR ibv_create_cq(cqe=256) failed: Connection timed out
[1739875692.419634] [ohm:4178509:0]        ib_iface.c:1059 UCX  ERROR ibv_create_cq(cqe=256) failed: Connection timed out
[1739875692.420777] [ohm:4178498:0]        ib_iface.c:1059 UCX  ERROR ibv_create_cq(cqe=256) failed: Connection timed out
[1739875692.420807] [ohm:4178492:0]        ib_iface.c:1059 UCX  ERROR ibv_create_cq(cqe=256) failed: Connection timed out
[1739875692.421877] [ohm:4178457:0]        ib_iface.c:1059 UCX  ERROR ibv_create_cq(cqe=256) failed: Connection timed out
[1739875692.422409] [ohm:4178528:0]        ib_iface.c:1059 UCX  ERROR ibv_create_cq(cqe=256) failed: Connection timed out


           ************************************************************
           *        Program running with 64 parallel MPI-processes    *
           *              working on a common directory               *
           ************************************************************
-------------------------------------------------------------------------------
                                 ORCA GUESS
                   Start orbitals & Density for SCF / CASSCF
-------------------------------------------------------------------------------

------------
SCF SETTINGS
------------
Hamiltonian:
 Density Functional     Method          .... DFT(GTOs)
  Functional kind                       .... Exchange-Correlation
  Functional name                       .... wB97M-V exchange-correlation functional
  Functional family                     .... Hybrid MGGA
  Functional refs                              
    [ 0] N. Mardirossian and M. Head-Gordon.,  J. Chem. Phys. 144, 214110 (2016), doi: 10.1063/1.4952647
  Fraction of HF Exchange (short range) .... 0.1500
  Fraction of HF Exchange (long range)  .... 1.0000
  Range separation parameter mu         .... 0.3000
  Functional external parameters        .... 17
    Parameter  0 _cx00      =  8.500000e-01 : u^00 coefficient for exchange
    Parameter  1 _cx01      =  1.007000e+00 : u^01 coefficient for exchange
    Parameter  2 _cx10      =  2.590000e-01 : u^10 coefficient for exchange
    Parameter  3 _css00     =  4.430000e-01 : u^00 coefficient for same-spin correlation
    Parameter  4 _css04     = -1.437000e+00 : u^04 coefficient for same-spin correlation
    Parameter  5 _css10     = -4.535000e+00 : u^10 coefficient for same-spin correlation
    Parameter  6 _css20     = -3.390000e+00 : u^20 coefficient for same-spin correlation
    Parameter  7 _css43     =  4.278000e+00 : u^43 coefficient for same-spin correlation
    Parameter  8 _cos00     =  1.000000e+00 : u^00 coefficient for opposite-spin correlation
    Parameter  9 _cos10     =  1.358000e+00 : u^10 coefficient for opposite-spin correlation
    Parameter 10 _cos20     =  2.924000e+00 : u^20 coefficient for opposite-spin correlation
    Parameter 11 _cos21     = -8.812000e+00 : u^21 coefficient for opposite-spin correlation
    Parameter 12 _cos60     = -1.390000e+00 : u^60 coefficient for opposite-spin correlation
    Parameter 13 _cos61     =  9.142000e+00 : u^61 coefficient for opposite-spin correlation
    Parameter 14 _alpha     =  1.000000e+00 : fraction of HF exchange
    Parameter 15 _beta      = -8.500000e-01 : fraction of short-range exchange
    Parameter 16 _omega     =  3.000000e-01 : range-separation constant
 Long-range corrected/Screened/Range-Separated Hybrid DFT is turned on
   Amount of maximum screened exact exchange              ....  0.850000
   Range separation parameter mu (erf(mu*r12)/r12)        ....  0.300000
 RI-approximation to the Coulomb term is turned on
   Number of AuxJ basis functions       .... 1014
   RIJ-COSX (HFX calculated with COS-X)).... on


General Settings:
 Integral files         IntName         .... orca
 Hartree-Fock type      HFTyp           .... UHF
 Total Charge           Charge          ....    0
 Multiplicity           Mult            ....    3
 Number of Electrons    NEL             ....  132
 Basis Dimension        Dim             ....  882
 Nuclear Repulsion      ENuc            ....   1414.1752941360 Eh

Convergence Acceleration:
 AO-DIIS                CNVDIIS         .... on
   Start iteration      DIISMaxIt       ....    12
   Startup error        DIISStart       ....  0.200000
   # of expansion vecs  DIISMaxEq       ....     5
   Bias factor          DIISBfac        ....   1.050
   Max. coefficient     DIISMaxC        ....  10.000
 MO-DIIS                CNVKDIIS        .... off
 Trust-Rad. Augm. Hess. CNVTRAH         .... auto
   Auto Start mean grad. ratio tolernc. ....  1.125000
   Auto Start start iteration           ....    50
   Auto Start num. interpolation iter.  ....    10
   Max. Number of Micro iterations      ....    24
   Max. Number of Macro iterations      .... Maxiter - #DIIS iter
   Number of Davidson start vectors     ....     2
   Converg. threshold    (grad. norm)   ....   1.000e-05
   Grad. Scal. Fac. for Micro threshold ....   0.100
   Minimum threshold for Micro iter.    ....   1.000e-02
   NR start threshold (gradient norm)   ....   1.000e-04
   Initial trust radius                 ....   0.400
   Minimum AH scaling param. (alpha)    ....   1.000
   Maximum AH scaling param. (alpha)    .... 1000.000
   Quad. conv. algorithm                .... NR
   White noise on init. David. guess    .... on
   Maximum white noise                  ....   0.010
   Pseudo random numbers                .... off
   Inactive MOs                         .... canonical
   Orbital update algorithm             .... Taylor
   Preconditioner                       .... Diag
   Full preconditioner red. dimension   ....   250
 SOSCF                  CNVSOSCF        .... on
   Start iteration      SOSCFMaxIt      ....   150
   Startup grad/error   SOSCFStart      ....  0.003300
   Hessian update       SOSCFHessUp     .... L-BFGS
 Level Shifting         CNVShift        .... on
   Level shift para.    LevelShift      ....    0.2500
   Turn off err/grad.   ShiftErr        ....    0.0010
 Zerner damping         CNVZerner       .... off
 Static damping         CNVDamp         .... on
   Fraction old density DampFac         ....    0.7000
   Max. Damping (<1)    DampMax         ....    0.9800
   Min. Damping (>=0)   DampMin         ....    0.0000
   Turn off err/grad.   DampErr         ....    0.1000

SCF Procedure:
 Maximum # iterations   MaxIter         ....   125
 SCF integral mode      SCFMode         .... Direct
   Integral package                     .... SHARK and LIBINT hybrid scheme
 Reset frequency        DirectResetFreq ....    20
 Integral Threshold     Thresh          ....  1.000e-12 Eh
 Primitive CutOff       TCut            ....  1.000e-13 Eh

Convergence Tolerance:
 Convergence Check Mode ConvCheckMode   .... Total+1el-Energy
 Convergence forced     ConvForced      .... 1
 Energy Change          TolE            ....  1.000e-08 Eh
 1-El. energy change                    ....  1.000e-05 Eh
 Orbital Gradient       TolG            ....  1.000e-05
 Orbital Rotation angle TolX            ....  1.000e-05
 DIIS Error             TolErr          ....  5.000e-07

------------------------------
INITIAL GUESS: MODEL POTENTIAL
------------------------------
Loading Hartree-Fock densities                     ... done
Calculating cut-offs                               ... done
Initializing the effective Hamiltonian             ... done
Setting up the integral package (SHARK)            ... done
Starting the Coulomb interaction                   ... done (   0.1 sec)
Making the grid                                    ... done (   0.3 sec)
Mapping shells                                     ... done
Starting the XC term evaluation                    ... done (   0.1 sec)
  promolecular density results
     # of electrons  =    131.991067413
     EX              =   -113.492632138
     EC              =     -4.468335671
     EX+EC           =   -117.960967809
Transforming the Hamiltonian                       ... done (   0.1 sec)
Diagonalizing the Hamiltonian                      ... done (   0.1 sec)
Back transforming the eigenvectors                 ... done (   0.1 sec)
Now organizing SCF variables                       ... done
                      ------------------
                      INITIAL GUESS DONE (   1.1 sec)
                      ------------------
             **** ENERGY FILE WAS UPDATED (orca.en.tmp) ****
Finished Guess after   3.6 sec
Maximum memory used throughout the entire GUESS-calculation: 71.5 MB
[1739875696.301359] [ohm:4178776:0]        ib_iface.c:1059 UCX  ERROR ibv_create_cq(cqe=256) failed: Connection timed out
[1739875696.309726] [ohm:4178758:0]        ib_iface.c:1059 UCX  ERROR ibv_create_cq(cqe=256) failed: Connection timed out
[1739875696.310285] [ohm:4178752:0]        ib_iface.c:1059 UCX  ERROR ibv_create_cq(cqe=256) failed: Connection timed out
[1739875696.314019] [ohm:4178759:0]        ib_iface.c:1059 UCX  ERROR ibv_create_cq(cqe=256) failed: Connection timed out
[1739875696.319625] [ohm:4178801:0]        ib_iface.c:1059 UCX  ERROR ibv_create_cq(cqe=256) failed: Connection timed out
[1739875696.365382] [ohm:4178879:0]        ib_iface.c:1059 UCX  ERROR ibv_create_cq(cqe=256) failed: Connection timed out
[1739875696.371336] [ohm:4178771:0]        ib_iface.c:1059 UCX  ERROR ibv_create_cq(cqe=256) failed: Connection timed out
[1739875696.372327] [ohm:4178811:0]        ib_iface.c:1059 UCX  ERROR ibv_create_cq(cqe=256) failed: Connection timed out
[1739875696.379242] [ohm:4178797:0]        ib_iface.c:1059 UCX  ERROR ibv_create_cq(cqe=256) failed: Connection timed out
[1739875696.382198] [ohm:4178859:0]        ib_iface.c:1059 UCX  ERROR ibv_create_cq(cqe=256) failed: Connection timed out
[1739875696.390290] [ohm:4178766:0]        ib_iface.c:1059 UCX  ERROR ibv_create_cq(cqe=256) failed: Connection timed out
[1739875696.397976] [ohm:4178757:0]        ib_iface.c:1059 UCX  ERROR ibv_create_cq(cqe=256) failed: Connection timed out
[1739875696.401778] [ohm:4178762:0]        ib_iface.c:1059 UCX  ERROR ibv_create_cq(cqe=256) failed: Connection timed out
[1739875696.417414] [ohm:4178910:0]        ib_iface.c:1059 UCX  ERROR ibv_create_cq(cqe=256) failed: Connection timed out
[1739875696.424759] [ohm:4178767:0]        ib_iface.c:1059 UCX  ERROR ibv_create_cq(cqe=256) failed: Connection timed out
[1739875696.435743] [ohm:4178882:0]        ib_iface.c:1059 UCX  ERROR ibv_create_cq(cqe=256) failed: Connection timed out
[1739875696.438325] [ohm:4178863:0]        ib_iface.c:1059 UCX  ERROR ibv_create_cq(cqe=256) failed: Connection timed out
[1739875696.439267] [ohm:4178845:0]        ib_iface.c:1059 UCX  ERROR ibv_create_cq(cqe=256) failed: Connection timed out
[1739875696.449254] [ohm:4178773:0]        ib_iface.c:1059 UCX  ERROR ibv_create_cq(cqe=256) failed: Connection timed out
[1739875696.463840] [ohm:4178783:0]        ib_iface.c:1059 UCX  ERROR ibv_create_cq(cqe=256) failed: Connection timed out
[1739875696.466327] [ohm:4178885:0]        ib_iface.c:1059 UCX  ERROR ibv_create_cq(cqe=256) failed: Connection timed out
[1739875696.474008] [ohm:4178784:0]        ib_iface.c:1059 UCX  ERROR ibv_create_cq(cqe=256) failed: Connection timed out
[1739875696.478876] [ohm:4178823:0]        ib_iface.c:1059 UCX  ERROR ibv_create_cq(cqe=256) failed: Connection timed out
[1739875696.483244] [ohm:4178875:0]        ib_iface.c:1059 UCX  ERROR ibv_create_cq(cqe=256) failed: Connection timed out
[1739875696.487887] [ohm:4178760:0]        ib_iface.c:1059 UCX  ERROR ibv_create_cq(cqe=256) failed: Connection timed out
[1739875696.493219] [ohm:4178772:0]        ib_iface.c:1059 UCX  ERROR ibv_create_cq(cqe=256) failed: Connection timed out
[1739875696.496090] [ohm:4178903:0]        ib_iface.c:1059 UCX  ERROR ibv_create_cq(cqe=256) failed: Connection timed out
[1739875696.502124] [ohm:4178770:0]        ib_iface.c:1059 UCX  ERROR ibv_create_cq(cqe=256) failed: Connection timed out
[1739875696.514167] [ohm:4178775:0]        ib_iface.c:1059 UCX  ERROR ibv_create_cq(cqe=256) failed: Connection timed out
[1739875696.516457] [ohm:4178763:0]        ib_iface.c:1059 UCX  ERROR ibv_create_cq(cqe=256) failed: Connection timed out
[1739875696.526195] [ohm:4178836:0]        ib_iface.c:1059 UCX  ERROR ibv_create_cq(cqe=256) failed: Connection timed out
[1739875696.532553] [ohm:4178764:0]        ib_iface.c:1059 UCX  ERROR ibv_create_cq(cqe=256) failed: Connection timed out
[1739875696.534128] [ohm:4178768:0]        ib_iface.c:1059 UCX  ERROR ibv_create_cq(cqe=256) failed: Connection timed out
[1739875696.541200] [ohm:4178872:0]        ib_iface.c:1059 UCX  ERROR ibv_create_cq(cqe=256) failed: Connection timed out
[1739875696.545835] [ohm:4178769:0]        ib_iface.c:1059 UCX  ERROR ibv_create_cq(cqe=256) failed: Connection timed out
[1739875696.548952] [ohm:4178842:0]        ib_iface.c:1059 UCX  ERROR ibv_create_cq(cqe=256) failed: Connection timed out
[1739875696.549422] [ohm:4178802:0]        ib_iface.c:1059 UCX  ERROR ibv_create_cq(cqe=256) failed: Connection timed out
[1739875696.553467] [ohm:4178839:0]        ib_iface.c:1059 UCX  ERROR ibv_create_cq(cqe=256) failed: Connection timed out
[1739875696.556174] [ohm:4178870:0]        ib_iface.c:1059 UCX  ERROR ibv_create_cq(cqe=256) failed: Connection timed out
[1739875696.562872] [ohm:4178756:0]        ib_iface.c:1059 UCX  ERROR ibv_create_cq(cqe=256) failed: Connection timed out
[1739875696.564607] [ohm:4178779:0]        ib_iface.c:1059 UCX  ERROR ibv_create_cq(cqe=256) failed: Connection timed out
[1739875696.567354] [ohm:4178856:0]        ib_iface.c:1059 UCX  ERROR ibv_create_cq(cqe=256) failed: Connection timed out
[1739875696.575347] [ohm:4178894:0]        ib_iface.c:1059 UCX  ERROR ibv_create_cq(cqe=256) failed: Connection timed out
[1739875696.575547] [ohm:4178765:0]        ib_iface.c:1059 UCX  ERROR ibv_create_cq(cqe=256) failed: Connection timed out
[1739875696.578318] [ohm:4178828:0]        ib_iface.c:1059 UCX  ERROR ibv_create_cq(cqe=256) failed: Connection timed out
[1739875696.580278] [ohm:4178754:0]        ib_iface.c:1059 UCX  ERROR ibv_create_cq(cqe=256) failed: Connection timed out
[1739875696.582324] [ohm:4178816:0]        ib_iface.c:1059 UCX  ERROR ibv_create_cq(cqe=256) failed: Connection timed out
[1739875696.584956] [ohm:4178853:0]        ib_iface.c:1059 UCX  ERROR ibv_create_cq(cqe=256) failed: Connection timed out
[1739875696.585330] [ohm:4178755:0]        ib_iface.c:1059 UCX  ERROR ibv_create_cq(cqe=256) failed: Connection timed out
[1739875696.585897] [ohm:4178774:0]        ib_iface.c:1059 UCX  ERROR ibv_create_cq(cqe=256) failed: Connection timed out
[1739875696.585984] [ohm:4178808:0]        ib_iface.c:1059 UCX  ERROR ibv_create_cq(cqe=256) failed: Connection timed out
[1739875696.586983] [ohm:4178792:0]        ib_iface.c:1059 UCX  ERROR ibv_create_cq(cqe=256) failed: Connection timed out
[1739875696.587789] [ohm:4178850:0]        ib_iface.c:1059 UCX  ERROR ibv_create_cq(cqe=256) failed: Connection timed out
[1739875696.588021] [ohm:4178753:0]        ib_iface.c:1059 UCX  ERROR ibv_create_cq(cqe=256) failed: Connection timed out
[1739875696.589118] [ohm:4178832:0]        ib_iface.c:1059 UCX  ERROR ibv_create_cq(cqe=256) failed: Connection timed out
[1739875696.589217] [ohm:4178789:0]        ib_iface.c:1059 UCX  ERROR ibv_create_cq(cqe=256) failed: Connection timed out
[1739875696.592198] [ohm:4178843:0]        ib_iface.c:1059 UCX  ERROR ibv_create_cq(cqe=256) failed: Connection timed out
[1739875696.592451] [ohm:4178777:0]        ib_iface.c:1059 UCX  ERROR ibv_create_cq(cqe=256) failed: Connection timed out
[1739875696.594594] [ohm:4178796:0]        ib_iface.c:1059 UCX  ERROR ibv_create_cq(cqe=256) failed: Connection timed out
[1739875696.595397] [ohm:4178866:0]        ib_iface.c:1059 UCX  ERROR ibv_create_cq(cqe=256) failed: Connection timed out
[1739875696.595977] [ohm:4178820:0]        ib_iface.c:1059 UCX  ERROR ibv_create_cq(cqe=256) failed: Connection timed out
[1739875696.596709] [ohm:4178876:0]        ib_iface.c:1059 UCX  ERROR ibv_create_cq(cqe=256) failed: Connection timed out
[1739875696.596702] [ohm:4178803:0]        ib_iface.c:1059 UCX  ERROR ibv_create_cq(cqe=256) failed: Connection timed out
[1739875696.600933] [ohm:4178761:0]        ib_iface.c:1059 UCX  ERROR ibv_create_cq(cqe=256) failed: Connection timed out


           ************************************************************
           *        Program running with 64 parallel MPI-processes    *
           *              working on a common directory               *
           ************************************************************

-------------------------------------------------------------------------------------------
                                      ORCA LEAN-SCF
                              memory conserving SCF solver
-------------------------------------------------------------------------------------------

----------------------------------------D-I-I-S--------------------------------------------
Iteration    Energy (Eh)           Delta-E    RMSDP     MaxDP     DIISErr   Damp  Time(sec)
-------------------------------------------------------------------------------------------
               ***  Starting incremental Fock matrix formation  ***
    1    -908.0592928685939569     0.00e+00  1.77e-03  5.60e-01  1.48e-01  0.700   7.5
    2    -908.3218603036750665    -2.63e-01  1.38e-03  4.46e-01  7.01e-02  0.700   6.4
                               ***Turning on AO-DIIS***
    3    -908.4369675729901701    -1.15e-01  1.01e-03  3.36e-01  2.81e-02  0.700   5.6
    4    -908.5077580058834883    -7.08e-02  2.36e-03  7.96e-01  2.00e-02  0.000   5.6
    5    -908.6665037337113517    -1.59e-01  1.46e-04  2.80e-02  7.54e-03  0.000   5.8
    6    -908.6676863595646410    -1.18e-03  7.25e-05  1.31e-02  4.64e-03  0.000   5.4
                              *** Initializing SOSCF ***
---------------------------------------S-O-S-C-F--------------------------------------
Iteration    Energy (Eh)           Delta-E    RMSDP     MaxDP     MaxGrad    Time(sec)
--------------------------------------------------------------------------------------
    7    -908.6681922387399482    -5.06e-04  6.48e-05  1.30e-02  3.08e-03     6.2
               *** Restarting incremental Fock matrix formation ***
    8    -908.6685267637424204    -3.35e-04  1.65e-04  1.79e-02  2.20e-03     7.2
    9    -908.6686417083985816    -1.15e-04  1.29e-04  1.34e-02  1.40e-03     6.3
   10    -908.6687014483129587    -5.97e-05  1.11e-04  1.23e-02  6.86e-04     6.3
   11    -908.6687163370881990    -1.49e-05  1.75e-05  1.99e-03  3.73e-04     6.3
   12    -908.6687196686091283    -3.33e-06  1.76e-05  1.87e-03  9.28e-05     6.0
   13    -908.6687208887244651    -1.22e-06  2.21e-06  2.97e-04  4.60e-05     5.9
   14    -908.6687211975979608    -3.09e-07  4.38e-06  5.24e-04  3.03e-05     5.7
   15    -908.6687212985659698    -1.01e-07  1.26e-06  2.50e-04  3.76e-05     5.8
   16    -908.6687213546117619    -5.60e-08  1.40e-06  3.83e-04  1.01e-05     5.5
   17    -908.6687213578177307    -3.21e-09  1.39e-06  3.00e-04  3.27e-06     5.4
                 **** Energy Check signals convergence ****

               *****************************************************
               *                     SUCCESS                       *
               *           SCF CONVERGED AFTER  17 CYCLES          *
               *****************************************************

Recomputing exchange energy using gridx3       ... done (    7.613 sec)
Old exchange energy                            :    -35.015236430 Eh
New exchange energy                            :    -35.015247566 Eh
Exchange energy change after final integration :     -0.000011135 Eh
Total energy after final integration           :   -908.668732493 Eh
             **** ENERGY FILE WAS UPDATED (orca.en.tmp) ****

----------------
TOTAL SCF ENERGY
----------------

Total Energy       :       -908.66873249323567 Eh          -24726.13326 eV

Components:
Nuclear Repulsion  :       1414.17529413602256 Eh           38481.66612 eV
Electronic Energy  :      -2322.84401549384029 Eh          -63207.79908 eV
One Electron Energy:      -4045.76713433509030 Eh         -110090.92064 eV
Two Electron Energy:       1722.92311884125002 Eh           46883.12156 eV

Virial components:
Potential Energy   :      -1814.12039908583620 Eh          -49364.72571 eV
Kinetic Energy     :        905.45166659260053 Eh           24638.59245 eV
Virial Ratio       :          2.00355299572504

DFT components:
N(Alpha)           :       66.999980522484 electrons
N(Beta)            :       64.999971378497 electrons
N(Total)           :      131.999951900981 electrons
E(XC)              :      -86.174207626399 Eh       

---------------
SCF CONVERGENCE
---------------

  Last Energy change         ...    3.2060e-09  Tolerance :   1.0000e-08
  Last MAX-Density change    ...    3.0029e-04  Tolerance :   1.0000e-07
  Last RMS-Density change    ...    1.3856e-06  Tolerance :   5.0000e-09
  Last DIIS Error            ...    3.0769e-03  Tolerance :   5.0000e-07
  Last Orbital Gradient      ...    3.2669e-06  Tolerance :   1.0000e-05
  Last Orbital Rotation      ...    1.7632e-05  Tolerance :   1.0000e-05


----------------------
UHF SPIN CONTAMINATION
----------------------

Warning: in a DFT calculation there is little theoretical justification to 
         calculate <S**2> as in Hartree-Fock theory. We will do it anyways
         but you should keep in mind that the values have only limited relevance

Expectation value of <S**2>     :     2.015532
Ideal value S*(S+1) for S=1.0   :     2.000000
Deviation                       :     0.015532

----------------
ORBITAL ENERGIES
----------------
                 SPIN UP ORBITALS
  NO   OCC          E(Eh)            E(eV) 
   0   1.0000     -19.341970      -526.3218 
   1   1.0000     -19.333377      -526.0879 
   2   1.0000     -19.328630      -525.9587 
   3   1.0000     -19.321878      -525.7750 
   4   1.0000     -14.565393      -396.3445 
   5   1.0000     -14.563373      -396.2895 
   6   1.0000     -14.561965      -396.2512 
   7   1.0000     -14.552277      -395.9876 
   8   1.0000     -10.510245      -285.9983 
   9   1.0000     -10.506545      -285.8976 
  10   1.0000     -10.491154      -285.4788 
  11   1.0000     -10.482929      -285.2550 
  12   1.0000     -10.438831      -284.0550 
  13   1.0000     -10.433009      -283.8966 
  14   1.0000     -10.411933      -283.3231 
  15   1.0000     -10.411537      -283.3123 
  16   1.0000     -10.386175      -282.6222 
  17   1.0000     -10.375666      -282.3362 
  18   1.0000      -1.228967       -33.4419 
  19   1.0000      -1.213742       -33.0276 
  20   1.0000      -1.211546       -32.9678 
  21   1.0000      -1.182998       -32.1910 
  22   1.0000      -1.126564       -30.6554 
  23   1.0000      -1.080202       -29.3938 
  24   1.0000      -1.063212       -28.9315 
  25   1.0000      -1.053641       -28.6710 
  26   1.0000      -1.011136       -27.5144 
  27   1.0000      -0.934373       -25.4256 
  28   1.0000      -0.873829       -23.7781 
  29   1.0000      -0.834625       -22.7113 
  30   1.0000      -0.814892       -22.1743 
  31   1.0000      -0.804307       -21.8863 
  32   1.0000      -0.782338       -21.2885 
  33   1.0000      -0.755788       -20.5660 
  34   1.0000      -0.715436       -19.4680 
  35   1.0000      -0.692634       -18.8475 
  36   1.0000      -0.683138       -18.5891 
  37   1.0000      -0.653801       -17.7908 
  38   1.0000      -0.628952       -17.1147 
  39   1.0000      -0.624572       -16.9955 
  40   1.0000      -0.603519       -16.4226 
  41   1.0000      -0.603056       -16.4100 
  42   1.0000      -0.600913       -16.3517 
  43   1.0000      -0.586003       -15.9460 
  44   1.0000      -0.574667       -15.6375 
  45   1.0000      -0.570906       -15.5351 
  46   1.0000      -0.567483       -15.4420 
  47   1.0000      -0.560151       -15.2425 
  48   1.0000      -0.555486       -15.1155 
  49   1.0000      -0.553253       -15.0548 
  50   1.0000      -0.548410       -14.9230 
  51   1.0000      -0.545234       -14.8366 
  52   1.0000      -0.531896       -14.4736 
  53   1.0000      -0.517594       -14.0845 
  54   1.0000      -0.501095       -13.6355 
  55   1.0000      -0.481854       -13.1119 
  56   1.0000      -0.442037       -12.0284 
  57   1.0000      -0.438987       -11.9455 
  58   1.0000      -0.421168       -11.4606 
  59   1.0000      -0.411159       -11.1882 
  60   1.0000      -0.404324       -11.0022 
  61   1.0000      -0.398732       -10.8500 
  62   1.0000      -0.393736       -10.7141 
  63   1.0000      -0.387595       -10.5470 
  64   1.0000      -0.364214        -9.9108 
  65   1.0000      -0.340052        -9.2533 
  66   1.0000      -0.337008        -9.1705 
  67   0.0000       0.010516         0.2861 
  68   0.0000       0.027655         0.7525 
  69   0.0000       0.032895         0.8951 
  70   0.0000       0.038901         1.0585 
  71   0.0000       0.049479         1.3464 
  72   0.0000       0.056329         1.5328 
  73   0.0000       0.059353         1.6151 
  74   0.0000       0.060594         1.6488 
  75   0.0000       0.065413         1.7800 
  76   0.0000       0.068895         1.8747 
  77   0.0000       0.074189         2.0188 

                 SPIN DOWN ORBITALS
  NO   OCC          E(Eh)            E(eV) 
   0   1.0000     -19.341958      -526.3214 
   1   1.0000     -19.328680      -525.9601 
   2   1.0000     -19.324994      -525.8598 
   3   1.0000     -19.321878      -525.7750 
   4   1.0000     -14.565341      -396.3431 
   5   1.0000     -14.562992      -396.2792 
   6   1.0000     -14.561952      -396.2509 
   7   1.0000     -14.551736      -395.9729 
   8   1.0000     -10.510240      -285.9982 
   9   1.0000     -10.506545      -285.8976 
  10   1.0000     -10.491160      -285.4790 
  11   1.0000     -10.484191      -285.2894 
  12   1.0000     -10.438754      -284.0529 
  13   1.0000     -10.432937      -283.8946 
  14   1.0000     -10.411442      -283.3097 
  15   1.0000     -10.387368      -282.6546 
  16   1.0000     -10.386771      -282.6384 
  17   1.0000     -10.375660      -282.3361 
  18   1.0000      -1.228937       -33.4411 
  19   1.0000      -1.213727       -33.0272 
  20   1.0000      -1.210714       -32.9452 
  21   1.0000      -1.170667       -31.8555 
  22   1.0000      -1.126408       -30.6511 
  23   1.0000      -1.078923       -29.3590 
  24   1.0000      -1.060809       -28.8661 
  25   1.0000      -1.052700       -28.6454 
  26   1.0000      -1.010825       -27.5059 
  27   1.0000      -0.904961       -24.6253 
  28   1.0000      -0.873703       -23.7747 
  29   1.0000      -0.816313       -22.2130 
  30   1.0000      -0.812597       -22.1119 
  31   1.0000      -0.804032       -21.8788 
  32   1.0000      -0.781810       -21.2741 
  33   1.0000      -0.753744       -20.5104 
  34   1.0000      -0.712779       -19.3957 
  35   1.0000      -0.690714       -18.7953 
  36   1.0000      -0.674493       -18.3539 
  37   1.0000      -0.653282       -17.7767 
  38   1.0000      -0.627059       -17.0631 
  39   1.0000      -0.618390       -16.8273 
  40   1.0000      -0.603191       -16.4137 
  41   1.0000      -0.599904       -16.3242 
  42   1.0000      -0.582328       -15.8460 
  43   1.0000      -0.577544       -15.7158 
  44   1.0000      -0.573000       -15.5921 
  45   1.0000      -0.562673       -15.3111 
  46   1.0000      -0.557692       -15.1756 
  47   1.0000      -0.553857       -15.0712 
  48   1.0000      -0.551964       -15.0197 
  49   1.0000      -0.548918       -14.9368 
  50   1.0000      -0.540568       -14.7096 
  51   1.0000      -0.536205       -14.5909 
  52   1.0000      -0.530043       -14.4232 
  53   1.0000      -0.504466       -13.7272 
  54   1.0000      -0.500209       -13.6114 
  55   1.0000      -0.481389       -13.0993 
  56   1.0000      -0.440185       -11.9780 
  57   1.0000      -0.429117       -11.6769 
  58   1.0000      -0.420576       -11.4445 
  59   1.0000      -0.403988       -10.9931 
  60   1.0000      -0.398804       -10.8520 
  61   1.0000      -0.389521       -10.5994 
  62   1.0000      -0.383308       -10.4304 
  63   1.0000      -0.378554       -10.3010 
  64   1.0000      -0.362267        -9.8578 
  65   0.0000      -0.035287        -0.9602 
  66   0.0000      -0.006336        -0.1724 
  67   0.0000       0.011441         0.3113 
  68   0.0000       0.027757         0.7553 
  69   0.0000       0.032876         0.8946 
  70   0.0000       0.039822         1.0836 
  71   0.0000       0.050305         1.3689 
  72   0.0000       0.056248         1.5306 
  73   0.0000       0.059334         1.6146 
  74   0.0000       0.061754         1.6804 
  75   0.0000       0.066169         1.8006 
*Only the first 10 virtual orbitals were printed.

                    ********************************
                    * MULLIKEN POPULATION ANALYSIS *
                    ********************************

--------------------------------------------
MULLIKEN ATOMIC CHARGES AND SPIN POPULATIONS
--------------------------------------------
   0 O :   -0.592072    0.000304
   1 O :   -0.641126    0.280438
   2 O :   -0.630845    0.000130
   3 O :   -0.644440   -0.000781
   4 N :   -0.134556    0.001808
   5 N :   -0.143837    0.042634
   6 N :   -0.026907    0.000439
   7 N :    0.199076    0.023655
   8 C :    2.180015    0.005815
   9 C :    0.082008    1.365622
  10 C :   -0.321708   -0.003283
  11 C :   -0.726036   -0.002989
  12 C :   -1.711284    0.006077
  13 C :   -1.104200    0.012378
  14 C :   -0.164425    0.001929
  15 C :    0.772666    0.171908
  16 C :    0.466634   -0.000189
  17 C :    0.427554   -0.006855
  18 H :    0.233826    0.000143
  19 H :    0.357241   -0.015507
  20 H :    0.318535    0.003450
  21 H :    0.356986   -0.000077
  22 H :    0.380672    0.000015
  23 H :    0.239342    0.030946
  24 H :    0.208635    0.043225
  25 H :    0.334572    0.039077
  26 H :    0.057354   -0.000367
  27 H :    0.142917   -0.000969
  28 H :    0.035066   -0.000142
  29 H :    0.048338    0.001166
Sum of atomic charges         :    0.0000000
Sum of atomic spin populations:    2.0000000

-----------------------------------------------------
MULLIKEN REDUCED ORBITAL CHARGES AND SPIN POPULATIONS
-----------------------------------------------------
CHARGE
  0 O s       :     4.069588  s :     4.069588
      pz      :     1.461036  p :     4.487716
      px      :     1.382980
      py      :     1.643700
      dz2     :     0.006918  d :     0.032728
      dxz     :     0.008252
      dyz     :     0.008420
      dx2y2   :     0.005492
      dxy     :     0.003645
      f0      :     0.000334  f :     0.002041
      f+1     :     0.000227
      f-1     :     0.000439
[...]
[1739875956.699083] [ohm:4181205:0]        ib_iface.c:1059 UCX  ERROR ibv_create_cq(cqe=256) failed: Connection timed out
[1739875956.699232] [ohm:4181183:0]        ib_iface.c:1059 UCX  ERROR ibv_create_cq(cqe=256) failed: Connection timed out
[1739875956.702064] [ohm:4181244:0]        ib_iface.c:1059 UCX  ERROR ibv_create_cq(cqe=256) failed: Connection timed out
[1739875956.704527] [ohm:4181218:0]        ib_iface.c:1059 UCX  ERROR ibv_create_cq(cqe=256) failed: Connection timed out
[1739875956.706964] [ohm:4181159:0]        ib_iface.c:1059 UCX  ERROR ibv_create_cq(cqe=256) failed: Connection timed out
[1739875956.707150] [ohm:4181178:0]        ib_iface.c:1059 UCX  ERROR ibv_create_cq(cqe=256) failed: Connection timed out
[1739875956.708876] [ohm:4181265:0]        ib_iface.c:1059 UCX  ERROR ibv_create_cq(cqe=256) failed: Connection timed out
[1739875956.710596] [ohm:4181254:0]        ib_iface.c:1059 UCX  ERROR ibv_create_cq(cqe=256) failed: Connection timed out
[1739875956.710659] [ohm:4181240:0]        ib_iface.c:1059 UCX  ERROR ibv_create_cq(cqe=256) failed: Connection timed out
[1739875956.711947] [ohm:4181136:0]        ib_iface.c:1059 UCX  ERROR ibv_create_cq(cqe=256) failed: Connection timed out


           ************************************************************
           *        Program running with 64 parallel MPI-processes    *
           *              working on a common directory               *
           ************************************************************

------------------------------------------------------------------------------
                              ORCA PROPERTY CALCULATIONS
------------------------------------------------------------------------------

GBWName                                 ... orca.gbw
Number of atoms                         ...     30
Number of basis functions               ...    882
Max core memory                         ...   1024 MB

Electric properties:
Dipole moment                           ... YES
Quadrupole moment                       ...  NO
Static polarizability (Dipole/Dipole)   ...  NO
Static polarizability (Dipole/Quad.)    ...  NO
Static polarizability (Quad./Quad.)     ...  NO
Static polarizability (Velocity)        ...  NO

Atomic electric properties:
Dipole moment                           ...  NO
Quadrupole moment                       ...  NO
Static polarizability                   ...  NO

Choice of electric origin               ... Center of mass
Position of electric origin             ...     0.062540    -0.009457    -0.036033

General magnetic properties:
Magnetizability                         ...  NO

EPR properties:
g-Tensor (aka g-matrix)                 ...  NO
Zero-Field splitting spin-orbit         ...  NO
Zero-field splitting spin-spin          ...  NO
Hyperfine couplings                     ...  NO (   0 nuclei)
Quadrupole couplings                    ...  NO (   0 nuclei)
Contact density                         ...  NO (   0 nuclei)

NMR properties:
Chemical shifts                         ...  NO (   0 nuclei)
Spin-rotation constants                 ...  NO (   0 nuclei)
Spin-spin couplings                     ...  NO (   0 nuclei,    0 pairs)

Choice of magnetic origin               ... GIAO
Position of magnetic origin             ...     0.000000     0.000000     0.000000

Properties with geometric perturbations:
SCF Hessian                             ...  NO
IR spectrum                             ...  NO
VCD spectrum                            ...  NO
X-ray spectroscopy properties:
SCF XES/XAS/RIXS spectra                ...  NO


-------------
DIPOLE MOMENT
-------------

Method             : SCF
Type of density    : Electron Density
Multiplicity       :   3
Irrep              :   0
Energy             :  -908.6687324932356660 Eh
Relativity type    : 
Basis              : AO
                                X                 Y                 Z
Electronic contribution:     -2.120226362     -10.484266215      -7.810977434
Nuclear contribution   :      2.642914676      11.505396402      10.644647259
                        -----------------------------------------
Total Dipole Moment    :      0.522688314       1.021130187       2.833669825
                        -----------------------------------------
Magnitude (a.u.)       :      3.057056527
Magnitude (Debye)      :      7.770420165



--------------------
Rotational spectrum 
--------------------
 
Rotational constants in cm-1:             0.021161             0.012272             0.010832 
Rotational constants in MHz :           634.399667           367.914594           324.745582 

Dipole components along the rotational axes: 
x,y,z [a.u.] :     0.267336     2.137777    -2.168879 
x,y,z [Debye]:     0.679514     5.433797    -5.512852 

 

-------------
DIPOLE MOMENT
-------------

Method             : TDA/CIS
Type of density    : Electron Density
Level              : Relaxed density
State              :   1
Multiplicity       :   3
Irrep              :   0
Energy             :     0.0000000000000000 Eh
Relativity type    : 
Basis              : AO
                                X                 Y                 Z
Electronic contribution:     -2.178670289     -10.368638211      -7.594248821
Nuclear contribution   :      2.642914676      11.505396402      10.644647259
                        -----------------------------------------
Total Dipole Moment    :      0.464244388       1.136758191       3.050398438
                        -----------------------------------------
Magnitude (a.u.)       :      3.288262865
Magnitude (Debye)      :      8.358099973



--------------------
Rotational spectrum 
--------------------
 
Rotational constants in cm-1:             0.021161             0.012272             0.010832 
Rotational constants in MHz :           634.399667           367.914594           324.745582 

Dipole components along the rotational axes: 
x,y,z [a.u.] :     0.216595     2.247369    -2.390626 
x,y,z [Debye]:     0.550541     5.712357    -6.076489 

 

Dipole moment calculation done in   0.1 sec 

Maximum memory used throughout the entire PROP-calculation: 80.7 MB
[1739875959.094493] [ohm:4181468:0]        ib_iface.c:1059 UCX  ERROR ibv_create_cq(cqe=256) failed: Connection timed out
[1739875959.100390] [ohm:4181472:0]        ib_iface.c:1059 UCX  ERROR ibv_create_cq(cqe=256) failed: Connection timed out
[1739875959.102228] [ohm:4181465:0]        ib_iface.c:1059 UCX  ERROR ibv_create_cq(cqe=256) failed: Connection timed out
[1739875959.122673] [ohm:4181466:0]        ib_iface.c:1059 UCX  ERROR ibv_create_cq(cqe=256) failed: Connection timed out
[1739875959.135152] [ohm:4181470:0]        ib_iface.c:1059 UCX  ERROR ibv_create_cq(cqe=256) failed: Connection timed out
[1739875959.151021] [ohm:4181467:0]        ib_iface.c:1059 UCX  ERROR ibv_create_cq(cqe=256) failed: Connection timed out
[1739875959.162686] [ohm:4181473:0]        ib_iface.c:1059 UCX  ERROR ibv_create_cq(cqe=256) failed: Connection timed out
[1739875959.183637] [ohm:4181477:0]        ib_iface.c:1059 UCX  ERROR ibv_create_cq(cqe=256) failed: Connection timed out
[1739875959.196026] [ohm:4181475:0]        ib_iface.c:1059 UCX  ERROR ibv_create_cq(cqe=256) failed: Connection timed out
[1739875959.198056] [ohm:4181478:0]        ib_iface.c:1059 UCX  ERROR ibv_create_cq(cqe=256) failed: Connection timed out
[1739875959.200312] [ohm:4181474:0]        ib_iface.c:1059 UCX  ERROR ibv_create_cq(cqe=256) failed: Connection timed out
[1739875959.200990] [ohm:4181469:0]        ib_iface.c:1059 UCX  ERROR ibv_create_cq(cqe=256) failed: Connection timed out
[1739875959.201143] [ohm:4181520:0]        ib_iface.c:1059 UCX  ERROR ibv_create_cq(cqe=256) failed: Connection timed out
[1739875959.202284] [ohm:4181471:0]        ib_iface.c:1059 UCX  ERROR ibv_create_cq(cqe=256) failed: Connection timed out
[1739875959.202284] [ohm:4181591:0]        ib_iface.c:1059 UCX  ERROR ibv_create_cq(cqe=256) failed: Connection timed out
[1739875959.210744] [ohm:4181486:0]        ib_iface.c:1059 UCX  ERROR ibv_create_cq(cqe=256) failed: Connection timed out
[1739875959.212048] [ohm:4181612:0]        ib_iface.c:1059 UCX  ERROR ibv_create_cq(cqe=256) failed: Connection timed out
[1739875959.219357] [ohm:4181488:0]        ib_iface.c:1059 UCX  ERROR ibv_create_cq(cqe=256) failed: Connection timed out
[1739875959.224700] [ohm:4181582:0]        ib_iface.c:1059 UCX  ERROR ibv_create_cq(cqe=256) failed: Connection timed out
[1739875959.232044] [ohm:4181563:0]        ib_iface.c:1059 UCX  ERROR ibv_create_cq(cqe=256) failed: Connection timed out
[1739875959.234877] [ohm:4181604:0]        ib_iface.c:1059 UCX  ERROR ibv_create_cq(cqe=256) failed: Connection timed out
[1739875959.243774] [ohm:4181517:0]        ib_iface.c:1059 UCX  ERROR ibv_create_cq(cqe=256) failed: Connection timed out
[1739875959.263345] [ohm:4181547:0]        ib_iface.c:1059 UCX  ERROR ibv_create_cq(cqe=256) failed: Connection timed out
[1739875959.272601] [ohm:4181476:0]        ib_iface.c:1059 UCX  ERROR ibv_create_cq(cqe=256) failed: Connection timed out
[1739875959.282999] [ohm:4181588:0]        ib_iface.c:1059 UCX  ERROR ibv_create_cq(cqe=256) failed: Connection timed out
[1739875959.287657] [ohm:4181603:0]        ib_iface.c:1059 UCX  ERROR ibv_create_cq(cqe=256) failed: Connection timed out
[1739875959.292177] [ohm:4181482:0]        ib_iface.c:1059 UCX  ERROR ibv_create_cq(cqe=256) failed: Connection timed out
[1739875959.300485] [ohm:4181489:0]        ib_iface.c:1059 UCX  ERROR ibv_create_cq(cqe=256) failed: Connection timed out
[1739875959.300465] [ohm:4181548:0]        ib_iface.c:1059 UCX  ERROR ibv_create_cq(cqe=256) failed: Connection timed out
[1739875959.304218] [ohm:4181533:0]        ib_iface.c:1059 UCX  ERROR ibv_create_cq(cqe=256) failed: Connection timed out
[1739875959.307915] [ohm:4181556:0]        ib_iface.c:1059 UCX  ERROR ibv_create_cq(cqe=256) failed: Connection timed out
[1739875959.314404] [ohm:4181584:0]        ib_iface.c:1059 UCX  ERROR ibv_create_cq(cqe=256) failed: Connection timed out
[1739875959.324073] [ohm:4181485:0]        ib_iface.c:1059 UCX  ERROR ibv_create_cq(cqe=256) failed: Connection timed out
[1739875959.333991] [ohm:4181481:0]        ib_iface.c:1059 UCX  ERROR ibv_create_cq(cqe=256) failed: Connection timed out
[1739875959.342996] [ohm:4181525:0]        ib_iface.c:1059 UCX  ERROR ibv_create_cq(cqe=256) failed: Connection timed out
[1739875959.347391] [ohm:4181566:0]        ib_iface.c:1059 UCX  ERROR ibv_create_cq(cqe=256) failed: Connection timed out
[1739875959.370015] [ohm:4181490:0]        ib_iface.c:1059 UCX  ERROR ibv_create_cq(cqe=256) failed: Connection timed out
[1739875959.370921] [ohm:4181555:0]        ib_iface.c:1059 UCX  ERROR ibv_create_cq(cqe=256) failed: Connection timed out
[1739875959.378604] [ohm:4181576:0]        ib_iface.c:1059 UCX  ERROR ibv_create_cq(cqe=256) failed: Connection timed out
[1739875959.378832] [ohm:4181580:0]        ib_iface.c:1059 UCX  ERROR ibv_create_cq(cqe=256) failed: Connection timed out
[1739875959.380211] [ohm:4181479:0]        ib_iface.c:1059 UCX  ERROR ibv_create_cq(cqe=256) failed: Connection timed out
[1739875959.382002] [ohm:4181594:0]        ib_iface.c:1059 UCX  ERROR ibv_create_cq(cqe=256) failed: Connection timed out
[1739875959.383278] [ohm:4181480:0]        ib_iface.c:1059 UCX  ERROR ibv_create_cq(cqe=256) failed: Connection timed out
[1739875959.384732] [ohm:4181483:0]        ib_iface.c:1059 UCX  ERROR ibv_create_cq(cqe=256) failed: Connection timed out
[1739875959.385038] [ohm:4181599:0]        ib_iface.c:1059 UCX  ERROR ibv_create_cq(cqe=256) failed: Connection timed out
[1739875959.394125] [ohm:4181538:0]        ib_iface.c:1059 UCX  ERROR ibv_create_cq(cqe=256) failed: Connection timed out
[1739875959.395378] [ohm:4181587:0]        ib_iface.c:1059 UCX  ERROR ibv_create_cq(cqe=256) failed: Connection timed out
[1739875959.398116] [ohm:4181570:0]        ib_iface.c:1059 UCX  ERROR ibv_create_cq(cqe=256) failed: Connection timed out
[1739875959.398297] [ohm:4181527:0]        ib_iface.c:1059 UCX  ERROR ibv_create_cq(cqe=256) failed: Connection timed out
[1739875959.399159] [ohm:4181499:0]        ib_iface.c:1059 UCX  ERROR ibv_create_cq(cqe=256) failed: Connection timed out
[1739875959.399514] [ohm:4181597:0]        ib_iface.c:1059 UCX  ERROR ibv_create_cq(cqe=256) failed: Connection timed out
[1739875959.403649] [ohm:4181487:0]        ib_iface.c:1059 UCX  ERROR ibv_create_cq(cqe=256) failed: Connection timed out
[1739875959.405463] [ohm:4181561:0]        ib_iface.c:1059 UCX  ERROR ibv_create_cq(cqe=256) failed: Connection timed out
[1739875959.406842] [ohm:4181501:0]        ib_iface.c:1059 UCX  ERROR ibv_create_cq(cqe=256) failed: Connection timed out
[1739875959.409004] [ohm:4181510:0]        ib_iface.c:1059 UCX  ERROR ibv_create_cq(cqe=256) failed: Connection timed out
[1739875959.410696] [ohm:4181574:0]        ib_iface.c:1059 UCX  ERROR ibv_create_cq(cqe=256) failed: Connection timed out
[1739875959.410772] [ohm:4181539:0]        ib_iface.c:1059 UCX  ERROR ibv_create_cq(cqe=256) failed: Connection timed out
[1739875959.414322] [ohm:4181494:0]        ib_iface.c:1059 UCX  ERROR ibv_create_cq(cqe=256) failed: Connection timed out
[1739875959.414357] [ohm:4181493:0]        ib_iface.c:1059 UCX  ERROR ibv_create_cq(cqe=256) failed: Connection timed out
[1739875959.415892] [ohm:4181512:0]        ib_iface.c:1059 UCX  ERROR ibv_create_cq(cqe=256) failed: Connection timed out
[1739875959.418129] [ohm:4181531:0]        ib_iface.c:1059 UCX  ERROR ibv_create_cq(cqe=256) failed: Connection timed out
[1739875959.418715] [ohm:4181552:0]        ib_iface.c:1059 UCX  ERROR ibv_create_cq(cqe=256) failed: Connection timed out
[1739875959.418773] [ohm:4181507:0]        ib_iface.c:1059 UCX  ERROR ibv_create_cq(cqe=256) failed: Connection timed out
[1739875959.431434] [ohm:4181484:0]        ib_iface.c:1059 UCX  ERROR ibv_create_cq(cqe=256) failed: Connection timed out

--------------------------------
SUGGESTED CITATIONS FOR THIS RUN
--------------------------------

Below you find a list of papers that are relevant to this ORCA run
We neither can nor want to force you to cite these papers, but we appreciate if you do
You receive ORCA, which is the product of decades of hard work by many enthusiastic individuals, for free
The only thing we kindly ask in return is that you cite our papers,
We deeply appreciate it, if you show your appreciation for ORCA by not just citing the generic ORCA reference.

Please note that relegating all ORCA citations to the supporting information does *not* help us.
SI sections are not indexed - citations you put there will not count into any citation statistics
But we need these citations in order to attract the funding resources that allow us to do what we are doing

Therefore, if you are a happy ORCA user, please consider citing a few of the papers listed below in the main body of your paper

In addition to the list printed below, the program has created the file orca.bibtex that contains the list in bibtex format
You can import this file easily into all common literature databanks and citation aid programs


List of essential papers. We consider these as the minimum necessary citations

  1. Neese,F.
     Software update: the ORCA program system, version 5.0
     WIRES Comput. Molec. Sci., 2022 12(1)e1606
     doi.org/10.1002/wcms.1606

List of papers to cite with high priority. The work reported in these papers was absolutely
necessary for this run to complete.
Our perspective: the developers of density functionals and basis sets usually get cited in chemistry papers
Good! But without the algorithms to do something with them, the functionals or basis sets would not do anything.
Hence, in our opinion, the algorithm design and method developments papers are equally worthy of getting cited

  1. Neese,F.; Olbrich,G.
     Efficient use of the resolution of the identity approximation in time-dependent density functional calculations with hybrid density functionals
     Chem. Phys. Lett., 2002 362 170-178
     doi.org/10.1016/s0009-2614(02)01053-9
  2. Neese,F.
     An improvement of the resolution of the identity approximation for the formation of the Coulomb matrix
     J. Comp. Chem., 2003 24(14)1740-1747
     doi.org/10.1002/jcc.10318
  3. Neese,F.; Wennmohs,F.; Hansen,A.; Becker,U.
     Efficient, approximate and parallel Hartree-Fock and hybrid DFT calculations. A 'chain-of-spheres' algorithm for the Hartree-Fock exchange
     Chem. Phys., 2009 356(1-3)98-109
     doi.org/10.1016/j.chemphys.2008.10.036
  4. Petrenko,T.; Kossmann,S.; Neese,F.
     Efficient time-dependent density functional theory approximations for hybrid density functionals: Analytical gradients and parallelization
     J. Chem. Phys., 2011 134 054116
     doi.org/10.1063/1.3533441
  5. Helmich-Paris,B.; de Souza,B.; Neese,F.; Izsák,R.
     An improved chain of spheres for exchange algorithm
     J. Chem. Phys., 2021 155 104109
     doi.org/doi: 10.1063/5.0058766.
  6. Neese,F.
     The SHARK Integral Generation and Digestion System
     J. Comp. Chem., 2022  1-16
     doi.org/10.1002/jcc.26942
  7. Lehtola,S.; Steigemann,C.; Oliveira,M.; Marques,M.
     Recent developments in Libxc - A comprehensive library of functionals for density functional theory
     Software X, 2018 7 
     doi.org/10.1016/j.softx.2017.11.002
  8. Grimme,S.; Antony,J.; Ehrlich,S.; Krieg,H.
     A consistent and accurate ab initio parametrization of density functional dispersion correction (DFT-D) for the 94 elements H-Pu
     J. Chem. Phys., 2010 132 154104-XXXX
     doi.org/10.1063/1.3382344
  9. Grimme,S.; Ehrlich,S.; Goerigk,L.
     Effect of the damping function in dispersion corrected density functional theory
     J. Comput. Chem., 2011 32(7)1456-1465
     doi.org/10.1002/jcc.21759

List of suggested additional citations. These are papers that are important in the 'surrounding' of 
of this run, or papers that preceded the highly important papers. If you like your results we are grateful for a citation.

  1. Izsak,R.; Neese,F.
     An overlap fitted chain of spheres exchange method
     J. Chem. Phys., 2011 135 144105
     doi.org/10.1063/1.3646921
  2. Izsak,R.; Hansen,A.; Neese,F.
     The resolution of identity and chain of spheres approximations for the LPNO-CCSD singles Fock term
     Molec. Phys., 2012 110 2413-2417
     doi.org/10.1080/00268976.2012.687466
  3. Neese,F.
     The ORCA program system
     WIRES Comput. Molec. Sci., 2012 2(1)73-78
     doi.org/10.1002/wcms.81
  4. Izsak,R.; Neese,F.; Klopper,W.
     Robust fitting techniques in the chain of spheres approximation to the Fock exchange: The role of the complementary space
     J. Chem. Phys., 2013 139 
     doi.org/10.1063/1.4819264
  5. Neese,F.
     Software update: the ORCA program system, version 4.0
     WIRES Comput. Molec. Sci., 2018 8(1)1-6
     doi.org/10.1002/wcms.1327
  6. Neese,F.; Wennmohs,F.; Becker,U.; Riplinger,C.
     The ORCA quantum chemistry program package
     J. Chem. Phys., 2020 152 Art. No. L224108
     doi.org/10.1063/5.0004608

List of optional additional citations

  1. Neese,F.
     Approximate second-order SCF convergence for spin unrestricted wavefunctions
     Chem. Phys. Lett., 2000 325(1-3)93-98
     doi.org/10.1016/s0009-2614(00)00662-x

Timings for individual modules:

Sum of individual times          ...      273.172 sec (=   4.553 min)
Startup calculation              ...        6.155 sec (=   0.103 min)   2.3 %
SCF iterations                   ...      119.999 sec (=   2.000 min)  43.9 %
Property integrals               ...        4.296 sec (=   0.072 min)   1.6 %
Property calculations            ...        2.761 sec (=   0.046 min)   1.0 %
CIS module                       ...      139.960 sec (=   2.333 min)  51.2 %
                             ****ORCA TERMINATED NORMALLY****
TOTAL RUN TIME: 0 days 0 hours 4 minutes 35 seconds 225 msec
