
                                 *****************
                                 * O   R   C   A *
                                 *****************

                                            #,                                       
                                            ###                                      
                                            ####                                     
                                            #####                                    
                                            ######                                   
                                           ########,                                 
                                     ,,################,,,,,                         
                               ,,#################################,,                 
                          ,,##########################################,,             
                       ,#########################################, ''#####,          
                    ,#############################################,,   '####,        
                  ,##################################################,,,,####,       
                ,###########''''           ''''###############################       
              ,#####''   ,,,,##########,,,,          '''####'''          '####       
            ,##' ,,,,###########################,,,                        '##       
           ' ,,###''''                  '''############,,,                           
         ,,##''                                '''############,,,,        ,,,,,,###''
      ,#''                                            '''#######################'''  
     '                                                          ''''####''''         
             ,#######,   #######,   ,#######,      ##                                
            ,#'     '#,  ##    ##  ,#'     '#,    #''#        ,####,   ,####,        
            ##       ##  ##   ,#'  ##            #'  '#       #'       #'  '#        
            ##       ##  #######   ##           ,######,      #####,   #    #        
            '#,     ,#'  ##    ##  '#,     ,#' ,#      #,     #,   #   #,  ,#        
             '#######'   ##     ##  '#######'  #'      '#     '####' # '####'        



                #########################################################
                #                        -***-                          #
                #          Department of theory and spectroscopy        #
                #                                                       #
                #                      Frank Neese                      #
                #                                                       #
                #     Directorship, Architecture, Infrastructure        #
                #                    SHARK, DRIVERS                     #
                #        Core code/Algorithms in most modules           #
                #                                                       #
                #        Max Planck Institute fuer Kohlenforschung      #
                #                Kaiser Wilhelm Platz 1                 #
                #                 D-45470 Muelheim/Ruhr                 #
                #                      Germany                          #
                #                                                       #
                #                  All rights reserved                  #
                #                        -***-                          #
                #########################################################


                         Program Version 6.0.0  -   RELEASE  -


 With contributions from (in alphabetic order):
   Daniel Aravena         : Magnetic Suceptibility
   Michael Atanasov       : Ab Initio Ligand Field Theory (pilot matlab implementation)
   Alexander A. Auer      : GIAO ZORA, VPT2 properties, NMR spectrum
   Ute Becker             : All parallelization in ORCA, NUMFREQ, NUMCALC
   Giovanni Bistoni       : ED, misc. LED, open-shell LED, HFLD
   Martin Brehm           : Molecular dynamics
   Dmytro Bykov           : pre 5.0 version of the SCF Hessian
   Marcos Casanova-Páez   : Triplet and SCS-CIS(D). UHF-(DLPNO)-IP/EA/STEOM-CCSD. UHF-CVS-IP/STEOM-CCSD
   Vijay G. Chilkuri      : MRCI spin determinant printing, contributions to CSF-ICE
   Pauline Colinet        : FMM embedding
   Dipayan Datta          : RHF DLPNO-CCSD density
   Achintya Kumar Dutta   : EOM-CC, STEOM-CC
   Nicolas Foglia         : Exact transition moments, OPA infrastructure, MCD improvements
   Dmitry Ganyushin       : Spin-Orbit,Spin-Spin,Magnetic field MRCI
   Miquel Garcia          : C-PCM and meta-GGA Hessian, CCSD/C-PCM, Gaussian charge scheme
   Tiago L. C. Gouveia    : GS-ROHF, GS-ROCIS
   Yang Guo               : DLPNO-NEVPT2, F12-NEVPT2, CIM, IAO-localization
   Andreas Hansen         : Spin unrestricted coupled pair/coupled cluster methods
   Ingolf Harden          : AUTO-CI MPn and infrastructure 
   Benjamin Helmich-Paris : MC-RPA, TRAH-(SCF,CASSCF), AVAS, COSX integrals, SCF dyn. polar.
   Lee Huntington         : MR-EOM, pCC
   Robert Izsak           : Overlap fitted RIJCOSX, COSX-SCS-MP3, EOM
   Riya Kayal             : Wick's Theorem for AUTO-CI, AUTO-CI UHF-CCSDT
   Emily Kempfer          : AUTO-CI, RHF CISDT and CCSDT
   Christian Kollmar      : KDIIS, OOCD, Brueckner-CCSD(T), CCSD density, CASPT2, CASPT2-K, improved NEVPT2
   Axel Koslowski         : Symmetry handling
   Simone Kossmann        : Meta GGA functionals, TD-DFT gradient, OOMP2, (MP2 Hessian; deprecated post 5.0)
   Lucas Lang             : DCDCAS
   Marvin Lechner         : AUTO-CI (C++ implementation), FIC-MRCC
   Spencer Leger          : CASSCF response
   Dagmar Lenk            : GEPOL surface, SMD, ORCA-2-JSON
   Dimitrios Liakos       : Extrapolation schemes; Compound Job, initial MDCI parallelization
   Dimitrios Manganas     : Further ROCIS development; embedding schemes. LFT, Crystal Embedding
   Dimitrios Pantazis     : SARC Basis sets
   Anastasios Papadopoulos: AUTO-CI, single reference methods and gradients
   Taras Petrenko         : pre 6.0 DFT Hessian and TD-DFT gradient, (ASA, deprecated), ECA, 1-Electron XAS/XES, NRVS
   Peter Pinski           : DLPNO-MP2, DLPNO-MP2 Gradient
   Christoph Reimann      : Effective Core Potentials
   Marius Retegan         : Local ZFS, SOC
   Christoph Riplinger    : Optimizer, TS searches, QM/MM, DLPNO-CCSD(T), (RO)-DLPNO pert. Triples
   Michael Roemelt        : Original ROCIS implementation
   Masaaki Saitow         : Open-shell DLPNO-CCSD energy and density
   Barbara Sandhoefer     : DKH picture change effects
   Kantharuban Sivalingam : CASSCF convergence/infrastructure, NEVPT2 and variants, FIC-MRCI
   Bernardo de Souza      : ESD, SOC TD-DFT
   Georgi Stoychev        : AutoAux, RI-MP2 NMR, DLPNO-MP2 response, X2C
   Van Anh Tran           : RI-MP2 g-tensors
   Willem Van den Heuvel  : Paramagnetic NMR
   Zikuan Wang            : NOTCH, Electric field optimization 
   Frank Wennmohs         : Technical directorship and infrastructure
   Hang Xu                : AUTO-CI-Response properties 


 We gratefully acknowledge several colleagues who have allowed us to
 interface, adapt or use parts of their codes:
   Stefan Grimme, W. Hujo, H. Kruse, P. Pracht,  : VdW corrections, initial TS optimization,
                  C. Bannwarth, S. Ehlert,         DFT functionals, gCP, sTDA/sTD-DF
                  L. Wittmann, M. Mueller
   Ed Valeev, F. Pavosevic, A. Kumar             : LibInt (2-el integral package), F12 methods
   Garnet Chan, S. Sharma, J. Yang, R. Olivares  : DMRG
   Ulf Ekstrom                                   : XCFun DFT Library
   Mihaly Kallay                                 : mrcc  (arbitrary order and MRCC methods)
   Frank Weinhold                                : gennbo (NPA and NBO analysis)
   Simon Mueller                                 : openCOSMO-RS
   Christopher J. Cramer and Donald G. Truhlar   : smd solvation model
   Lars Goerigk                                  : TD-DFT with DH, B97 family of functionals
   V. Asgeirsson, H. Jonsson                     : NEB implementation
   FAccTs GmbH                                   : IRC, NEB, NEB-TS, DLPNO-Multilevel, CI-OPT
                                                   MM, QMMM, 2- and 3-layer-ONIOM, Crystal-QMMM,
                                                   LR-CPCM, SF, NACMEs, symmetry and pop. for TD-DFT,
                                                   nearIR, NL-DFT gradient (VV10), updates on ESD,
                                                   ML-optimized integration grids, MBIS, APM,
                                                   GOAT, DOCKER, SOLVATOR, interface openCOSMO-RS
   S Lehtola, MJT Oliveira, MAL Marques          : LibXC Library
   Liviu Ungur et al                             : ANISO software


 Your calculation uses the libint2 library for the computation of 2-el integrals
 For citations please refer to: http://libint.valeyev.net

 Your ORCA version has been built with support for libXC version: 6.2.2
 For citations please refer to: https://libxc.gitlab.io

 This ORCA versions uses:
   CBLAS   interface :  Fast vector & matrix operations
   LAPACKE interface :  Fast linear algebra routines
   SCALAPACK package :  Parallel linear algebra routines
   Shared memory     :  Shared parallel matrices
   BLAS/LAPACK       :  OpenBLAS 0.3.27  USE64BITINT DYNAMIC_ARCH NO_AFFINITY Zen SINGLE_THREADED
        Core in use  :  Zen
   Copyright (c) 2011-2014, The OpenBLAS Project


Your calculation utilizes the atom-pairwise dispersion correction
with the Becke-Johnson damping scheme (D3BJ)


Warning: RI is on but no J-basis has been assigned. Assigning Def2/J (nothing to worry about!)
================================================================================

----- Orbital basis set information -----
Your calculation utilizes the basis: def2-TZVPPD
   F. Weigend and R. Ahlrichs, Phys. Chem. Chem. Phys. 7, 3297 (2005).
   D. Rappoport and F. Furche, J. Chem. Phys. 133, 134105 (2010)
   D. Rappoport, J. Chem. Phys. 155, 124102 (2021).

----- AuxJ basis set information -----
Your calculation utilizes the auxiliary basis: def2/J
   F. Weigend, Phys. Chem. Chem. Phys. 8, 1057 (2006).

================================================================================
                                        WARNINGS
                       Please study these warnings very carefully!
================================================================================

Using LibXC functional ID 531 : wB97M-V exchange-correlation functional
[ 1]  N. Mardirossian and M. Head-Gordon.,  J. Chem. Phys. 144, 214110 (2016)
Using LibXC functional ID 531 : wB97M-V exchange-correlation functional
[ 1]  N. Mardirossian and M. Head-Gordon.,  J. Chem. Phys. 144, 214110 (2016)

WARNING: B97M-V or wB97M-V functional requested.
  ===> : libXC variant has now been activated.
         Any manually given DFX/HFX/RangeSep scaling parameters are IGNORED!

Your calculation utilizes LibXC
 by S Lehtola, C Steigemann, MJT Oliveira & MAL Marques
Please cite in your paper:
 S Lehtola, C Steigemann, MJT Oliveira & MAL Marques, SoftwareX, 7, (2018), 1.
   


WARNING: your system is open-shell and RHF/RKS was chosen
  ===> : WILL SWITCH to UHF/UKS

INFO   : Checking CIS options ...

WARNING: CIS/ROCIS methods need fully converged wavefunctions
  ===> : Setting SCFConvForced true
         You can overwrite this default with %scf ConvForced false 


================================================================================
                                       INPUT FILE
================================================================================
NAME = orca.inp
|  1> ! Engrad def2-TZVPPD wB97M-D3BJ 
|  2> %pal nprocs 8 end%pal nprocs 32 end 
|  3>  %tddft nroots 2 Iroot 2 
|  4> sf true 
|  5> end 
|  6> *xyz 0 3 
|  7> O   4.00847098522455 -0.41712464029845 1.52031659368268
|  8> O   -2.27767161383726 1.77012498021712 -2.14672232606959
|  9> O   1.48319745597631 -2.72734007129849 -1.39886339234505
| 10> O   -3.56017731990104 -1.48462544024554 0.68188959810716
| 11> N   0.51349397615638 -0.9121302870041 -0.40015103199968
| 12> N   -1.90445654804864 -0.082738003297 1.36163765873171
| 13> N   2.55416092329132 -1.73402656387569 0.35378001065938
| 14> N   -2.64207322749711 -0.0514950689104 -0.83339716217222
| 15> C   1.77645530679905 0.34881954849047 1.19459788975843
| 16> C   -1.09182459104262 1.62492719498142 -0.11097469137501
| 17> C   0.46401411573899 -0.25408174617646 0.89641777521611
| 18> C   -0.71560056966838 0.71898372233984 1.01590992181359
| 19> C   2.04012827190161 1.74808863044578 1.45042052225761
| 20> C   -0.53043666054897 2.96999871771074 -0.18830515526292
| 21> C   2.88915122350038 -0.59546971729778 1.08391926236044
| 22> C   -2.02201241402171 1.16913232250589 -1.11891367223992
| 23> C   1.4909541817286 -1.8603084178843 -0.56101993795957
| 24> C   -2.75951305823254 -0.61030358472926 0.43782042468911
| 25> H   0.32293028530648 -1.04617524048577 1.65398854599096
| 26> H   -0.51266860448405 1.35030630027081 1.88186826634583
| 27> H   1.92709340348194 2.35155073152464 0.52086986285608
| 28> H   1.29779079335171 2.20033402848513 2.1205306184999
| 29> H   3.04718655922968 1.89075638916397 1.82925306338338
| 30> H   -0.56162172241781 3.47533494321339 0.78250778174038
| 31> H   0.55160660704774 2.94692637430183 -0.44369168114573
| 32> H   -1.03167287290892 3.56191350614451 -0.94678966134883
| 33> H   -0.35417498228207 -1.11685202909617 -0.87179863531147
| 34> H   -1.9148908409437 -0.57578418289585 2.2373441365159
| 35> H   3.3053454859436 -2.38845848668725 0.19580855951864
| 36> H   -3.34058454884355 -0.35528390961304 -1.49365314489735
| 37> *
| 38> 
| 39>                          ****END OF INPUT****
================================================================================

                     *******************************
                     * Energy+Gradient Calculation *
                     *******************************

---------------------------------
CARTESIAN COORDINATES (ANGSTROEM)
---------------------------------
  O      4.008471   -0.417125    1.520317
  O     -2.277672    1.770125   -2.146722
  O      1.483197   -2.727340   -1.398863
  O     -3.560177   -1.484625    0.681890
  N      0.513494   -0.912130   -0.400151
  N     -1.904457   -0.082738    1.361638
  N      2.554161   -1.734027    0.353780
  N     -2.642073   -0.051495   -0.833397
  C      1.776455    0.348820    1.194598
  C     -1.091825    1.624927   -0.110975
  C      0.464014   -0.254082    0.896418
  C     -0.715601    0.718984    1.015910
  C      2.040128    1.748089    1.450421
  C     -0.530437    2.969999   -0.188305
  C      2.889151   -0.595470    1.083919
  C     -2.022012    1.169132   -1.118914
  C      1.490954   -1.860308   -0.561020
  C     -2.759513   -0.610304    0.437820
  H      0.322930   -1.046175    1.653989
  H     -0.512669    1.350306    1.881868
  H      1.927093    2.351551    0.520870
  H      1.297791    2.200334    2.120531
  H      3.047187    1.890756    1.829253
  H     -0.561622    3.475335    0.782508
  H      0.551607    2.946926   -0.443692
  H     -1.031673    3.561914   -0.946790
  H     -0.354175   -1.116852   -0.871799
  H     -1.914891   -0.575784    2.237344
  H      3.305345   -2.388458    0.195809
  H     -3.340585   -0.355284   -1.493653

----------------------------
CARTESIAN COORDINATES (A.U.)
----------------------------
  NO LB      ZA    FRAG     MASS         X           Y           Z
   0 O     8.0000    0    15.999    7.574912   -0.788251    2.872982
   1 O     8.0000    0    15.999   -4.304176    3.345051   -4.056717
   2 O     8.0000    0    15.999    2.802837   -5.153926   -2.643469
   3 O     8.0000    0    15.999   -6.727760   -2.805535    1.288585
   4 N     7.0000    0    14.007    0.970363   -1.723676   -0.756176
   5 N     7.0000    0    14.007   -3.598901   -0.156352    2.573122
   6 N     7.0000    0    14.007    4.826665   -3.276835    0.668547
   7 N     7.0000    0    14.007   -4.992795   -0.097312   -1.574892
   8 C     6.0000    0    12.011    3.357014    0.659173    2.257463
   9 C     6.0000    0    12.011   -2.063249    3.070667   -0.209712
  10 C     6.0000    0    12.011    0.876860   -0.480145    1.693984
  11 C     6.0000    0    12.011   -1.352289    1.358682    1.919792
  12 C     6.0000    0    12.011    3.855284    3.303409    2.740898
  13 C     6.0000    0    12.011   -1.002380    5.612484   -0.355845
  14 C     6.0000    0    12.011    5.459705   -1.125275    2.048311
  15 C     6.0000    0    12.011   -3.821050    2.209340   -2.114440
  16 C     6.0000    0    12.011    2.817495   -3.515473   -1.060174
  17 C     6.0000    0    12.011   -5.214724   -1.153307    0.827361
  18 H     1.0000    0     1.008    0.610250   -1.976985    3.125585
  19 H     1.0000    0     1.008   -0.968803    2.551709    3.556216
  20 H     1.0000    0     1.008    3.641679    4.443787    0.984301
  21 H     1.0000    0     1.008    2.452469    4.158029    4.007222
  22 H     1.0000    0     1.008    5.758348    3.573012    3.456787
  23 H     1.0000    0     1.008   -1.061311    6.567431    1.478725
  24 H     1.0000    0     1.008    1.042385    5.568884   -0.838456
  25 H     1.0000    0     1.008   -1.949579    6.731041   -1.789173
  26 H     1.0000    0     1.008   -0.669294   -2.110544   -1.647461
  27 H     1.0000    0     1.008   -3.618619   -1.088074    4.227968
  28 H     1.0000    0     1.008    6.246198   -4.513532    0.370025
  29 H     1.0000    0     1.008   -6.312790   -0.671389   -2.822595

--------------------------------
INTERNAL COORDINATES (ANGSTROEM)
--------------------------------
 O      0   0   0     0.000000000000     0.00000000     0.00000000
 O      1   0   0     7.599133116163     0.00000000     0.00000000
 O      1   2   0     4.498412333922    50.97142057     0.00000000
 O      2   1   3     4.498807242279    73.98893912    66.54124676
 N      3   1   2     2.287517820363    63.07166722   340.67128196
 N      4   2   1     2.273490067306    62.24228192    34.89061772
 N      3   1   2     2.281533118420     9.73380501   264.30117806
 N      2   1   3     2.275062883867    67.88098241    59.65150087
 C      7   3   5     2.376983100389   119.97677441   350.09006324
 C      2   1   3     2.360420299538    31.84542154   132.17444638
 C      5   3   1     1.454842538049   139.67957846   320.67131878
 C      6   4   2     1.475013196810   148.43668826   323.74798836
 C      9   7   3     1.446693684074   148.26075999   241.48100043
 C     10   2   1     1.459573160347    95.21245065    95.44075858
 C      1   2   3     1.214547786734    26.68584878   319.00090249
 C      2   1   3     1.217762058023    43.69682926    85.38602670
 C      3   1   2     1.205730363254    34.52836868   331.00010513
 C      4   2   1     1.210401474041    33.07589935    25.59460098
 H     11   5   3     1.105092857487   106.92290998   314.94302690
 H     12   6   4     1.090703183439   106.16939684   168.42740644
 H     13   9   7     1.114005303987   110.97132706    79.24438593
 H     13   9   7     1.097560191148   112.53400254   193.53403105
 H     13   9   7     1.085373013148   110.97531542   318.76080944
 H     14  10   2     1.094904090568   111.55511881   138.02899947
 H     14  10   2     1.112012699381   111.54957197   253.78281004
 H     14  10   2     1.084850037249   111.23225090    13.77274701
 H      5   3   1     1.008569221637    89.96842086   182.93034438
 H      6   4   2     1.005020022148    87.15996180   177.03343263
 H      7   3  17     1.008719172088    86.95050982   183.27726473
 H      8   2   1     1.008039527255    88.52071050   211.11935492

---------------------------
INTERNAL COORDINATES (A.U.)
---------------------------
 O      0   0   0     0.000000000000     0.00000000     0.00000000
 O      1   0   0    14.360280444759     0.00000000     0.00000000
 O      1   2   0     8.500767348565    50.97142057     0.00000000
 O      2   1   3     8.501513617209    73.98893912    66.54124676
 N      3   1   2     4.322782206951    63.07166722   340.67128196
 N      4   2   1     4.296273595399    62.24228192    34.89061772
 N      3   1   2     4.311472759285     9.73380501   264.30117806
 N      2   1   3     4.299245787957    67.88098241    59.65150087
 C      7   3   5     4.491847084694   119.97677441   350.09006324
 C      2   1   3     4.460547927076    31.84542154   132.17444638
 C      5   3   1     2.749253964892   139.67957846   320.67131878
 C      6   4   2     2.787370985890   148.43668826   323.74798836
 C      9   7   3     2.733854862574   148.26075999   241.48100043
 C     10   2   1     2.758193545478    95.21245065    95.44075858
 C      1   2   3     2.295162693488    26.68584878   319.00090249
 C      2   1   3     2.301236785944    43.69682926    85.38602670
 C      3   1   2     2.278500177904    34.52836868   331.00010513
 C      4   2   1     2.287327298031    33.07589935    25.59460098
 H     11   5   3     2.088322853203   106.92290998   314.94302690
 H     12   6   4     2.061130310096   106.16939684   168.42740644
 H     13   9   7     2.105164936271   110.97132706    79.24438593
 H     13   9   7     2.074088176765   112.53400254   193.53403105
 H     13   9   7     2.051057747998   110.97531542   318.76080944
 H     14  10   2     2.069068874083   111.55511881   138.02899947
 H     14  10   2     2.101399459272   111.54957197   253.78281004
 H     14  10   2     2.050069466776   111.23225090    13.77274701
 H      5   3   1     1.905919615995    89.96842086   182.93034438
 H      6   4   2     1.899212600967    87.15996180   177.03343263
 H      7   3  17     1.906202981282    86.95050982   183.27726473
 H      8   2   1     1.904918638680    88.52071050   211.11935492

---------------------
BASIS SET INFORMATION
---------------------
There are 4 groups of distinct atoms

 Group   1 Type O   : 12s7p3d1f contracted to 6s4p3d1f pattern {621111/4111/111/1}
 Group   2 Type N   : 12s6p3d1f contracted to 6s3p3d1f pattern {621111/411/111/1}
 Group   3 Type C   : 12s6p3d1f contracted to 6s3p3d1f pattern {621111/411/111/1}
 Group   4 Type H   : 5s3p1d contracted to 3s3p1d pattern {311/111/1}

Atom   0O    basis set group =>   1
Atom   1O    basis set group =>   1
Atom   2O    basis set group =>   1
Atom   3O    basis set group =>   1
Atom   4N    basis set group =>   2
Atom   5N    basis set group =>   2
Atom   6N    basis set group =>   2
Atom   7N    basis set group =>   2
Atom   8C    basis set group =>   3
Atom   9C    basis set group =>   3
Atom  10C    basis set group =>   3
Atom  11C    basis set group =>   3
Atom  12C    basis set group =>   3
Atom  13C    basis set group =>   3
Atom  14C    basis set group =>   3
Atom  15C    basis set group =>   3
Atom  16C    basis set group =>   3
Atom  17C    basis set group =>   3
Atom  18H    basis set group =>   4
Atom  19H    basis set group =>   4
Atom  20H    basis set group =>   4
Atom  21H    basis set group =>   4
Atom  22H    basis set group =>   4
Atom  23H    basis set group =>   4
Atom  24H    basis set group =>   4
Atom  25H    basis set group =>   4
Atom  26H    basis set group =>   4
Atom  27H    basis set group =>   4
Atom  28H    basis set group =>   4
Atom  29H    basis set group =>   4
---------------------------------
AUXILIARY/J BASIS SET INFORMATION
---------------------------------
There are 4 groups of distinct atoms

 Group   1 Type O   : 12s5p4d2f1g contracted to 6s4p3d1f1g pattern {711111/2111/211/2/1}
 Group   2 Type N   : 12s5p4d2f1g contracted to 6s4p3d1f1g pattern {711111/2111/211/2/1}
 Group   3 Type C   : 12s5p4d2f1g contracted to 6s4p3d1f1g pattern {711111/2111/211/2/1}
 Group   4 Type H   : 5s2p1d contracted to 3s1p1d pattern {311/2/1}

Atom   0O    basis set group =>   1
Atom   1O    basis set group =>   1
Atom   2O    basis set group =>   1
Atom   3O    basis set group =>   1
Atom   4N    basis set group =>   2
Atom   5N    basis set group =>   2
Atom   6N    basis set group =>   2
Atom   7N    basis set group =>   2
Atom   8C    basis set group =>   3
Atom   9C    basis set group =>   3
Atom  10C    basis set group =>   3
Atom  11C    basis set group =>   3
Atom  12C    basis set group =>   3
Atom  13C    basis set group =>   3
Atom  14C    basis set group =>   3
Atom  15C    basis set group =>   3
Atom  16C    basis set group =>   3
Atom  17C    basis set group =>   3
Atom  18H    basis set group =>   4
Atom  19H    basis set group =>   4
Atom  20H    basis set group =>   4
Atom  21H    basis set group =>   4
Atom  22H    basis set group =>   4
Atom  23H    basis set group =>   4
Atom  24H    basis set group =>   4
Atom  25H    basis set group =>   4
Atom  26H    basis set group =>   4
Atom  27H    basis set group =>   4
Atom  28H    basis set group =>   4
Atom  29H    basis set group =>   4
[1737020078.633918] [ohm:139400:0]        ib_iface.c:1059 UCX  ERROR ibv_create_cq(cqe=256) failed: Connection timed out
[1737020078.658138] [ohm:139432:0]        ib_iface.c:1059 UCX  ERROR ibv_create_cq(cqe=256) failed: Connection timed out
[1737020078.658115] [ohm:139390:0]        ib_iface.c:1059 UCX  ERROR ibv_create_cq(cqe=256) failed: Connection timed out
[1737020078.671356] [ohm:139379:0]        ib_iface.c:1059 UCX  ERROR ibv_create_cq(cqe=256) failed: Connection timed out
[1737020078.682078] [ohm:139394:0]        ib_iface.c:1059 UCX  ERROR ibv_create_cq(cqe=256) failed: Connection timed out
[1737020078.685061] [ohm:139389:0]        ib_iface.c:1059 UCX  ERROR ibv_create_cq(cqe=256) failed: Connection timed out
[1737020078.686027] [ohm:139395:0]        ib_iface.c:1059 UCX  ERROR ibv_create_cq(cqe=256) failed: Connection timed out
[1737020078.691078] [ohm:139380:0]        ib_iface.c:1059 UCX  ERROR ibv_create_cq(cqe=256) failed: Connection timed out
[1737020078.691250] [ohm:139393:0]        ib_iface.c:1059 UCX  ERROR ibv_create_cq(cqe=256) failed: Connection timed out
[1737020078.691263] [ohm:139413:0]        ib_iface.c:1059 UCX  ERROR ibv_create_cq(cqe=256) failed: Connection timed out
[1737020078.692125] [ohm:139386:0]        ib_iface.c:1059 UCX  ERROR ibv_create_cq(cqe=256) failed: Connection timed out
[1737020078.692523] [ohm:139398:0]        ib_iface.c:1059 UCX  ERROR ibv_create_cq(cqe=256) failed: Connection timed out
[1737020078.692512] [ohm:139426:0]        ib_iface.c:1059 UCX  ERROR ibv_create_cq(cqe=256) failed: Connection timed out
[1737020078.693477] [ohm:139383:0]        ib_iface.c:1059 UCX  ERROR ibv_create_cq(cqe=256) failed: Connection timed out
[1737020078.693658] [ohm:139381:0]        ib_iface.c:1059 UCX  ERROR ibv_create_cq(cqe=256) failed: Connection timed out
[1737020078.694573] [ohm:139384:0]        ib_iface.c:1059 UCX  ERROR ibv_create_cq(cqe=256) failed: Connection timed out
[1737020078.696161] [ohm:139382:0]        ib_iface.c:1059 UCX  ERROR ibv_create_cq(cqe=256) failed: Connection timed out
[1737020078.696533] [ohm:139429:0]        ib_iface.c:1059 UCX  ERROR ibv_create_cq(cqe=256) failed: Connection timed out
[1737020078.696623] [ohm:139411:0]        ib_iface.c:1059 UCX  ERROR ibv_create_cq(cqe=256) failed: Connection timed out
[1737020078.696847] [ohm:139392:0]        ib_iface.c:1059 UCX  ERROR ibv_create_cq(cqe=256) failed: Connection timed out
[1737020078.696982] [ohm:139391:0]        ib_iface.c:1059 UCX  ERROR ibv_create_cq(cqe=256) failed: Connection timed out
[1737020078.697235] [ohm:139377:0]        ib_iface.c:1059 UCX  ERROR ibv_create_cq(cqe=256) failed: Connection timed out
[1737020078.698219] [ohm:139378:0]        ib_iface.c:1059 UCX  ERROR ibv_create_cq(cqe=256) failed: Connection timed out
[1737020078.698477] [ohm:139397:0]        ib_iface.c:1059 UCX  ERROR ibv_create_cq(cqe=256) failed: Connection timed out
[1737020078.699530] [ohm:139385:0]        ib_iface.c:1059 UCX  ERROR ibv_create_cq(cqe=256) failed: Connection timed out
[1737020078.700252] [ohm:139387:0]        ib_iface.c:1059 UCX  ERROR ibv_create_cq(cqe=256) failed: Connection timed out
[1737020078.700256] [ohm:139388:0]        ib_iface.c:1059 UCX  ERROR ibv_create_cq(cqe=256) failed: Connection timed out
[1737020078.700828] [ohm:139396:0]        ib_iface.c:1059 UCX  ERROR ibv_create_cq(cqe=256) failed: Connection timed out
[1737020078.701183] [ohm:139399:0]        ib_iface.c:1059 UCX  ERROR ibv_create_cq(cqe=256) failed: Connection timed out
[1737020078.701852] [ohm:139401:0]        ib_iface.c:1059 UCX  ERROR ibv_create_cq(cqe=256) failed: Connection timed out
[1737020078.703805] [ohm:139419:0]        ib_iface.c:1059 UCX  ERROR ibv_create_cq(cqe=256) failed: Connection timed out
[1737020078.704596] [ohm:139402:0]        ib_iface.c:1059 UCX  ERROR ibv_create_cq(cqe=256) failed: Connection timed out


           ************************************************************
           *        Program running with 32 parallel MPI-processes    *
           *              working on a common directory               *
           ************************************************************
------------------------------------------------------------------------------
                             ORCA STARTUP CALCULATIONS
                           -- RI-GTO INTEGRALS CHOSEN --
------------------------------------------------------------------------------
------------------------------------------------------------------------------
                   ___                                                        
                  /   \      - P O W E R E D   B Y -                         
                 /     \                                                     
                 |  |  |   _    _      __       _____    __    __             
                 |  |  |  | |  | |    /  \     |  _  \  |  |  /  |          
                  \  \/   | |  | |   /    \    | | | |  |  | /  /          
                 / \  \   | |__| |  /  /\  \   | |_| |  |  |/  /          
                |  |  |   |  __  | /  /__\  \  |    /   |      \           
                |  |  |   | |  | | |   __   |  |    \   |  |\   \          
                \     /   | |  | | |  |  |  |  | |\  \  |  | \   \       
                 \___/    |_|  |_| |__|  |__|  |_| \__\ |__|  \__/        
                                                                              
                      - O R C A' S   B I G   F R I E N D -                    
                                      &                                       
                       - I N T E G R A L  F E E D E R -                       
                                                                              
 v1 FN, 2020, v2 2021, v3 2022-2024                                           
------------------------------------------------------------------------------


----------------------
SHARK INTEGRAL PACKAGE
----------------------

Number of atoms                             ...     30
Number of basis functions                   ...    882
Number of shells                            ...    322
Maximum angular momentum                    ...      3
Integral batch strategy                     ... SHARK/LIBINT Hybrid
RI-J (if used) integral strategy            ... SPLIT-RIJ (Revised 2003 algorithm where possible)
Printlevel                                  ...      1
Contraction scheme used                     ... SEGMENTED contraction
Prescreening option                         ... SCHWARTZ
   Thresh                                   ... 2.500e-11
   Tcut                                     ... 2.500e-12
   Tpresel                                  ... 2.500e-12 
Coulomb Range Separation                    ... NOT USED
Exchange Range Separation                   ... Long Range
   Mu parameter                             ... 3.000e-01
   Scaling (regular/separated)              ... 1.500e-01 8.500e-01
Multipole approximations                    ... NOT USED
Finite Nucleus Model                        ... NOT USED
CABS basis                                  ... NOT available
Auxiliary Coulomb fitting basis             ... AVAILABLE
   # of basis functions in Aux-J            ...   1014
   # of shells in Aux-J                     ...    330
   Maximum angular momentum in Aux-J        ...      4
Auxiliary J/K fitting basis                 ... NOT available
Auxiliary Correlation fitting basis         ... NOT available
Auxiliary 'external' fitting basis          ... NOT available

Checking pre-screening integrals            ... done (  0.0 sec) Dimension = 322
Check shell pair data                       ... done (  0.0 sec)
Shell pair information
Shell pair cut-off parameter TPreSel        ...   2.5e-12
Total number of shell pairs                 ...     52003
Shell pairs after pre-screening             ...     43968
Total number of primitive shell pairs       ...    129718
Primitive shell pairs kept                  ...     82032
          la=0 lb=0:   8547 shell pairs
          la=1 lb=0:  11685 shell pairs
          la=1 lb=1:   4038 shell pairs
          la=2 lb=0:   7922 shell pairs
          la=2 lb=1:   5463 shell pairs
          la=2 lb=2:   1878 shell pairs
          la=3 lb=0:   1968 shell pairs
          la=3 lb=1:   1397 shell pairs
          la=3 lb=2:    948 shell pairs
          la=3 lb=3:    122 shell pairs

Calculating one electron integrals          ... done (  0.1 sec)
Calculating RI/J V-Matrix + Cholesky decomp.... done (  0.0 sec)
Calculating Nuclear repulsion               ... done (  0.0 sec) ENN=   1392.467462989006 Eh

Diagonalization of the overlap matrix:
Smallest eigenvalue                        ... 5.411e-07
Time for diagonalization                   ...    0.122 sec
Threshold for overlap eigenvalues          ... 1.000e-07
Number of eigenvalues below threshold      ... 0

IMPORTANT:
Smallest eigenvalue of S below the DiffSThresh (1.000e-06) while
Thresh>1e-12 and/or TCut>1e-13! In order to avoid SCF convergence issues,
Thresh will be set to at least 1e-12 and TCut to at least 1e-13.
This can be turned off by adding %SCF DiffSThresh -1 END to the input.

Time for construction of square roots      ...    0.103 sec
Total time needed                          ...    0.236 sec

-------------------
DFT GRID GENERATION
-------------------

General Integration Accuracy     IntAcc      ... 4.388
Radial Grid Type                 RadialGrid  ... OptM3 with GC (2021)
Angular Grid (max. ang.)         AngularGrid ... 4 (Lebedev-302)
Angular grid pruning method      GridPruning ... 4 (adaptive)
Weight generation scheme         WeightScheme... mBecke (2022)
Basis function cutoff            BFCut       ... 1.0000e-11
Integration weight cutoff        WCut        ... 1.0000e-14
Partially contracted basis set               ... off
Rotationally invariant grid construction     ... off
Angular grids for H and He will be reduced by one unit
Diffuse basis detected: some atoms will have their outermost
                        angular grid increased by 1.

Total number of grid points                  ...   152026
Total number of batches                      ...     2391
Average number of points per batch           ...       63
Average number of grid points per atom       ...     5068

--------------------
COSX GRID GENERATION
--------------------

GRIDX 1
-------
General Integration Accuracy     IntAcc      ... 3.816
Radial Grid Type                 RadialGrid  ... OptM3 with GC (2021)
Angular Grid (max. ang.)         AngularGrid ... 1 (Lebedev-50)
Angular grid pruning method      GridPruning ... 4 (adaptive)
Weight generation scheme         WeightScheme... mBecke (2022)
Basis function cutoff            BFCut       ... 1.0000e-11
Integration weight cutoff        WCut        ... 1.0000e-14
Partially contracted basis set               ... on
Rotationally invariant grid construction     ... off
Angular grids for H and He will be reduced by one unit
Diffuse basis detected: some atoms will have their outermost
                        angular grid increased by 1.

Total number of grid points                  ...    19079
Total number of batches                      ...      165
Average number of points per batch           ...      115
Average number of grid points per atom       ...      636
UseSFitting                                  ... on

GRIDX 2
-------
General Integration Accuracy     IntAcc      ... 4.020
Radial Grid Type                 RadialGrid  ... OptM3 with GC (2021)
Angular Grid (max. ang.)         AngularGrid ... 2 (Lebedev-110)
Angular grid pruning method      GridPruning ... 4 (adaptive)
Weight generation scheme         WeightScheme... mBecke (2022)
Basis function cutoff            BFCut       ... 1.0000e-11
Integration weight cutoff        WCut        ... 1.0000e-14
Partially contracted basis set               ... on
Rotationally invariant grid construction     ... off
Angular grids for H and He will be reduced by one unit
Diffuse basis detected: some atoms will have their outermost
                        angular grid increased by 1.

Total number of grid points                  ...    46126
Total number of batches                      ...      374
Average number of points per batch           ...      123
Average number of grid points per atom       ...     1538
UseSFitting                                  ... on

GRIDX 3
-------
General Integration Accuracy     IntAcc      ... 4.338
Radial Grid Type                 RadialGrid  ... OptM3 with GC (2021)
Angular Grid (max. ang.)         AngularGrid ... 3 (Lebedev-194)
Angular grid pruning method      GridPruning ... 4 (adaptive)
Weight generation scheme         WeightScheme... mBecke (2022)
Basis function cutoff            BFCut       ... 1.0000e-11
Integration weight cutoff        WCut        ... 1.0000e-14
Partially contracted basis set               ... on
Rotationally invariant grid construction     ... off
Angular grids for H and He will be reduced by one unit
Diffuse basis detected: some atoms will have their outermost
                        angular grid increased by 1.

Total number of grid points                  ...   101359
Total number of batches                      ...      805
Average number of points per batch           ...      125
Average number of grid points per atom       ...     3379
UseSFitting                                  ... on
Initializing property integral containers    ... done (  0.0 sec)

SHARK setup successfully completed in   3.2 seconds

Maximum memory used throughout the entire STARTUP-calculation: 79.9 MB
[1737020082.874672] [ohm:139555:0]        ib_iface.c:1059 UCX  ERROR ibv_create_cq(cqe=256) failed: Connection timed out
[1737020082.874979] [ohm:139552:0]        ib_iface.c:1059 UCX  ERROR ibv_create_cq(cqe=256) failed: Connection timed out
[1737020082.877160] [ohm:139556:0]        ib_iface.c:1059 UCX  ERROR ibv_create_cq(cqe=256) failed: Connection timed out
[1737020082.877299] [ohm:139567:0]        ib_iface.c:1059 UCX  ERROR ibv_create_cq(cqe=256) failed: Connection timed out
[1737020082.880986] [ohm:139566:0]        ib_iface.c:1059 UCX  ERROR ibv_create_cq(cqe=256) failed: Connection timed out
[1737020082.881524] [ohm:139560:0]        ib_iface.c:1059 UCX  ERROR ibv_create_cq(cqe=256) failed: Connection timed out
[1737020082.881595] [ohm:139564:0]        ib_iface.c:1059 UCX  ERROR ibv_create_cq(cqe=256) failed: Connection timed out
[1737020082.887178] [ohm:139546:0]        ib_iface.c:1059 UCX  ERROR ibv_create_cq(cqe=256) failed: Connection timed out
[1737020082.890258] [ohm:139553:0]        ib_iface.c:1059 UCX  ERROR ibv_create_cq(cqe=256) failed: Connection timed out
[1737020082.900497] [ohm:139548:0]        ib_iface.c:1059 UCX  ERROR ibv_create_cq(cqe=256) failed: Connection timed out
[1737020082.900502] [ohm:139549:0]        ib_iface.c:1059 UCX  ERROR ibv_create_cq(cqe=256) failed: Connection timed out
[1737020082.905138] [ohm:139563:0]        ib_iface.c:1059 UCX  ERROR ibv_create_cq(cqe=256) failed: Connection timed out
[1737020082.905149] [ohm:139559:0]        ib_iface.c:1059 UCX  ERROR ibv_create_cq(cqe=256) failed: Connection timed out
[1737020082.905944] [ohm:139544:0]        ib_iface.c:1059 UCX  ERROR ibv_create_cq(cqe=256) failed: Connection timed out
[1737020082.911885] [ohm:139569:0]        ib_iface.c:1059 UCX  ERROR ibv_create_cq(cqe=256) failed: Connection timed out
[1737020082.911943] [ohm:139579:0]        ib_iface.c:1059 UCX  ERROR ibv_create_cq(cqe=256) failed: Connection timed out
[1737020082.914183] [ohm:139561:0]        ib_iface.c:1059 UCX  ERROR ibv_create_cq(cqe=256) failed: Connection timed out
[1737020082.914183] [ohm:139562:0]        ib_iface.c:1059 UCX  ERROR ibv_create_cq(cqe=256) failed: Connection timed out
[1737020082.914298] [ohm:139557:0]        ib_iface.c:1059 UCX  ERROR ibv_create_cq(cqe=256) failed: Connection timed out
[1737020082.914498] [ohm:139550:0]        ib_iface.c:1059 UCX  ERROR ibv_create_cq(cqe=256) failed: Connection timed out
[1737020082.914894] [ohm:139551:0]        ib_iface.c:1059 UCX  ERROR ibv_create_cq(cqe=256) failed: Connection timed out
[1737020082.915038] [ohm:139554:0]        ib_iface.c:1059 UCX  ERROR ibv_create_cq(cqe=256) failed: Connection timed out
[1737020082.915224] [ohm:139545:0]        ib_iface.c:1059 UCX  ERROR ibv_create_cq(cqe=256) failed: Connection timed out
[1737020082.915767] [ohm:139558:0]        ib_iface.c:1059 UCX  ERROR ibv_create_cq(cqe=256) failed: Connection timed out
[1737020082.917092] [ohm:139565:0]        ib_iface.c:1059 UCX  ERROR ibv_create_cq(cqe=256) failed: Connection timed out
[1737020082.917289] [ohm:139591:0]        ib_iface.c:1059 UCX  ERROR ibv_create_cq(cqe=256) failed: Connection timed out
[1737020082.917540] [ohm:139590:0]        ib_iface.c:1059 UCX  ERROR ibv_create_cq(cqe=256) failed: Connection timed out
[1737020082.917655] [ohm:139575:0]        ib_iface.c:1059 UCX  ERROR ibv_create_cq(cqe=256) failed: Connection timed out
[1737020082.917759] [ohm:139568:0]        ib_iface.c:1059 UCX  ERROR ibv_create_cq(cqe=256) failed: Connection timed out
[1737020082.917859] [ohm:139570:0]        ib_iface.c:1059 UCX  ERROR ibv_create_cq(cqe=256) failed: Connection timed out
[1737020082.918033] [ohm:139599:0]        ib_iface.c:1059 UCX  ERROR ibv_create_cq(cqe=256) failed: Connection timed out
[1737020082.917955] [ohm:139547:0]        ib_iface.c:1059 UCX  ERROR ibv_create_cq(cqe=256) failed: Connection timed out


           ************************************************************
           *        Program running with 32 parallel MPI-processes    *
           *              working on a common directory               *
           ************************************************************
-------------------------------------------------------------------------------
                                 ORCA GUESS
                   Start orbitals & Density for SCF / CASSCF
-------------------------------------------------------------------------------

------------
SCF SETTINGS
------------
Hamiltonian:
 Density Functional     Method          .... DFT(GTOs)
  Functional kind                       .... Exchange-Correlation
  Functional name                       .... wB97M-V exchange-correlation functional
  Functional family                     .... Hybrid MGGA
  Functional refs                              
    [ 0] N. Mardirossian and M. Head-Gordon.,  J. Chem. Phys. 144, 214110 (2016), doi: 10.1063/1.4952647
  Fraction of HF Exchange (short range) .... 0.1500
  Fraction of HF Exchange (long range)  .... 1.0000
  Range separation parameter mu         .... 0.3000
  Functional external parameters        .... 17
    Parameter  0 _cx00      =  8.500000e-01 : u^00 coefficient for exchange
    Parameter  1 _cx01      =  1.007000e+00 : u^01 coefficient for exchange
    Parameter  2 _cx10      =  2.590000e-01 : u^10 coefficient for exchange
    Parameter  3 _css00     =  4.430000e-01 : u^00 coefficient for same-spin correlation
    Parameter  4 _css04     = -1.437000e+00 : u^04 coefficient for same-spin correlation
    Parameter  5 _css10     = -4.535000e+00 : u^10 coefficient for same-spin correlation
    Parameter  6 _css20     = -3.390000e+00 : u^20 coefficient for same-spin correlation
    Parameter  7 _css43     =  4.278000e+00 : u^43 coefficient for same-spin correlation
    Parameter  8 _cos00     =  1.000000e+00 : u^00 coefficient for opposite-spin correlation
    Parameter  9 _cos10     =  1.358000e+00 : u^10 coefficient for opposite-spin correlation
    Parameter 10 _cos20     =  2.924000e+00 : u^20 coefficient for opposite-spin correlation
    Parameter 11 _cos21     = -8.812000e+00 : u^21 coefficient for opposite-spin correlation
    Parameter 12 _cos60     = -1.390000e+00 : u^60 coefficient for opposite-spin correlation
    Parameter 13 _cos61     =  9.142000e+00 : u^61 coefficient for opposite-spin correlation
    Parameter 14 _alpha     =  1.000000e+00 : fraction of HF exchange
    Parameter 15 _beta      = -8.500000e-01 : fraction of short-range exchange
    Parameter 16 _omega     =  3.000000e-01 : range-separation constant
 Long-range corrected/Screened/Range-Separated Hybrid DFT is turned on
   Amount of maximum screened exact exchange              ....  0.850000
   Range separation parameter mu (erf(mu*r12)/r12)        ....  0.300000
 RI-approximation to the Coulomb term is turned on
   Number of AuxJ basis functions       .... 1014
   RIJ-COSX (HFX calculated with COS-X)).... on


General Settings:
 Integral files         IntName         .... orca
 Hartree-Fock type      HFTyp           .... UHF
 Total Charge           Charge          ....    0
 Multiplicity           Mult            ....    3
 Number of Electrons    NEL             ....  132
 Basis Dimension        Dim             ....  882
 Nuclear Repulsion      ENuc            ....   1392.4674629890 Eh

Convergence Acceleration:
 AO-DIIS                CNVDIIS         .... on
   Start iteration      DIISMaxIt       ....    12
   Startup error        DIISStart       ....  0.200000
   # of expansion vecs  DIISMaxEq       ....     5
   Bias factor          DIISBfac        ....   1.050
   Max. coefficient     DIISMaxC        ....  10.000
 MO-DIIS                CNVKDIIS        .... off
 Trust-Rad. Augm. Hess. CNVTRAH         .... auto
   Auto Start mean grad. ratio tolernc. ....  1.125000
   Auto Start start iteration           ....    50
   Auto Start num. interpolation iter.  ....    10
   Max. Number of Micro iterations      ....    24
   Max. Number of Macro iterations      .... Maxiter - #DIIS iter
   Number of Davidson start vectors     ....     2
   Converg. threshold    (grad. norm)   ....   1.000e-05
   Grad. Scal. Fac. for Micro threshold ....   0.100
   Minimum threshold for Micro iter.    ....   1.000e-02
   NR start threshold (gradient norm)   ....   1.000e-04
   Initial trust radius                 ....   0.400
   Minimum AH scaling param. (alpha)    ....   1.000
   Maximum AH scaling param. (alpha)    .... 1000.000
   Quad. conv. algorithm                .... NR
   White noise on init. David. guess    .... on
   Maximum white noise                  ....   0.010
   Pseudo random numbers                .... off
   Inactive MOs                         .... canonical
   Orbital update algorithm             .... Taylor
   Preconditioner                       .... Diag
   Full preconditioner red. dimension   ....   250
 SOSCF                  CNVSOSCF        .... on
   Start iteration      SOSCFMaxIt      ....   150
   Startup grad/error   SOSCFStart      ....  0.003300
   Hessian update       SOSCFHessUp     .... L-BFGS
 Level Shifting         CNVShift        .... on
   Level shift para.    LevelShift      ....    0.2500
   Turn off err/grad.   ShiftErr        ....    0.0010
 Zerner damping         CNVZerner       .... off
 Static damping         CNVDamp         .... on
   Fraction old density DampFac         ....    0.7000
   Max. Damping (<1)    DampMax         ....    0.9800
   Min. Damping (>=0)   DampMin         ....    0.0000
   Turn off err/grad.   DampErr         ....    0.1000

SCF Procedure:
 Maximum # iterations   MaxIter         ....   125
 SCF integral mode      SCFMode         .... Direct
   Integral package                     .... SHARK and LIBINT hybrid scheme
 Reset frequency        DirectResetFreq ....    20
 Integral Threshold     Thresh          ....  1.000e-12 Eh
 Primitive CutOff       TCut            ....  1.000e-13 Eh

Convergence Tolerance:
 Convergence Check Mode ConvCheckMode   .... Total+1el-Energy
 Convergence forced     ConvForced      .... 1
 Energy Change          TolE            ....  1.000e-08 Eh
 1-El. energy change                    ....  1.000e-05 Eh
 Orbital Gradient       TolG            ....  1.000e-05
 Orbital Rotation angle TolX            ....  1.000e-05
 DIIS Error             TolErr          ....  5.000e-07

------------------------------
INITIAL GUESS: MODEL POTENTIAL
------------------------------
Loading Hartree-Fock densities                     ... done
Calculating cut-offs                               ... done
Initializing the effective Hamiltonian             ... done
Setting up the integral package (SHARK)            ... done
Starting the Coulomb interaction                   ... done (   0.1 sec)
Making the grid                                    ... done (   0.3 sec)
Mapping shells                                     ... done
Starting the XC term evaluation                    ... done (   0.2 sec)
  promolecular density results
     # of electrons  =    131.991326602
     EX              =   -113.589385039
     EC              =     -4.503325895
     EX+EC           =   -118.092710934
Transforming the Hamiltonian                       ... done (   0.1 sec)
Diagonalizing the Hamiltonian                      ... done (   0.1 sec)
Back transforming the eigenvectors                 ... done (   0.1 sec)
Now organizing SCF variables                       ... done
                      ------------------
                      INITIAL GUESS DONE (   1.0 sec)
                      ------------------
             **** ENERGY FILE WAS UPDATED (orca.en.tmp) ****
Finished Guess after   2.0 sec
Maximum memory used throughout the entire GUESS-calculation: 72.0 MB
[1737020085.407356] [ohm:139730:0]        ib_iface.c:1059 UCX  ERROR ibv_create_cq(cqe=256) failed: Connection timed out
[1737020085.413697] [ohm:139722:0]        ib_iface.c:1059 UCX  ERROR ibv_create_cq(cqe=256) failed: Connection timed out
[1737020085.437572] [ohm:139713:0]        ib_iface.c:1059 UCX  ERROR ibv_create_cq(cqe=256) failed: Connection timed out
[1737020085.437593] [ohm:139712:0]        ib_iface.c:1059 UCX  ERROR ibv_create_cq(cqe=256) failed: Connection timed out
[1737020085.450530] [ohm:139718:0]        ib_iface.c:1059 UCX  ERROR ibv_create_cq(cqe=256) failed: Connection timed out
[1737020085.462839] [ohm:139715:0]        ib_iface.c:1059 UCX  ERROR ibv_create_cq(cqe=256) failed: Connection timed out
[1737020085.465087] [ohm:139716:0]        ib_iface.c:1059 UCX  ERROR ibv_create_cq(cqe=256) failed: Connection timed out
[1737020085.467200] [ohm:139738:0]        ib_iface.c:1059 UCX  ERROR ibv_create_cq(cqe=256) failed: Connection timed out
[1737020085.467235] [ohm:139719:0]        ib_iface.c:1059 UCX  ERROR ibv_create_cq(cqe=256) failed: Connection timed out
[1737020085.469395] [ohm:139744:0]        ib_iface.c:1059 UCX  ERROR ibv_create_cq(cqe=256) failed: Connection timed out
[1737020085.469780] [ohm:139725:0]        ib_iface.c:1059 UCX  ERROR ibv_create_cq(cqe=256) failed: Connection timed out
[1737020085.470338] [ohm:139721:0]        ib_iface.c:1059 UCX  ERROR ibv_create_cq(cqe=256) failed: Connection timed out
[1737020085.470468] [ohm:139735:0]        ib_iface.c:1059 UCX  ERROR ibv_create_cq(cqe=256) failed: Connection timed out
[1737020085.470541] [ohm:139717:0]        ib_iface.c:1059 UCX  ERROR ibv_create_cq(cqe=256) failed: Connection timed out
[1737020085.473588] [ohm:139723:0]        ib_iface.c:1059 UCX  ERROR ibv_create_cq(cqe=256) failed: Connection timed out
[1737020085.473720] [ohm:139720:0]        ib_iface.c:1059 UCX  ERROR ibv_create_cq(cqe=256) failed: Connection timed out
[1737020085.474740] [ohm:139727:0]        ib_iface.c:1059 UCX  ERROR ibv_create_cq(cqe=256) failed: Connection timed out
[1737020085.474749] [ohm:139724:0]        ib_iface.c:1059 UCX  ERROR ibv_create_cq(cqe=256) failed: Connection timed out
[1737020085.474752] [ohm:139726:0]        ib_iface.c:1059 UCX  ERROR ibv_create_cq(cqe=256) failed: Connection timed out
[1737020085.474936] [ohm:139728:0]        ib_iface.c:1059 UCX  ERROR ibv_create_cq(cqe=256) failed: Connection timed out
[1737020085.475595] [ohm:139734:0]        ib_iface.c:1059 UCX  ERROR ibv_create_cq(cqe=256) failed: Connection timed out
[1737020085.475855] [ohm:139732:0]        ib_iface.c:1059 UCX  ERROR ibv_create_cq(cqe=256) failed: Connection timed out
[1737020085.476184] [ohm:139747:0]        ib_iface.c:1059 UCX  ERROR ibv_create_cq(cqe=256) failed: Connection timed out
[1737020085.478512] [ohm:139731:0]        ib_iface.c:1059 UCX  ERROR ibv_create_cq(cqe=256) failed: Connection timed out
[1737020085.479058] [ohm:139711:0]        ib_iface.c:1059 UCX  ERROR ibv_create_cq(cqe=256) failed: Connection timed out
[1737020085.479081] [ohm:139714:0]        ib_iface.c:1059 UCX  ERROR ibv_create_cq(cqe=256) failed: Connection timed out
[1737020085.479163] [ohm:139729:0]        ib_iface.c:1059 UCX  ERROR ibv_create_cq(cqe=256) failed: Connection timed out
[1737020085.481316] [ohm:139737:0]        ib_iface.c:1059 UCX  ERROR ibv_create_cq(cqe=256) failed: Connection timed out
[1737020085.481381] [ohm:139749:0]        ib_iface.c:1059 UCX  ERROR ibv_create_cq(cqe=256) failed: Connection timed out
[1737020085.482194] [ohm:139733:0]        ib_iface.c:1059 UCX  ERROR ibv_create_cq(cqe=256) failed: Connection timed out
[1737020085.482270] [ohm:139736:0]        ib_iface.c:1059 UCX  ERROR ibv_create_cq(cqe=256) failed: Connection timed out
[1737020085.482478] [ohm:139760:0]        ib_iface.c:1059 UCX  ERROR ibv_create_cq(cqe=256) failed: Connection timed out


           ************************************************************
           *        Program running with 32 parallel MPI-processes    *
           *              working on a common directory               *
           ************************************************************

-------------------------------------------------------------------------------------------
                                      ORCA LEAN-SCF
                              memory conserving SCF solver
-------------------------------------------------------------------------------------------

----------------------------------------D-I-I-S--------------------------------------------
Iteration    Energy (Eh)           Delta-E    RMSDP     MaxDP     DIISErr   Damp  Time(sec)
-------------------------------------------------------------------------------------------
               ***  Starting incremental Fock matrix formation  ***
    1    -908.1505766652014700     0.00e+00  1.65e-03  2.42e-01  1.45e-01  0.700  11.0
    2    -908.4138638070437537    -2.63e-01  1.34e-03  1.73e-01  6.86e-02  0.700   7.7
                               ***Turning on AO-DIIS***
    3    -908.5302978117385919    -1.16e-01  9.76e-04  1.40e-01  2.89e-02  0.700   6.9
    4    -908.6016386462940773    -7.13e-02  2.31e-03  2.77e-01  1.84e-02  0.000   6.8
    5    -908.7616049106661649    -1.60e-01  3.05e-04  7.12e-02  4.14e-03  0.000   6.9
                              *** Initializing SOSCF ***
---------------------------------------S-O-S-C-F--------------------------------------
Iteration    Energy (Eh)           Delta-E    RMSDP     MaxDP     MaxGrad    Time(sec)
--------------------------------------------------------------------------------------
    6    -908.7627437143512452    -1.14e-03  1.34e-04  3.32e-02  2.71e-03     7.3
               *** Restarting incremental Fock matrix formation ***
    7    -908.7632059713180297    -4.62e-04  1.74e-04  3.87e-02  2.60e-03    10.7
    8    -908.7634964317483082    -2.90e-04  2.02e-04  6.27e-02  1.39e-03     9.2
    9    -908.7635957644786231    -9.93e-05  9.29e-05  9.71e-03  1.01e-03     9.3
   10    -908.7636548470311482    -5.91e-05  2.95e-05  8.21e-03  2.76e-04     8.9
   11    -908.7636609065136781    -6.06e-06  8.77e-06  1.98e-03  1.15e-04     8.4
   12    -908.7636628966026819    -1.99e-06  5.57e-06  7.92e-04  1.21e-04     8.1
   13    -908.7636637291132047    -8.33e-07  2.83e-06  5.15e-04  2.32e-05     8.0
   14    -908.7636637570615221    -2.79e-08  1.55e-06  5.31e-04  1.30e-05     7.7
   15    -908.7636638179794772    -6.09e-08  2.37e-06  3.45e-04  6.08e-06     7.3
   16    -908.7636638457413483    -2.78e-08  1.55e-06  3.02e-04  2.94e-06     7.1
   17    -908.7636637931643691     5.26e-08  2.33e-06  5.99e-04  1.90e-06     6.8
                  *** Gradient check signals convergence ***

               *****************************************************
               *                     SUCCESS                       *
               *           SCF CONVERGED AFTER  17 CYCLES          *
               *****************************************************

Recomputing exchange energy using gridx3       ... done (   14.042 sec)
Old exchange energy                            :    -35.053710575 Eh
New exchange energy                            :    -35.053724013 Eh
Exchange energy change after final integration :     -0.000013438 Eh
Total energy after final integration           :   -908.763677232 Eh
             **** ENERGY FILE WAS UPDATED (orca.en.tmp) ****

----------------
TOTAL SCF ENERGY
----------------

Total Energy       :       -908.76367723150383 Eh          -24728.71684 eV

Components:
Nuclear Repulsion  :       1392.46746298900621 Eh           37890.96601 eV
Electronic Energy  :      -2301.23112678217058 Eh          -62619.68248 eV
One Electron Energy:      -4001.22668625199731 Eh         -108878.91343 eV
Two Electron Energy:       1699.99555946982673 Eh           46259.23095 eV

Virial components:
Potential Energy   :      -1814.75826218168390 Eh          -49382.08285 eV
Kinetic Energy     :        905.99458495018007 Eh           24653.36601 eV
Virial Ratio       :          2.00305641151429

DFT components:
N(Alpha)           :       67.000039921739 electrons
N(Beta)            :       65.000036328378 electrons
N(Total)           :      132.000076250117 electrons
E(XC)              :      -86.308962144694 Eh       

---------------
SCF CONVERGENCE
---------------

  Last Energy change         ...   -5.2577e-08  Tolerance :   1.0000e-08
  Last MAX-Density change    ...    5.9894e-04  Tolerance :   1.0000e-07
  Last RMS-Density change    ...    2.3260e-06  Tolerance :   5.0000e-09
  Last DIIS Error            ...    2.7090e-03  Tolerance :   5.0000e-07
  Last Orbital Gradient      ...    1.8966e-06  Tolerance :   1.0000e-05
  Last Orbital Rotation      ...    9.4178e-06  Tolerance :   1.0000e-05


----------------------
UHF SPIN CONTAMINATION
----------------------

Warning: in a DFT calculation there is little theoretical justification to 
         calculate <S**2> as in Hartree-Fock theory. We will do it anyways
         but you should keep in mind that the values have only limited relevance

Expectation value of <S**2>     :     2.014157
Ideal value S*(S+1) for S=1.0   :     2.000000
Deviation                       :     0.014157

----------------
ORBITAL ENERGIES
----------------
                 SPIN UP ORBITALS
  NO   OCC          E(Eh)            E(eV) 
   0   1.0000     -19.345148      -526.4082 
   1   1.0000     -19.339389      -526.2515 
   2   1.0000     -19.325100      -525.8627 
   3   1.0000     -19.324219      -525.8387 
   4   1.0000     -14.570215      -396.4757 
   5   1.0000     -14.565474      -396.3467 
   6   1.0000     -14.564615      -396.3233 
   7   1.0000     -14.561972      -396.2514 
   8   1.0000     -10.510519      -286.0058 
   9   1.0000     -10.507174      -285.9147 
  10   1.0000     -10.490226      -285.4536 
  11   1.0000     -10.484082      -285.2864 
  12   1.0000     -10.453133      -284.4442 
  13   1.0000     -10.444462      -284.2083 
  14   1.0000     -10.428805      -283.7822 
  15   1.0000     -10.415719      -283.4261 
  16   1.0000     -10.382098      -282.5113 
  17   1.0000     -10.381337      -282.4905 
  18   1.0000      -1.227107       -33.3913 
  19   1.0000      -1.222754       -33.2728 
  20   1.0000      -1.205208       -32.7954 
  21   1.0000      -1.201535       -32.6954 
  22   1.0000      -1.126571       -30.6555 
  23   1.0000      -1.106121       -30.0991 
  24   1.0000      -1.070890       -29.1404 
  25   1.0000      -1.058795       -28.8113 
  26   1.0000      -0.992082       -26.9959 
  27   1.0000      -0.970035       -26.3960 
  28   1.0000      -0.901091       -24.5199 
  29   1.0000      -0.853415       -23.2226 
  30   1.0000      -0.839832       -22.8530 
  31   1.0000      -0.795818       -21.6553 
  32   1.0000      -0.791401       -21.5351 
  33   1.0000      -0.785027       -21.3617 
  34   1.0000      -0.705631       -19.2012 
  35   1.0000      -0.702609       -19.1190 
  36   1.0000      -0.695508       -18.9257 
  37   1.0000      -0.686752       -18.6875 
  38   1.0000      -0.648932       -17.6583 
  39   1.0000      -0.646009       -17.5788 
  40   1.0000      -0.627229       -17.0678 
  41   1.0000      -0.612018       -16.6539 
  42   1.0000      -0.607380       -16.5277 
  43   1.0000      -0.589785       -16.0489 
  44   1.0000      -0.584986       -15.9183 
  45   1.0000      -0.580013       -15.7829 
  46   1.0000      -0.575188       -15.6517 
  47   1.0000      -0.571446       -15.5498 
  48   1.0000      -0.566929       -15.4269 
  49   1.0000      -0.561683       -15.2842 
  50   1.0000      -0.554678       -15.0936 
  51   1.0000      -0.547381       -14.8950 
  52   1.0000      -0.543086       -14.7781 
  53   1.0000      -0.528546       -14.3825 
  54   1.0000      -0.518270       -14.1028 
  55   1.0000      -0.516488       -14.0544 
  56   1.0000      -0.501909       -13.6576 
  57   1.0000      -0.430479       -11.7139 
  58   1.0000      -0.428991       -11.6734 
  59   1.0000      -0.414108       -11.2685 
  60   1.0000      -0.410732       -11.1766 
  61   1.0000      -0.400448       -10.8967 
  62   1.0000      -0.399265       -10.8646 
  63   1.0000      -0.392367       -10.6769 
  64   1.0000      -0.390438       -10.6244 
  65   1.0000      -0.351793        -9.5728 
  66   1.0000      -0.340492        -9.2653 
  67   0.0000       0.007561         0.2058 
  68   0.0000       0.027673         0.7530 
  69   0.0000       0.031448         0.8558 
  70   0.0000       0.033699         0.9170 
  71   0.0000       0.052210         1.4207 
  72   0.0000       0.055657         1.5145 
  73   0.0000       0.056136         1.5275 
  74   0.0000       0.059469         1.6182 
  75   0.0000       0.061619         1.6767 
  76   0.0000       0.069270         1.8849 
  77   0.0000       0.071761         1.9527 

                 SPIN DOWN ORBITALS
  NO   OCC          E(Eh)            E(eV) 
   0   1.0000     -19.340459      -526.2806 
   1   1.0000     -19.335326      -526.1410 
   2   1.0000     -19.324943      -525.8584 
   3   1.0000     -19.324089      -525.8352 
   4   1.0000     -14.569829      -396.4652 
   5   1.0000     -14.565114      -396.3369 
   6   1.0000     -14.564333      -396.3157 
   7   1.0000     -14.561017      -396.2254 
   8   1.0000     -10.510549      -286.0066 
   9   1.0000     -10.507209      -285.9157 
  10   1.0000     -10.491314      -285.4832 
  11   1.0000     -10.485058      -285.3129 
  12   1.0000     -10.453859      -284.4640 
  13   1.0000     -10.444234      -284.2021 
  14   1.0000     -10.417479      -283.4740 
  15   1.0000     -10.404204      -283.1128 
  16   1.0000     -10.382703      -282.5277 
  17   1.0000     -10.381919      -282.5064 
  18   1.0000      -1.224910       -33.3315 
  19   1.0000      -1.220896       -33.2223 
  20   1.0000      -1.200232       -32.6600 
  21   1.0000      -1.196899       -32.5693 
  22   1.0000      -1.123686       -30.5770 
  23   1.0000      -1.103653       -30.0319 
  24   1.0000      -1.069271       -29.0964 
  25   1.0000      -1.057181       -28.7674 
  26   1.0000      -0.979640       -26.6574 
  27   1.0000      -0.952090       -25.9077 
  28   1.0000      -0.896573       -24.3970 
  29   1.0000      -0.847942       -23.0737 
  30   1.0000      -0.830237       -22.5919 
  31   1.0000      -0.792549       -21.5664 
  32   1.0000      -0.788589       -21.4586 
  33   1.0000      -0.783142       -21.3104 
  34   1.0000      -0.700870       -19.0716 
  35   1.0000      -0.695562       -18.9272 
  36   1.0000      -0.689781       -18.7699 
  37   1.0000      -0.678305       -18.4576 
  38   1.0000      -0.640847       -17.4383 
  39   1.0000      -0.635436       -17.2911 
  40   1.0000      -0.624879       -17.0038 
  41   1.0000      -0.605575       -16.4785 
  42   1.0000      -0.602742       -16.4014 
  43   1.0000      -0.584169       -15.8961 
  44   1.0000      -0.578246       -15.7349 
  45   1.0000      -0.572678       -15.5833 
  46   1.0000      -0.570858       -15.5338 
  47   1.0000      -0.564626       -15.3642 
  48   1.0000      -0.559378       -15.2214 
  49   1.0000      -0.554961       -15.1013 
  50   1.0000      -0.545678       -14.8486 
  51   1.0000      -0.538330       -14.6487 
  52   1.0000      -0.533514       -14.5176 
  53   1.0000      -0.519802       -14.1445 
  54   1.0000      -0.510855       -13.9011 
  55   1.0000      -0.508270       -13.8307 
  56   1.0000      -0.497261       -13.5312 
  57   1.0000      -0.426924       -11.6172 
  58   1.0000      -0.424330       -11.5466 
  59   1.0000      -0.403677       -10.9846 
  60   1.0000      -0.399005       -10.8575 
  61   1.0000      -0.396359       -10.7855 
  62   1.0000      -0.395394       -10.7592 
  63   1.0000      -0.388369       -10.5681 
  64   1.0000      -0.386293       -10.5116 
  65   0.0000      -0.068551        -1.8654 
  66   0.0000      -0.054712        -1.4888 
  67   0.0000       0.006989         0.1902 
  68   0.0000       0.027385         0.7452 
  69   0.0000       0.031505         0.8573 
  70   0.0000       0.033551         0.9130 
  71   0.0000       0.053521         1.4564 
  72   0.0000       0.055902         1.5212 
  73   0.0000       0.056678         1.5423 
  74   0.0000       0.059563         1.6208 
  75   0.0000       0.066822         1.8183 
*Only the first 10 virtual orbitals were printed.

                    ********************************
                    * MULLIKEN POPULATION ANALYSIS *
                    ********************************

--------------------------------------------
MULLIKEN ATOMIC CHARGES AND SPIN POPULATIONS
--------------------------------------------
   0 O :   -0.625469    0.145026
   1 O :   -0.649226    0.169734
   2 O :   -0.626248    0.003126
   3 O :   -0.646732    0.005189
   4 N :   -0.245108    0.059987
   5 N :   -0.263052    0.025906
   6 N :   -0.036681    0.019827
   7 N :   -0.036093    0.019238
   8 C :   -0.015429    0.410258
   9 C :    0.157088    0.375576
  10 C :    1.062906    0.080415
  11 C :    0.272841    0.184489
  12 C :   -1.370990    0.052574
  13 C :   -1.388773    0.021843
  14 C :    0.370359    0.094061
  15 C :    0.455356    0.137352
  16 C :    0.301379   -0.000953
  17 C :    0.423186   -0.003762
  18 H :    0.332115    0.059336
  19 H :    0.542878    0.026602
  20 H :    0.204332    0.043410
  21 H :    0.246940    0.006904
  22 H :    0.326466    0.014457
  23 H :    0.306108    0.008993
  24 H :    0.228486    0.031505
  25 H :    0.326983    0.015879
  26 H :    0.146589   -0.000444
  27 H :    0.071473   -0.002885
  28 H :    0.079464   -0.001891
  29 H :    0.048851   -0.001754
Sum of atomic charges         :    0.0000000
Sum of atomic spin populations:    2.0000000

-----------------------------------------------------
MULLIKEN REDUCED ORBITAL CHARGES AND SPIN POPULATIONS
-----------------------------------------------------
CHARGE
  0 O s       :     4.063376  s :     4.063376
      pz      :     1.460756  p :     4.527377
      px      :     1.333857
      py      :     1.732765
      dz2     :     0.005416  d :     0.032815
      dxz     :     0.012325
      dyz     :    -0.000465
      dx2y2   :     0.007256
      dxy     :     0.008283
      f0      :     0.000127  f :     0.001901
      f+1     :     0.000419
      f-1     :     0.000010
      f+2     :     0.000373
      f-2     :     0.000178
      f+3     :     0.000369
      f-3     :     0.000425

  1 O s       :     4.088742  s :     4.088742
      pz      :     1.355884  p :     4.526457
      px      :     1.575585
      py      :     1.594988
      dz2     :     0.012450  d :     0.032127
      dxz     :     0.006824
      dyz     :     0.007629
      dx2y2   :     0.001349
      dxy     :     0.003874
      f0      :     0.000493  f :     0.001900
      f+1     :     0.000242
      f-1     :     0.000455
      f+2     :     0.000270
      f-2     :     0.000314
      f+3     :     0.000068
      f-3     :     0.000059

  2 O s       :     4.063875  s :     4.063875
      pz      :     1.398794  p :     4.531013
      px      :     1.739454
      py      :     1.392765
      dz2     :     0.011038  d :     0.029389
      dxz     :     0.003044
      dyz     :     0.007317
      dx2y2   :     0.004835
      dxy     :     0.003155
      f0      :     0.000286  f :     0.001970
      f+1     :     0.000089
      f-1     :     0.000531
      f+2     :     0.000384
      f-2     :     0.000346
      f+3     :     0.000168
      f-3     :     0.000166

  3 O s       :     4.069958  s :     4.069958
      pz      :     1.755393  p :     4.544307
      px      :     1.424216
      py      :     1.364698
      dz2     :     0.002926  d :     0.030516
      dxz     :     0.004055
      dyz     :     0.001303
      dx2y2   :     0.014188
      dxy     :     0.008044
      f0      :     0.000211  f :     0.001951
      f+1     :     0.000179
      f-1     :     0.000212
      f+2     :     0.000082
      f-2     :     0.000340
      f+3     :     0.000447
      f-3     :     0.000480

  4 N s       :     3.669732  s :     3.669732
      pz      :     1.157092  p :     3.548117
      px      :     1.048518
      py      :     1.342507
      dz2     :     0.003617  d :     0.024000
      dxz     :    -0.000815
      dyz     :     0.005003
      dx2y2   :     0.008789
      dxy     :     0.007406
      f0      :     0.000493  f :     0.003259
      f+1     :     0.000329
      f-1     :     0.000677
      f+2     :     0.000190
      f-2     :     0.000613
      f+3     :     0.000514
      f-3     :     0.000444

  5 N s       :     3.644288  s :     3.644288
      pz      :     1.026315  p :     3.588368
      px      :     1.160603
      py      :     1.401450
      dz2     :    -0.002385  d :     0.027038
      dxz     :     0.005829
      dyz     :     0.011532
      dx2y2   :     0.011394
      dxy     :     0.000668
      f0      :     0.000337  f :     0.003357
      f+1     :     0.000507
      f-1     :     0.000261
      f+2     :     0.000296
      f-2     :     0.000668
      f+3     :     0.000571
      f-3     :     0.000717

  6 N s       :     3.513107  s :     3.513107
      pz      :     1.282153  p :     3.482996
      px      :     1.085748
      py      :     1.115094
      dz2     :     0.007849  d :     0.037090
      dxz     :     0.001938
      dyz     :     0.014234
      dx2y2   :     0.018690
      dxy     :    -0.005622
      f0      :     0.000422  f :     0.003488
      f+1     :     0.000569
      f-1     :     0.000484
      f+2     :     0.000716
      f-2     :     0.000715
      f+3     :     0.000273
      f-3     :     0.000308

  7 N s       :     3.456939  s :     3.456939
      pz      :     1.020199  p :     3.511017
      px      :     1.338027
      py      :     1.152791
      dz2     :     0.022804  d :     0.064667
      dxz     :     0.003732
      dyz     :     0.008674
      dx2y2   :     0.008982
      dxy     :     0.020474
      f0      :     0.000616  f :     0.003470
      f+1     :     0.000357
      f-1     :     0.000625
      f+2     :     0.000341
      f-2     :     0.000494
      f+3     :     0.000520
      f-3     :     0.000517

  8 C s       :     3.848690  s :     3.848690
      pz      :     1.044680  p :     1.969929
      px      :     0.606509
      py      :     0.318739
      dz2     :     0.003677  d :     0.187937
      dxz     :     0.025247
      dyz     :     0.019802
      dx2y2   :     0.256251
      dxy     :    -0.117039
      f0      :     0.001158  f :     0.008873
      f+1     :     0.000834
      f-1     :     0.000892
      f+2     :     0.000793
      f-2     :     0.000978
      f+3     :     0.002373
      f-3     :     0.001845

  9 C s       :     3.998162  s :     3.998162
      pz      :     0.725193  p :     1.932755
      px      :     0.689326
      py      :     0.518236
      dz2     :    -0.101644  d :    -0.096862
      dxz     :     0.016517
      dyz     :    -0.049059
      dx2y2   :    -0.009889
      dxy     :     0.047213
      f0      :     0.001429  f :     0.008858
      f+1     :     0.001168
      f-1     :     0.001068
      f+2     :     0.001414
      f-2     :     0.001568
      f+3     :     0.000953
      f-3     :     0.001259

 10 C s       :     3.234539  s :     3.234539
      pz      :     0.682410  p :     1.645620
      px      :     0.263305
      py      :     0.699906
      dz2     :    -0.046099  d :     0.046321
      dxz     :    -0.006529
      dyz     :     0.074379
      dx2y2   :     0.010589
      dxy     :     0.013980
      f0      :     0.002274  f :     0.010613
      f+1     :     0.001173
      f-1     :     0.001699
      f+2     :     0.001290
      f-2     :     0.001373
      f+3     :     0.001592
      f-3     :     0.001213

 11 C s       :     3.327038  s :     3.327038
      pz      :     0.930113  p :     2.303175
      px      :     0.544711
      py      :     0.828351
      dz2     :     0.081551  d :     0.086755
      dxz     :     0.066098
      dyz     :     0.015504
      dx2y2   :    -0.102284
      dxy     :     0.025885
      f0      :     0.001098  f :     0.010191
      f+1     :     0.000958
      f-1     :     0.001249
      f+2     :     0.000783
      f-2     :     0.001655
      f+3     :     0.002746
      f-3     :     0.001704

 12 C s       :     3.955060  s :     3.955060
      pz      :     1.173923  p :     3.388094
      px      :     1.365346
      py      :     0.848825
      dz2     :     0.001535  d :     0.024778
      dxz     :     0.026205
      dyz     :     0.034976
      dx2y2   :    -0.003073
      dxy     :    -0.034865
      f0      :     0.000303  f :     0.003057
      f+1     :     0.000057
      f-1     :     0.000502
      f+2     :     0.000709
      f-2     :     0.000120
      f+3     :     0.000749
      f-3     :     0.000618

 13 C s       :     3.868501  s :     3.868501
      pz      :     1.328170  p :     3.452089
      px      :     1.161136
      py      :     0.962783
      dz2     :     0.026552  d :     0.065208
      dxz     :     0.006572
      dyz     :     0.020282
      dx2y2   :     0.018435
      dxy     :    -0.006633
      f0      :     0.000391  f :     0.002975
      f+1     :     0.000113
      f-1     :     0.000438
      f+2     :     0.000325
      f-2     :     0.000236
      f+3     :     0.000673
      f-3     :     0.000799

 14 C s       :     3.474103  s :     3.474103
      pz      :     0.652509  p :     1.860934
      px      :     0.631562
      py      :     0.576862
      dz2     :     0.046682  d :     0.273046
      dxz     :     0.040507
      dyz     :     0.042392
      dx2y2   :     0.051692
      dxy     :     0.091772
      f0      :     0.001532  f :     0.021559
      f+1     :     0.003123
      f-1     :     0.002073
      f+2     :     0.002943
      f-2     :     0.003154
      f+3     :     0.004002
      f-3     :     0.004732

 15 C s       :     3.377069  s :     3.377069
      pz      :     0.587329  p :     1.882662
      px      :     0.685091
      py      :     0.610242
      dz2     :     0.050727  d :     0.263325
      dxz     :     0.052078
      dyz     :     0.056653
      dx2y2   :     0.053996
      dxy     :     0.049871
      f0      :     0.004373  f :     0.021588
      f+1     :     0.003272
      f-1     :     0.003011
      f+2     :     0.003377
      f-2     :     0.003231
      f+3     :     0.001612
      f-3     :     0.002711

 16 C s       :     3.316643  s :     3.316643
      pz      :     0.647425  p :     2.093586
      px      :     0.718944
      py      :     0.727217
      dz2     :     0.072405  d :     0.263107
      dxz     :     0.059846
      dyz     :     0.009585
      dx2y2   :     0.056724
      dxy     :     0.064547
      f0      :     0.003576  f :     0.025285
      f+1     :     0.002928
      f-1     :     0.003548
      f+2     :     0.002659
      f-2     :     0.005831
      f+3     :     0.003728
      f-3     :     0.003015

 17 C s       :     3.260810  s :     3.260810
      pz      :     0.707908  p :     2.024396
      px      :     0.627986
      py      :     0.688502
      dz2     :     0.022862  d :     0.266150
      dxz     :     0.062023
      dyz     :     0.090684
      dx2y2   :     0.093199
      dxy     :    -0.002618
      f0      :     0.004089  f :     0.025458
      f+1     :     0.003883
      f-1     :     0.003125
      f+2     :     0.003057
      f-2     :     0.004698
      f+3     :     0.003098
      f-3     :     0.003507

 18 H s       :     0.635161  s :     0.635161
      pz      :     0.014103  p :     0.029848
      px      :    -0.002901
      py      :     0.018646
      dz2     :     0.000964  d :     0.002875
      dxz     :     0.000396
      dyz     :     0.000480
      dx2y2   :     0.000407
      dxy     :     0.000627

 19 H s       :     0.429051  s :     0.429051
      pz      :     0.007176  p :     0.025089
      px      :     0.009340
      py      :     0.008573
      dz2     :     0.000957  d :     0.002982
      dxz     :     0.000605
      dyz     :     0.000591
      dx2y2   :     0.000330
      dxy     :     0.000499

 20 H s       :     0.738471  s :     0.738471
      pz      :     0.000892  p :     0.054950
      px      :     0.045808
      py      :     0.008250
      dz2     :     0.000724  d :     0.002247
      dxz     :     0.000572
      dyz     :     0.000479
      dx2y2   :     0.000277
      dxy     :     0.000194

 21 H s       :     0.730888  s :     0.730888
      pz      :     0.003760  p :     0.019827
      px      :     0.009534
      py      :     0.006532
      dz2     :     0.000569  d :     0.002345
      dxz     :     0.000466
      dyz     :     0.000393
      dx2y2   :     0.000560
      dxy     :     0.000357

 22 H s       :     0.605978  s :     0.605978
      pz      :     0.029282  p :     0.065206
      px      :     0.026303
      py      :     0.009621
      dz2     :     0.000289  d :     0.002350
      dxz     :     0.000618
      dyz     :     0.000140
      dx2y2   :     0.000546
      dxy     :     0.000758

 23 H s       :     0.658996  s :     0.658996
      pz      :     0.015981  p :     0.032569
      px      :     0.010715
      py      :     0.005873
      dz2     :     0.000732  d :     0.002328
      dxz     :     0.000620
      dyz     :     0.000592
      dx2y2   :     0.000206
      dxy     :     0.000177

 24 H s       :     0.693283  s :     0.693283
      pz      :     0.040360  p :     0.075977
      px      :     0.030780
      py      :     0.004837
[...]
=> NOW LEAVING ORCA_CIS


-------------------------------------------------------------------------------
                          DFT DISPERSION CORRECTION                            
                                                                               
                              DFTD3 V3.1  Rev 1                                
                          USING Becke-Johnson damping                          
-------------------------------------------------------------------------------
The WB97M functional is recognized
Active option DFTDOPT                   ...         4   

molecular C6(AA) [au] = 9618.380194 


            DFT-D V3
 parameters
 s6 scaling factor         :     1.0000 
 a1 scaling factor         :     0.5660 
 s8 scaling factor         :     0.3908 
 a2 scaling factor         :     3.1280 
 ad hoc parameters k1-k3   :    16.0000     1.3333    -4.0000 

 Edisp/kcal,au: -36.003270178247  -0.057374856996 
 E6   /kcal   : -28.870163085 
 E8   /kcal   :  -7.133107093 
 % E8         :  19.812386646 

-------------------------   ----------------
Dispersion correction           -0.057374857
-------------------------   ----------------


-------------------------   --------------------
FINAL SINGLE POINT ENERGY      -908.792653822674
-------------------------   --------------------

[1737020394.610098] [ohm:140374:0]        ib_iface.c:1059 UCX  ERROR ibv_create_cq(cqe=256) failed: Connection timed out
[1737020394.610101] [ohm:140404:0]        ib_iface.c:1059 UCX  ERROR ibv_create_cq(cqe=256) failed: Connection timed out
[1737020394.610097] [ohm:140423:0]        ib_iface.c:1059 UCX  ERROR ibv_create_cq(cqe=256) failed: Connection timed out
[1737020394.611166] [ohm:140387:0]        ib_iface.c:1059 UCX  ERROR ibv_create_cq(cqe=256) failed: Connection timed out
[1737020394.611141] [ohm:140419:0]        ib_iface.c:1059 UCX  ERROR ibv_create_cq(cqe=256) failed: Connection timed out
[1737020394.611140] [ohm:140370:0]        ib_iface.c:1059 UCX  ERROR ibv_create_cq(cqe=256) failed: Connection timed out
[1737020394.611250] [ohm:140384:0]        ib_iface.c:1059 UCX  ERROR ibv_create_cq(cqe=256) failed: Connection timed out
[1737020394.611286] [ohm:140371:0]        ib_iface.c:1059 UCX  ERROR ibv_create_cq(cqe=256) failed: Connection timed out
[1737020394.611530] [ohm:140392:0]        ib_iface.c:1059 UCX  ERROR ibv_create_cq(cqe=256) failed: Connection timed out
[1737020394.611803] [ohm:140388:0]        ib_iface.c:1059 UCX  ERROR ibv_create_cq(cqe=256) failed: Connection timed out
[1737020394.612341] [ohm:140390:0]        ib_iface.c:1059 UCX  ERROR ibv_create_cq(cqe=256) failed: Connection timed out
[1737020394.612992] [ohm:140368:0]        ib_iface.c:1059 UCX  ERROR ibv_create_cq(cqe=256) failed: Connection timed out
[1737020394.613027] [ohm:140416:0]        ib_iface.c:1059 UCX  ERROR ibv_create_cq(cqe=256) failed: Connection timed out
[1737020394.613044] [ohm:140377:0]        ib_iface.c:1059 UCX  ERROR ibv_create_cq(cqe=256) failed: Connection timed out
[1737020394.614355] [ohm:140380:0]        ib_iface.c:1059 UCX  ERROR ibv_create_cq(cqe=256) failed: Connection timed out
[1737020394.614859] [ohm:140383:0]        ib_iface.c:1059 UCX  ERROR ibv_create_cq(cqe=256) failed: Connection timed out
[1737020394.619471] [ohm:140378:0]        ib_iface.c:1059 UCX  ERROR ibv_create_cq(cqe=256) failed: Connection timed out
[1737020394.620574] [ohm:140372:0]        ib_iface.c:1059 UCX  ERROR ibv_create_cq(cqe=256) failed: Connection timed out
[1737020394.620635] [ohm:140367:0]        ib_iface.c:1059 UCX  ERROR ibv_create_cq(cqe=256) failed: Connection timed out
[1737020394.620728] [ohm:140386:0]        ib_iface.c:1059 UCX  ERROR ibv_create_cq(cqe=256) failed: Connection timed out
[1737020394.620826] [ohm:140375:0]        ib_iface.c:1059 UCX  ERROR ibv_create_cq(cqe=256) failed: Connection timed out
[1737020394.620966] [ohm:140379:0]        ib_iface.c:1059 UCX  ERROR ibv_create_cq(cqe=256) failed: Connection timed out
[1737020394.621249] [ohm:140382:0]        ib_iface.c:1059 UCX  ERROR ibv_create_cq(cqe=256) failed: Connection timed out
[1737020394.621347] [ohm:140397:0]        ib_iface.c:1059 UCX  ERROR ibv_create_cq(cqe=256) failed: Connection timed out
[1737020394.621464] [ohm:140381:0]        ib_iface.c:1059 UCX  ERROR ibv_create_cq(cqe=256) failed: Connection timed out
[1737020394.621554] [ohm:140409:0]        ib_iface.c:1059 UCX  ERROR ibv_create_cq(cqe=256) failed: Connection timed out
[1737020394.621662] [ohm:140391:0]        ib_iface.c:1059 UCX  ERROR ibv_create_cq(cqe=256) failed: Connection timed out
[1737020394.621730] [ohm:140369:0]        ib_iface.c:1059 UCX  ERROR ibv_create_cq(cqe=256) failed: Connection timed out
[1737020394.621823] [ohm:140376:0]        ib_iface.c:1059 UCX  ERROR ibv_create_cq(cqe=256) failed: Connection timed out
[1737020394.622633] [ohm:140389:0]        ib_iface.c:1059 UCX  ERROR ibv_create_cq(cqe=256) failed: Connection timed out
[1737020394.622675] [ohm:140373:0]        ib_iface.c:1059 UCX  ERROR ibv_create_cq(cqe=256) failed: Connection timed out
[1737020394.623489] [ohm:140385:0]        ib_iface.c:1059 UCX  ERROR ibv_create_cq(cqe=256) failed: Connection timed out


           ************************************************************
           *        Program running with 32 parallel MPI-processes    *
           *              working on a common directory               *
           ************************************************************

------------------------------------------------------------------------------
                              ORCA PROPERTY CALCULATIONS
------------------------------------------------------------------------------

GBWName                                 ... orca.gbw
Number of atoms                         ...     30
Number of basis functions               ...    882
Max core memory                         ...   1024 MB

Electric properties:
Dipole moment                           ... YES
Quadrupole moment                       ...  NO
Static polarizability (Dipole/Dipole)   ...  NO
Static polarizability (Dipole/Quad.)    ...  NO
Static polarizability (Quad./Quad.)     ...  NO
Static polarizability (Velocity)        ...  NO

Atomic electric properties:
Dipole moment                           ...  NO
Quadrupole moment                       ...  NO
Static polarizability                   ...  NO

Choice of electric origin               ... Center of mass
Position of electric origin             ...    -0.037327    -0.068307     0.314865

General magnetic properties:
Magnetizability                         ...  NO

EPR properties:
g-Tensor (aka g-matrix)                 ...  NO
Zero-Field splitting spin-orbit         ...  NO
Zero-field splitting spin-spin          ...  NO
Hyperfine couplings                     ...  NO (   0 nuclei)
Quadrupole couplings                    ...  NO (   0 nuclei)
Contact density                         ...  NO (   0 nuclei)

NMR properties:
Chemical shifts                         ...  NO (   0 nuclei)
Spin-rotation constants                 ...  NO (   0 nuclei)
Spin-spin couplings                     ...  NO (   0 nuclei,    0 pairs)

Choice of magnetic origin               ... GIAO
Position of magnetic origin             ...     0.000000     0.000000     0.000000

Properties with geometric perturbations:
SCF Hessian                             ...  NO
IR spectrum                             ...  NO
VCD spectrum                            ...  NO
X-ray spectroscopy properties:
SCF XES/XAS/RIXS spectra                ...  NO


-------------
DIPOLE MOMENT
-------------

Method             : SCF
Type of density    : Electron Density
Multiplicity       :   3
Irrep              :   0
Energy             :  -908.7636772315038343 Eh
Relativity type    : 
Basis              : AO
                                X                 Y                 Z
Electronic contribution:     -2.702066913     -10.248322082      -3.641371227
Nuclear contribution   :      2.777885123      11.886759746       5.098089203
                        -----------------------------------------
Total Dipole Moment    :      0.075818209       1.638437663       1.456717976
                        -----------------------------------------
Magnitude (a.u.)       :      2.193684945
Magnitude (Debye)      :      5.575904006



--------------------
Rotational spectrum 
--------------------
 
Rotational constants in cm-1:             0.021610             0.010577             0.009018 
Rotational constants in MHz :           647.852182           317.084004           270.355296 

Dipole components along the rotational axes: 
x,y,z [a.u.] :    -0.022344     1.864743    -1.155200 
x,y,z [Debye]:    -0.056794     4.739801    -2.936285 

 

-------------
DIPOLE MOMENT
-------------

Method             : TDA/CIS
Type of density    : Electron Density
Level              : Relaxed density
State              :   2
Multiplicity       :   3
Irrep              :   0
Energy             :     0.0000000000000000 Eh
Relativity type    : 
Basis              : AO
                                X                 Y                 Z
Electronic contribution:     -2.810615002     -10.147378097      -3.659099229
Nuclear contribution   :      2.777885123      11.886759746       5.098089203
                        -----------------------------------------
Total Dipole Moment    :     -0.032729879       1.739381649       1.438989974
                        -----------------------------------------
Magnitude (a.u.)       :      2.257700580
Magnitude (Debye)      :      5.738618820



--------------------
Rotational spectrum 
--------------------
 
Rotational constants in cm-1:             0.021610             0.010577             0.009018 
Rotational constants in MHz :           647.852182           317.084004           270.355296 

Dipole components along the rotational axes: 
x,y,z [a.u.] :    -0.153044     1.936709    -1.150195 
x,y,z [Debye]:    -0.389008     4.922722    -2.923564 

 

Dipole moment calculation done in   0.1 sec 

Maximum memory used throughout the entire PROP-calculation: 81.5 MB
[1737020395.951700] [ohm:140570:0]        ib_iface.c:1059 UCX  ERROR ibv_create_cq(cqe=256) failed: Connection timed out
[1737020395.951807] [ohm:140559:0]        ib_iface.c:1059 UCX  ERROR ibv_create_cq(cqe=256) failed: Connection timed out
[1737020395.965687] [ohm:140551:0]        ib_iface.c:1059 UCX  ERROR ibv_create_cq(cqe=256) failed: Connection timed out
[1737020395.965815] [ohm:140539:0]        ib_iface.c:1059 UCX  ERROR ibv_create_cq(cqe=256) failed: Connection timed out
[1737020395.966194] [ohm:140542:0]        ib_iface.c:1059 UCX  ERROR ibv_create_cq(cqe=256) failed: Connection timed out
[1737020395.975057] [ohm:140588:0]        ib_iface.c:1059 UCX  ERROR ibv_create_cq(cqe=256) failed: Connection timed out
[1737020395.978388] [ohm:140547:0]        ib_iface.c:1059 UCX  ERROR ibv_create_cq(cqe=256) failed: Connection timed out
[1737020396.000617] [ohm:140543:0]        ib_iface.c:1059 UCX  ERROR ibv_create_cq(cqe=256) failed: Connection timed out
[1737020396.016773] [ohm:140555:0]        ib_iface.c:1059 UCX  ERROR ibv_create_cq(cqe=256) failed: Connection timed out
[1737020396.018017] [ohm:140583:0]        ib_iface.c:1059 UCX  ERROR ibv_create_cq(cqe=256) failed: Connection timed out
[1737020396.018078] [ohm:140557:0]        ib_iface.c:1059 UCX  ERROR ibv_create_cq(cqe=256) failed: Connection timed out
[1737020396.019254] [ohm:140544:0]        ib_iface.c:1059 UCX  ERROR ibv_create_cq(cqe=256) failed: Connection timed out
[1737020396.019259] [ohm:140553:0]        ib_iface.c:1059 UCX  ERROR ibv_create_cq(cqe=256) failed: Connection timed out
[1737020396.019997] [ohm:140560:0]        ib_iface.c:1059 UCX  ERROR ibv_create_cq(cqe=256) failed: Connection timed out
[1737020396.020660] [ohm:140552:0]        ib_iface.c:1059 UCX  ERROR ibv_create_cq(cqe=256) failed: Connection timed out
[1737020396.021295] [ohm:140549:0]        ib_iface.c:1059 UCX  ERROR ibv_create_cq(cqe=256) failed: Connection timed out
[1737020396.023169] [ohm:140540:0]        ib_iface.c:1059 UCX  ERROR ibv_create_cq(cqe=256) failed: Connection timed out
[1737020396.023638] [ohm:140550:0]        ib_iface.c:1059 UCX  ERROR ibv_create_cq(cqe=256) failed: Connection timed out
[1737020396.023781] [ohm:140562:0]        ib_iface.c:1059 UCX  ERROR ibv_create_cq(cqe=256) failed: Connection timed out
[1737020396.024973] [ohm:140563:0]        ib_iface.c:1059 UCX  ERROR ibv_create_cq(cqe=256) failed: Connection timed out
[1737020396.024957] [ohm:140541:0]        ib_iface.c:1059 UCX  ERROR ibv_create_cq(cqe=256) failed: Connection timed out
[1737020396.025142] [ohm:140591:0]        ib_iface.c:1059 UCX  ERROR ibv_create_cq(cqe=256) failed: Connection timed out
[1737020396.025210] [ohm:140556:0]        ib_iface.c:1059 UCX  ERROR ibv_create_cq(cqe=256) failed: Connection timed out
[1737020396.025199] [ohm:140538:0]        ib_iface.c:1059 UCX  ERROR ibv_create_cq(cqe=256) failed: Connection timed out
[1737020396.026731] [ohm:140545:0]        ib_iface.c:1059 UCX  ERROR ibv_create_cq(cqe=256) failed: Connection timed out
[1737020396.026964] [ohm:140572:0]        ib_iface.c:1059 UCX  ERROR ibv_create_cq(cqe=256) failed: Connection timed out
[1737020396.027364] [ohm:140558:0]        ib_iface.c:1059 UCX  ERROR ibv_create_cq(cqe=256) failed: Connection timed out
[1737020396.027737] [ohm:140548:0]        ib_iface.c:1059 UCX  ERROR ibv_create_cq(cqe=256) failed: Connection timed out
[1737020396.027962] [ohm:140565:0]        ib_iface.c:1059 UCX  ERROR ibv_create_cq(cqe=256) failed: Connection timed out
[1737020396.028572] [ohm:140546:0]        ib_iface.c:1059 UCX  ERROR ibv_create_cq(cqe=256) failed: Connection timed out
[1737020396.029882] [ohm:140554:0]        ib_iface.c:1059 UCX  ERROR ibv_create_cq(cqe=256) failed: Connection timed out
[1737020396.029983] [ohm:140580:0]        ib_iface.c:1059 UCX  ERROR ibv_create_cq(cqe=256) failed: Connection timed out

--------------------------------
SUGGESTED CITATIONS FOR THIS RUN
--------------------------------

Below you find a list of papers that are relevant to this ORCA run
We neither can nor want to force you to cite these papers, but we appreciate if you do
You receive ORCA, which is the product of decades of hard work by many enthusiastic individuals, for free
The only thing we kindly ask in return is that you cite our papers,
We deeply appreciate it, if you show your appreciation for ORCA by not just citing the generic ORCA reference.

Please note that relegating all ORCA citations to the supporting information does *not* help us.
SI sections are not indexed - citations you put there will not count into any citation statistics
But we need these citations in order to attract the funding resources that allow us to do what we are doing

Therefore, if you are a happy ORCA user, please consider citing a few of the papers listed below in the main body of your paper

In addition to the list printed below, the program has created the file orca.bibtex that contains the list in bibtex format
You can import this file easily into all common literature databanks and citation aid programs


List of essential papers. We consider these as the minimum necessary citations

  1. Neese,F.
     Software update: the ORCA program system, version 5.0
     WIRES Comput. Molec. Sci., 2022 12(1)e1606
     doi.org/10.1002/wcms.1606

List of papers to cite with high priority. The work reported in these papers was absolutely
necessary for this run to complete.
Our perspective: the developers of density functionals and basis sets usually get cited in chemistry papers
Good! But without the algorithms to do something with them, the functionals or basis sets would not do anything.
Hence, in our opinion, the algorithm design and method developments papers are equally worthy of getting cited

  1. Neese,F.; Olbrich,G.
     Efficient use of the resolution of the identity approximation in time-dependent density functional calculations with hybrid density functionals
     Chem. Phys. Lett., 2002 362 170-178
     doi.org/10.1016/s0009-2614(02)01053-9
  2. Neese,F.
     An improvement of the resolution of the identity approximation for the formation of the Coulomb matrix
     J. Comp. Chem., 2003 24(14)1740-1747
     doi.org/10.1002/jcc.10318
  3. Neese,F.; Wennmohs,F.; Hansen,A.; Becker,U.
     Efficient, approximate and parallel Hartree-Fock and hybrid DFT calculations. A 'chain-of-spheres' algorithm for the Hartree-Fock exchange
     Chem. Phys., 2009 356(1-3)98-109
     doi.org/10.1016/j.chemphys.2008.10.036
  4. Petrenko,T.; Kossmann,S.; Neese,F.
     Efficient time-dependent density functional theory approximations for hybrid density functionals: Analytical gradients and parallelization
     J. Chem. Phys., 2011 134 054116
     doi.org/10.1063/1.3533441
  5. Helmich-Paris,B.; de Souza,B.; Neese,F.; Izsák,R.
     An improved chain of spheres for exchange algorithm
     J. Chem. Phys., 2021 155 104109
     doi.org/doi: 10.1063/5.0058766.
  6. Neese,F.
     The SHARK Integral Generation and Digestion System
     J. Comp. Chem., 2022  1-16
     doi.org/10.1002/jcc.26942
  7. Lehtola,S.; Steigemann,C.; Oliveira,M.; Marques,M.
     Recent developments in Libxc - A comprehensive library of functionals for density functional theory
     Software X, 2018 7 
     doi.org/10.1016/j.softx.2017.11.002
  8. Grimme,S.; Antony,J.; Ehrlich,S.; Krieg,H.
     A consistent and accurate ab initio parametrization of density functional dispersion correction (DFT-D) for the 94 elements H-Pu
     J. Chem. Phys., 2010 132 154104-XXXX
     doi.org/10.1063/1.3382344
  9. Grimme,S.; Ehrlich,S.; Goerigk,L.
     Effect of the damping function in dispersion corrected density functional theory
     J. Comput. Chem., 2011 32(7)1456-1465
     doi.org/10.1002/jcc.21759

List of suggested additional citations. These are papers that are important in the 'surrounding' of 
of this run, or papers that preceded the highly important papers. If you like your results we are grateful for a citation.

  1. Izsak,R.; Neese,F.
     An overlap fitted chain of spheres exchange method
     J. Chem. Phys., 2011 135 144105
     doi.org/10.1063/1.3646921
  2. Izsak,R.; Hansen,A.; Neese,F.
     The resolution of identity and chain of spheres approximations for the LPNO-CCSD singles Fock term
     Molec. Phys., 2012 110 2413-2417
     doi.org/10.1080/00268976.2012.687466
  3. Neese,F.
     The ORCA program system
     WIRES Comput. Molec. Sci., 2012 2(1)73-78
     doi.org/10.1002/wcms.81
  4. Izsak,R.; Neese,F.; Klopper,W.
     Robust fitting techniques in the chain of spheres approximation to the Fock exchange: The role of the complementary space
     J. Chem. Phys., 2013 139 
     doi.org/10.1063/1.4819264
  5. Neese,F.
     Software update: the ORCA program system, version 4.0
     WIRES Comput. Molec. Sci., 2018 8(1)1-6
     doi.org/10.1002/wcms.1327
  6. Neese,F.; Wennmohs,F.; Becker,U.; Riplinger,C.
     The ORCA quantum chemistry program package
     J. Chem. Phys., 2020 152 Art. No. L224108
     doi.org/10.1063/5.0004608

List of optional additional citations

  1. Neese,F.
     Approximate second-order SCF convergence for spin unrestricted wavefunctions
     Chem. Phys. Lett., 2000 325(1-3)93-98
     doi.org/10.1016/s0009-2614(00)00662-x

Timings for individual modules:

Sum of individual times          ...      317.259 sec (=   5.288 min)
Startup calculation              ...        4.213 sec (=   0.070 min)   1.3 %
SCF iterations                   ...      158.096 sec (=   2.635 min)  49.8 %
Property integrals               ...        2.353 sec (=   0.039 min)   0.7 %
Property calculations            ...        1.529 sec (=   0.025 min)   0.5 %
CIS module                       ...      151.068 sec (=   2.518 min)  47.6 %
                             ****ORCA TERMINATED NORMALLY****
TOTAL RUN TIME: 0 days 0 hours 5 minutes 18 seconds 242 msec
