
                                 *****************
                                 * O   R   C   A *
                                 *****************

                                            #,                                       
                                            ###                                      
                                            ####                                     
                                            #####                                    
                                            ######                                   
                                           ########,                                 
                                     ,,################,,,,,                         
                               ,,#################################,,                 
                          ,,##########################################,,             
                       ,#########################################, ''#####,          
                    ,#############################################,,   '####,        
                  ,##################################################,,,,####,       
                ,###########''''           ''''###############################       
              ,#####''   ,,,,##########,,,,          '''####'''          '####       
            ,##' ,,,,###########################,,,                        '##       
           ' ,,###''''                  '''############,,,                           
         ,,##''                                '''############,,,,        ,,,,,,###''
      ,#''                                            '''#######################'''  
     '                                                          ''''####''''         
             ,#######,   #######,   ,#######,      ##                                
            ,#'     '#,  ##    ##  ,#'     '#,    #''#        ,####,   ,####,        
            ##       ##  ##   ,#'  ##            #'  '#       #'       #'  '#        
            ##       ##  #######   ##           ,######,      #####,   #    #        
            '#,     ,#'  ##    ##  '#,     ,#' ,#      #,     #,   #   #,  ,#        
             '#######'   ##     ##  '#######'  #'      '#     '####' # '####'        



                #########################################################
                #                        -***-                          #
                #          Department of theory and spectroscopy        #
                #                                                       #
                #                      Frank Neese                      #
                #                                                       #
                #     Directorship, Architecture, Infrastructure        #
                #                    SHARK, DRIVERS                     #
                #        Core code/Algorithms in most modules           #
                #                                                       #
                #        Max Planck Institute fuer Kohlenforschung      #
                #                Kaiser Wilhelm Platz 1                 #
                #                 D-45470 Muelheim/Ruhr                 #
                #                      Germany                          #
                #                                                       #
                #                  All rights reserved                  #
                #                        -***-                          #
                #########################################################


                         Program Version 6.0.0  -   RELEASE  -


 With contributions from (in alphabetic order):
   Daniel Aravena         : Magnetic Suceptibility
   Michael Atanasov       : Ab Initio Ligand Field Theory (pilot matlab implementation)
   Alexander A. Auer      : GIAO ZORA, VPT2 properties, NMR spectrum
   Ute Becker             : All parallelization in ORCA, NUMFREQ, NUMCALC
   Giovanni Bistoni       : ED, misc. LED, open-shell LED, HFLD
   Martin Brehm           : Molecular dynamics
   Dmytro Bykov           : pre 5.0 version of the SCF Hessian
   Marcos Casanova-Páez   : Triplet and SCS-CIS(D). UHF-(DLPNO)-IP/EA/STEOM-CCSD. UHF-CVS-IP/STEOM-CCSD
   Vijay G. Chilkuri      : MRCI spin determinant printing, contributions to CSF-ICE
   Pauline Colinet        : FMM embedding
   Dipayan Datta          : RHF DLPNO-CCSD density
   Achintya Kumar Dutta   : EOM-CC, STEOM-CC
   Nicolas Foglia         : Exact transition moments, OPA infrastructure, MCD improvements
   Dmitry Ganyushin       : Spin-Orbit,Spin-Spin,Magnetic field MRCI
   Miquel Garcia          : C-PCM and meta-GGA Hessian, CCSD/C-PCM, Gaussian charge scheme
   Tiago L. C. Gouveia    : GS-ROHF, GS-ROCIS
   Yang Guo               : DLPNO-NEVPT2, F12-NEVPT2, CIM, IAO-localization
   Andreas Hansen         : Spin unrestricted coupled pair/coupled cluster methods
   Ingolf Harden          : AUTO-CI MPn and infrastructure 
   Benjamin Helmich-Paris : MC-RPA, TRAH-(SCF,CASSCF), AVAS, COSX integrals, SCF dyn. polar.
   Lee Huntington         : MR-EOM, pCC
   Robert Izsak           : Overlap fitted RIJCOSX, COSX-SCS-MP3, EOM
   Riya Kayal             : Wick's Theorem for AUTO-CI, AUTO-CI UHF-CCSDT
   Emily Kempfer          : AUTO-CI, RHF CISDT and CCSDT
   Christian Kollmar      : KDIIS, OOCD, Brueckner-CCSD(T), CCSD density, CASPT2, CASPT2-K, improved NEVPT2
   Axel Koslowski         : Symmetry handling
   Simone Kossmann        : Meta GGA functionals, TD-DFT gradient, OOMP2, (MP2 Hessian; deprecated post 5.0)
   Lucas Lang             : DCDCAS
   Marvin Lechner         : AUTO-CI (C++ implementation), FIC-MRCC
   Spencer Leger          : CASSCF response
   Dagmar Lenk            : GEPOL surface, SMD, ORCA-2-JSON
   Dimitrios Liakos       : Extrapolation schemes; Compound Job, initial MDCI parallelization
   Dimitrios Manganas     : Further ROCIS development; embedding schemes. LFT, Crystal Embedding
   Dimitrios Pantazis     : SARC Basis sets
   Anastasios Papadopoulos: AUTO-CI, single reference methods and gradients
   Taras Petrenko         : pre 6.0 DFT Hessian and TD-DFT gradient, (ASA, deprecated), ECA, 1-Electron XAS/XES, NRVS
   Peter Pinski           : DLPNO-MP2, DLPNO-MP2 Gradient
   Christoph Reimann      : Effective Core Potentials
   Marius Retegan         : Local ZFS, SOC
   Christoph Riplinger    : Optimizer, TS searches, QM/MM, DLPNO-CCSD(T), (RO)-DLPNO pert. Triples
   Michael Roemelt        : Original ROCIS implementation
   Masaaki Saitow         : Open-shell DLPNO-CCSD energy and density
   Barbara Sandhoefer     : DKH picture change effects
   Kantharuban Sivalingam : CASSCF convergence/infrastructure, NEVPT2 and variants, FIC-MRCI
   Bernardo de Souza      : ESD, SOC TD-DFT
   Georgi Stoychev        : AutoAux, RI-MP2 NMR, DLPNO-MP2 response, X2C
   Van Anh Tran           : RI-MP2 g-tensors
   Willem Van den Heuvel  : Paramagnetic NMR
   Zikuan Wang            : NOTCH, Electric field optimization 
   Frank Wennmohs         : Technical directorship and infrastructure
   Hang Xu                : AUTO-CI-Response properties 


 We gratefully acknowledge several colleagues who have allowed us to
 interface, adapt or use parts of their codes:
   Stefan Grimme, W. Hujo, H. Kruse, P. Pracht,  : VdW corrections, initial TS optimization,
                  C. Bannwarth, S. Ehlert,         DFT functionals, gCP, sTDA/sTD-DF
                  L. Wittmann, M. Mueller
   Ed Valeev, F. Pavosevic, A. Kumar             : LibInt (2-el integral package), F12 methods
   Garnet Chan, S. Sharma, J. Yang, R. Olivares  : DMRG
   Ulf Ekstrom                                   : XCFun DFT Library
   Mihaly Kallay                                 : mrcc  (arbitrary order and MRCC methods)
   Frank Weinhold                                : gennbo (NPA and NBO analysis)
   Simon Mueller                                 : openCOSMO-RS
   Christopher J. Cramer and Donald G. Truhlar   : smd solvation model
   Lars Goerigk                                  : TD-DFT with DH, B97 family of functionals
   V. Asgeirsson, H. Jonsson                     : NEB implementation
   FAccTs GmbH                                   : IRC, NEB, NEB-TS, DLPNO-Multilevel, CI-OPT
                                                   MM, QMMM, 2- and 3-layer-ONIOM, Crystal-QMMM,
                                                   LR-CPCM, SF, NACMEs, symmetry and pop. for TD-DFT,
                                                   nearIR, NL-DFT gradient (VV10), updates on ESD,
                                                   ML-optimized integration grids, MBIS, APM,
                                                   GOAT, DOCKER, SOLVATOR, interface openCOSMO-RS
   S Lehtola, MJT Oliveira, MAL Marques          : LibXC Library
   Liviu Ungur et al                             : ANISO software


 Your calculation uses the libint2 library for the computation of 2-el integrals
 For citations please refer to: http://libint.valeyev.net

 Your ORCA version has been built with support for libXC version: 6.2.2
 For citations please refer to: https://libxc.gitlab.io

 This ORCA versions uses:
   CBLAS   interface :  Fast vector & matrix operations
   LAPACKE interface :  Fast linear algebra routines
   SCALAPACK package :  Parallel linear algebra routines
   Shared memory     :  Shared parallel matrices
   BLAS/LAPACK       :  OpenBLAS 0.3.27  USE64BITINT DYNAMIC_ARCH NO_AFFINITY Zen SINGLE_THREADED
        Core in use  :  Zen
   Copyright (c) 2011-2014, The OpenBLAS Project


Your calculation utilizes the atom-pairwise dispersion correction
with the Becke-Johnson damping scheme (D3BJ)


Warning: RI is on but no J-basis has been assigned. Assigning Def2/J (nothing to worry about!)
================================================================================

----- Orbital basis set information -----
Your calculation utilizes the basis: def2-TZVPPD
   F. Weigend and R. Ahlrichs, Phys. Chem. Chem. Phys. 7, 3297 (2005).
   D. Rappoport and F. Furche, J. Chem. Phys. 133, 134105 (2010)
   D. Rappoport, J. Chem. Phys. 155, 124102 (2021).

----- AuxJ basis set information -----
Your calculation utilizes the auxiliary basis: def2/J
   F. Weigend, Phys. Chem. Chem. Phys. 8, 1057 (2006).

================================================================================
                                        WARNINGS
                       Please study these warnings very carefully!
================================================================================

Using LibXC functional ID 531 : wB97M-V exchange-correlation functional
[ 1]  N. Mardirossian and M. Head-Gordon.,  J. Chem. Phys. 144, 214110 (2016)
Using LibXC functional ID 531 : wB97M-V exchange-correlation functional
[ 1]  N. Mardirossian and M. Head-Gordon.,  J. Chem. Phys. 144, 214110 (2016)

WARNING: B97M-V or wB97M-V functional requested.
  ===> : libXC variant has now been activated.
         Any manually given DFX/HFX/RangeSep scaling parameters are IGNORED!

Your calculation utilizes LibXC
 by S Lehtola, C Steigemann, MJT Oliveira & MAL Marques
Please cite in your paper:
 S Lehtola, C Steigemann, MJT Oliveira & MAL Marques, SoftwareX, 7, (2018), 1.
   


WARNING: your system is open-shell and RHF/RKS was chosen
  ===> : WILL SWITCH to UHF/UKS

INFO   : Checking CIS options ...

WARNING: CIS/ROCIS methods need fully converged wavefunctions
  ===> : Setting SCFConvForced true
         You can overwrite this default with %scf ConvForced false 


================================================================================
                                       INPUT FILE
================================================================================
NAME = orca.inp
|  1> ! Engrad def2-TZVPPD wB97M-D3BJ 
|  2> %pal nprocs 8 end%pal nprocs 64 end 
|  3> %tddft Nroots 2 Iroot 1 
|  4> sf true 
|  5> end 
|  6> *xyz 0 3 
|  7> O   2.37105601 -0.35796004 -1.13388858
|  8> O   -0.16330571 2.85363706 -2.23266777
|  9> O   0.20145222 -3.80361003 0.81585353
| 10> O   -2.07426548 -1.05802526 -1.47202341
| 11> N   0.39866376 -1.89148499 2.02784484
| 12> N   -1.36675939 -0.21828796 0.5020259
| 13> N   1.08710035 -1.96637064 -0.19841607
| 14> N   -0.7569562 0.76782344 -1.59279107
| 15> C   1.41247631 0.11062934 0.9903215
| 16> C   -0.41280618 2.76212799 -0.07080462
| 17> C   0.5914143 -0.47957093 2.07058491
| 18> C   -0.38600337 0.38039762 1.31992318
| 19> C   2.30940436 1.30071764 1.23363329
| 20> C   -1.65044387 3.43345365 0.29695077
| 21> C   1.674638 -0.715913 -0.21063692
| 22> C   -0.43088122 2.09091325 -1.33312979
| 23> C   0.52733696 -2.64381301 0.88576388
| 24> C   -1.4571572 -0.21678226 -0.88007519
| 25> H   0.81664971 -0.15199021 3.06489582
| 26> H   -0.5229676 1.39265038 1.63214245
| 27> H   2.42644344 1.86719432 0.31625104
| 28> H   1.868287 1.9523069 1.9842601
| 29> H   3.28985113 0.98471933 1.58660032
| 30> H   -2.50530669 2.75414973 0.21001898
| 31> H   -1.64568705 3.88040869 1.28514489
| 32> H   -1.79650228 4.2417834 -0.42405307
| 33> H   -0.03576708 -2.35883504 2.79330998
| 34> H   -1.81273698 -1.03794623 0.87667536
| 35> H   1.23223799 -2.52574791 -1.02111707
| 36> H   -0.74595464 0.58752841 -2.58707061
| 37> *
| 38> 
| 39>                          ****END OF INPUT****
================================================================================

                     *******************************
                     * Energy+Gradient Calculation *
                     *******************************

---------------------------------
CARTESIAN COORDINATES (ANGSTROEM)
---------------------------------
  O      2.371056   -0.357960   -1.133889
  O     -0.163306    2.853637   -2.232668
  O      0.201452   -3.803610    0.815854
  O     -2.074265   -1.058025   -1.472023
  N      0.398664   -1.891485    2.027845
  N     -1.366759   -0.218288    0.502026
  N      1.087100   -1.966371   -0.198416
  N     -0.756956    0.767823   -1.592791
  C      1.412476    0.110629    0.990321
  C     -0.412806    2.762128   -0.070805
  C      0.591414   -0.479571    2.070585
  C     -0.386003    0.380398    1.319923
  C      2.309404    1.300718    1.233633
  C     -1.650444    3.433454    0.296951
  C      1.674638   -0.715913   -0.210637
  C     -0.430881    2.090913   -1.333130
  C      0.527337   -2.643813    0.885764
  C     -1.457157   -0.216782   -0.880075
  H      0.816650   -0.151990    3.064896
  H     -0.522968    1.392650    1.632142
  H      2.426443    1.867194    0.316251
  H      1.868287    1.952307    1.984260
  H      3.289851    0.984719    1.586600
  H     -2.505307    2.754150    0.210019
  H     -1.645687    3.880409    1.285145
  H     -1.796502    4.241783   -0.424053
  H     -0.035767   -2.358835    2.793310
  H     -1.812737   -1.037946    0.876675
  H      1.232238   -2.525748   -1.021117
  H     -0.745955    0.587528   -2.587071

----------------------------
CARTESIAN COORDINATES (A.U.)
----------------------------
  NO LB      ZA    FRAG     MASS         X           Y           Z
   0 O     8.0000    0    15.999    4.480647   -0.676446   -2.142739
   1 O     8.0000    0    15.999   -0.308603    5.392593   -4.219131
   2 O     8.0000    0    15.999    0.380690   -7.187781    1.541740
   3 O     8.0000    0    15.999   -3.919794   -1.999378   -2.781721
   4 N     7.0000    0    14.007    0.753365   -3.574389    3.832071
   5 N     7.0000    0    14.007   -2.582801   -0.412504    0.948691
   6 N     7.0000    0    14.007    2.054322   -3.715902   -0.374952
   7 N     7.0000    0    14.007   -1.430440    1.450976   -3.009939
   8 C     6.0000    0    12.011    2.669193    0.209059    1.871436
   9 C     6.0000    0    12.011   -0.780091    5.219665   -0.133801
  10 C     6.0000    0    12.011    1.117611   -0.906258    3.912838
  11 C     6.0000    0    12.011   -0.729441    0.718847    2.494293
  12 C     6.0000    0    12.011    4.364142    2.458000    2.331229
  13 C     6.0000    0    12.011   -3.118887    6.488287    0.561156
  14 C     6.0000    0    12.011    3.164607   -1.352880   -0.398046
  15 C     6.0000    0    12.011   -0.814248    3.951253   -2.519250
  16 C     6.0000    0    12.011    0.996522   -4.996083    1.673851
  17 C     6.0000    0    12.011   -2.753628   -0.409659   -1.663101
  18 H     1.0000    0     1.008    1.543244   -0.287220    5.791814
  19 H     1.0000    0     1.008   -0.988266    2.631728    3.084302
  20 H     1.0000    0     1.008    4.585314    3.528486    0.597628
  21 H     1.0000    0     1.008    3.530551    3.689325    3.749708
  22 H     1.0000    0     1.008    6.216918    1.860850    2.998240
  23 H     1.0000    0     1.008   -4.734344    5.204589    0.396878
  24 H     1.0000    0     1.008   -3.109898    7.332910    2.428572
  25 H     1.0000    0     1.008   -3.394897    8.015809   -0.801344
  26 H     1.0000    0     1.008   -0.067590   -4.457552    5.278591
  27 H     1.0000    0     1.008   -3.425576   -1.961434    1.656676
  28 H     1.0000    0     1.008    2.328592   -4.772972   -1.929632
  29 H     1.0000    0     1.008   -1.409650    1.110268   -4.888855

--------------------------------
INTERNAL COORDINATES (ANGSTROEM)
--------------------------------
 O      0   0   0     0.000000000000     0.00000000     0.00000000
 O      1   0   0     4.236113899426     0.00000000     0.00000000
 O      1   2   0     4.514551888579   113.77495803     0.00000000
 O      3   1   2     4.236921957262    61.98735074    19.12007176
 N      3   1   2     2.272451868714    63.02645277   288.94696548
 N      4   3   1     2.258892268062    66.47017463   287.56920334
 N      1   2   3     2.260671495818   107.87515120     0.41619256
 N      4   3   1     2.254686683814   103.87910379   340.78453131
 C      1   2   3     2.377124210527    80.85588621   303.09495867
 C      2   1   3     2.178136054922    77.24593919    61.43604114
 C      5   3   1     1.425651008164   149.43488052    22.94207984
 C      6   4   3     1.410412264233   151.92940849    82.09978417
 C      9   1   2     1.509963812754    93.42971875   281.16642284
 C     10   2   1     1.455221364727   109.19993951   199.98257277
 C      1   2   3     1.210587458186    94.46326787   331.28254371
 C      2   1   3     1.209343971480    57.40341085    26.20338615
 C      3   1   2     1.206738351260    33.03842370   295.41182970
 C      4   3   1     1.199547877100    84.93203652   313.99808651
 H     11   5   3     1.070838131455   111.05338079   193.44696174
 H     12   6   4     1.068127203561   118.85618270   110.11621061
 H     13   9   1     1.084520247781   109.84501670    40.23763338
 H     13   9   1     1.087471239588   110.03056508   159.42494574
 H     13   9   1     1.088906113948   110.99901503   279.39147714
 H     14  10   2     1.095354459916   110.95280989    84.73550369
 H     14  10   2     1.084582432976   114.62235143   209.18930018
 H     14  10   2     1.092966871027   106.74579281   327.80353227
 H      5   3   1     0.996535551063    88.69513720   183.96706688
 H      6   4   3     1.005533643515    83.31909983   306.18599382
 H      7   1   2     1.005387885415    88.58170766   108.60385081
 H      8   4   3     1.010553875767    85.09996915   116.41600179

---------------------------
INTERNAL COORDINATES (A.U.)
---------------------------
 O      0   0   0     0.000000000000     0.00000000     0.00000000
 O      1   0   0     8.005095142012     0.00000000     0.00000000
 O      1   2   0     8.531266686792   113.77495803     0.00000000
 O      3   1   2     8.006622150024    61.98735074    19.12007176
 N      3   1   2     4.294311684386    63.02645277   288.94696548
 N      4   3   1     4.268687752669    66.47017463   287.56920334
 N      1   2   3     4.272050005858   107.87515120     0.41619256
 N      4   3   1     4.260740350207   103.87910379   340.78453131
 C      1   2   3     4.492113744210    80.85588621   303.09495867
 C      2   1   3     4.116080626222    77.24593919    61.43604114
 C      5   3   1     2.694089967979   149.43488052    22.94207984
 C      6   4   3     2.665292915323   151.92940849    82.09978417
 C      9   1   2     2.853418078237    93.42971875   281.16642284
 C     10   2   1     2.749969843565   109.19993951   199.98257277
 C      1   2   3     2.287678757132    94.46326787   331.28254371
 C      2   1   3     2.285328907806    57.40341085    26.20338615
 C      3   1   2     2.280404999182    33.03842370   295.41182970
 C      4   3   1     2.266816972245    84.93203652   313.99808651
 H     11   5   3     2.023590802210   111.05338079   193.44696174
 H     12   6   4     2.018467890921   118.85618270   110.11621061
 H     13   9   1     2.049446254998   109.84501670    40.23763338
 H     13   9   1     2.055022821338   110.03056508   159.42494574
 H     13   9   1     2.057734340914   110.99901503   279.39147714
 H     14  10   2     2.069919948811   110.95280989    84.73550369
 H     14  10   2     2.049563767987   114.62235143   209.18930018
 H     14  10   2     2.065408059689   106.74579281   327.80353227
 H      5   3   1     1.883179274226    88.69513720   183.96706688
 H      6   4   3     1.900183204687    83.31909983   306.18599382
 H      7   1   2     1.899907761796    88.58170766   108.60385081
 H      8   4   3     1.909670068772    85.09996915   116.41600179

---------------------
BASIS SET INFORMATION
---------------------
There are 4 groups of distinct atoms

 Group   1 Type O   : 12s7p3d1f contracted to 6s4p3d1f pattern {621111/4111/111/1}
 Group   2 Type N   : 12s6p3d1f contracted to 6s3p3d1f pattern {621111/411/111/1}
 Group   3 Type C   : 12s6p3d1f contracted to 6s3p3d1f pattern {621111/411/111/1}
 Group   4 Type H   : 5s3p1d contracted to 3s3p1d pattern {311/111/1}

Atom   0O    basis set group =>   1
Atom   1O    basis set group =>   1
Atom   2O    basis set group =>   1
Atom   3O    basis set group =>   1
Atom   4N    basis set group =>   2
Atom   5N    basis set group =>   2
Atom   6N    basis set group =>   2
Atom   7N    basis set group =>   2
Atom   8C    basis set group =>   3
Atom   9C    basis set group =>   3
Atom  10C    basis set group =>   3
Atom  11C    basis set group =>   3
Atom  12C    basis set group =>   3
Atom  13C    basis set group =>   3
Atom  14C    basis set group =>   3
Atom  15C    basis set group =>   3
Atom  16C    basis set group =>   3
Atom  17C    basis set group =>   3
Atom  18H    basis set group =>   4
Atom  19H    basis set group =>   4
Atom  20H    basis set group =>   4
Atom  21H    basis set group =>   4
Atom  22H    basis set group =>   4
Atom  23H    basis set group =>   4
Atom  24H    basis set group =>   4
Atom  25H    basis set group =>   4
Atom  26H    basis set group =>   4
Atom  27H    basis set group =>   4
Atom  28H    basis set group =>   4
Atom  29H    basis set group =>   4
---------------------------------
AUXILIARY/J BASIS SET INFORMATION
---------------------------------
There are 4 groups of distinct atoms

 Group   1 Type O   : 12s5p4d2f1g contracted to 6s4p3d1f1g pattern {711111/2111/211/2/1}
 Group   2 Type N   : 12s5p4d2f1g contracted to 6s4p3d1f1g pattern {711111/2111/211/2/1}
 Group   3 Type C   : 12s5p4d2f1g contracted to 6s4p3d1f1g pattern {711111/2111/211/2/1}
 Group   4 Type H   : 5s2p1d contracted to 3s1p1d pattern {311/2/1}

Atom   0O    basis set group =>   1
Atom   1O    basis set group =>   1
Atom   2O    basis set group =>   1
Atom   3O    basis set group =>   1
Atom   4N    basis set group =>   2
Atom   5N    basis set group =>   2
Atom   6N    basis set group =>   2
Atom   7N    basis set group =>   2
Atom   8C    basis set group =>   3
Atom   9C    basis set group =>   3
Atom  10C    basis set group =>   3
Atom  11C    basis set group =>   3
Atom  12C    basis set group =>   3
Atom  13C    basis set group =>   3
Atom  14C    basis set group =>   3
Atom  15C    basis set group =>   3
Atom  16C    basis set group =>   3
Atom  17C    basis set group =>   3
Atom  18H    basis set group =>   4
Atom  19H    basis set group =>   4
Atom  20H    basis set group =>   4
Atom  21H    basis set group =>   4
Atom  22H    basis set group =>   4
Atom  23H    basis set group =>   4
Atom  24H    basis set group =>   4
Atom  25H    basis set group =>   4
Atom  26H    basis set group =>   4
Atom  27H    basis set group =>   4
Atom  28H    basis set group =>   4
Atom  29H    basis set group =>   4
[1739874156.073756] [ohm:4158468:0]        ib_iface.c:1059 UCX  ERROR ibv_create_cq(cqe=256) failed: Connection timed out
[1739874156.077787] [ohm:4158466:0]        ib_iface.c:1059 UCX  ERROR ibv_create_cq(cqe=256) failed: Connection timed out
[1739874156.078475] [ohm:4158471:0]        ib_iface.c:1059 UCX  ERROR ibv_create_cq(cqe=256) failed: Connection timed out
[1739874156.087266] [ohm:4158470:0]        ib_iface.c:1059 UCX  ERROR ibv_create_cq(cqe=256) failed: Connection timed out
[1739874156.089250] [ohm:4158465:0]        ib_iface.c:1059 UCX  ERROR ibv_create_cq(cqe=256) failed: Connection timed out
[1739874156.090474] [ohm:4158469:0]        ib_iface.c:1059 UCX  ERROR ibv_create_cq(cqe=256) failed: Connection timed out
[1739874156.100279] [ohm:4158481:0]        ib_iface.c:1059 UCX  ERROR ibv_create_cq(cqe=256) failed: Connection timed out
[1739874156.100979] [ohm:4158474:0]        ib_iface.c:1059 UCX  ERROR ibv_create_cq(cqe=256) failed: Connection timed out
[1739874156.116893] [ohm:4158476:0]        ib_iface.c:1059 UCX  ERROR ibv_create_cq(cqe=256) failed: Connection timed out
[1739874156.120242] [ohm:4158556:0]        ib_iface.c:1059 UCX  ERROR ibv_create_cq(cqe=256) failed: Connection timed out
[1739874156.127947] [ohm:4158477:0]        ib_iface.c:1059 UCX  ERROR ibv_create_cq(cqe=256) failed: Connection timed out
[1739874156.132953] [ohm:4158475:0]        ib_iface.c:1059 UCX  ERROR ibv_create_cq(cqe=256) failed: Connection timed out
[1739874156.142340] [ohm:4158473:0]        ib_iface.c:1059 UCX  ERROR ibv_create_cq(cqe=256) failed: Connection timed out
[1739874156.167278] [ohm:4158483:0]        ib_iface.c:1059 UCX  ERROR ibv_create_cq(cqe=256) failed: Connection timed out
[1739874156.182316] [ohm:4158485:0]        ib_iface.c:1059 UCX  ERROR ibv_create_cq(cqe=256) failed: Connection timed out
[1739874156.198300] [ohm:4158472:0]        ib_iface.c:1059 UCX  ERROR ibv_create_cq(cqe=256) failed: Connection timed out
[1739874156.206211] [ohm:4158479:0]        ib_iface.c:1059 UCX  ERROR ibv_create_cq(cqe=256) failed: Connection timed out
[1739874156.213436] [ohm:4158560:0]        ib_iface.c:1059 UCX  ERROR ibv_create_cq(cqe=256) failed: Connection timed out
[1739874156.215557] [ohm:4158501:0]        ib_iface.c:1059 UCX  ERROR ibv_create_cq(cqe=256) failed: Connection timed out
[1739874156.224702] [ohm:4158488:0]        ib_iface.c:1059 UCX  ERROR ibv_create_cq(cqe=256) failed: Connection timed out
[1739874156.225856] [ohm:4158565:0]        ib_iface.c:1059 UCX  ERROR ibv_create_cq(cqe=256) failed: Connection timed out
[1739874156.226386] [ohm:4158495:0]        ib_iface.c:1059 UCX  ERROR ibv_create_cq(cqe=256) failed: Connection timed out
[1739874156.228017] [ohm:4158486:0]        ib_iface.c:1059 UCX  ERROR ibv_create_cq(cqe=256) failed: Connection timed out
[1739874156.233218] [ohm:4158511:0]        ib_iface.c:1059 UCX  ERROR ibv_create_cq(cqe=256) failed: Connection timed out
[1739874156.234627] [ohm:4158593:0]        ib_iface.c:1059 UCX  ERROR ibv_create_cq(cqe=256) failed: Connection timed out
[1739874156.234607] [ohm:4158564:0]        ib_iface.c:1059 UCX  ERROR ibv_create_cq(cqe=256) failed: Connection timed out
[1739874156.238002] [ohm:4158543:0]        ib_iface.c:1059 UCX  ERROR ibv_create_cq(cqe=256) failed: Connection timed out
[1739874156.241727] [ohm:4158571:0]        ib_iface.c:1059 UCX  ERROR ibv_create_cq(cqe=256) failed: Connection timed out
[1739874156.248434] [ohm:4158492:0]        ib_iface.c:1059 UCX  ERROR ibv_create_cq(cqe=256) failed: Connection timed out
[1739874156.253265] [ohm:4158532:0]        ib_iface.c:1059 UCX  ERROR ibv_create_cq(cqe=256) failed: Connection timed out
[1739874156.253668] [ohm:4158507:0]        ib_iface.c:1059 UCX  ERROR ibv_create_cq(cqe=256) failed: Connection timed out
[1739874156.255822] [ohm:4158538:0]        ib_iface.c:1059 UCX  ERROR ibv_create_cq(cqe=256) failed: Connection timed out
[1739874156.261880] [ohm:4158514:0]        ib_iface.c:1059 UCX  ERROR ibv_create_cq(cqe=256) failed: Connection timed out
[1739874156.283173] [ohm:4158589:0]        ib_iface.c:1059 UCX  ERROR ibv_create_cq(cqe=256) failed: Connection timed out
[1739874156.299278] [ohm:4158519:0]        ib_iface.c:1059 UCX  ERROR ibv_create_cq(cqe=256) failed: Connection timed out
[1739874156.303216] [ohm:4158559:0]        ib_iface.c:1059 UCX  ERROR ibv_create_cq(cqe=256) failed: Connection timed out
[1739874156.304358] [ohm:4158487:0]        ib_iface.c:1059 UCX  ERROR ibv_create_cq(cqe=256) failed: Connection timed out
[1739874156.305959] [ohm:4158516:0]        ib_iface.c:1059 UCX  ERROR ibv_create_cq(cqe=256) failed: Connection timed out
[1739874156.308216] [ohm:4158606:0]        ib_iface.c:1059 UCX  ERROR ibv_create_cq(cqe=256) failed: Connection timed out
[1739874156.313927] [ohm:4158490:0]        ib_iface.c:1059 UCX  ERROR ibv_create_cq(cqe=256) failed: Connection timed out
[1739874156.319518] [ohm:4158578:0]        ib_iface.c:1059 UCX  ERROR ibv_create_cq(cqe=256) failed: Connection timed out
[1739874156.321263] [ohm:4158602:0]        ib_iface.c:1059 UCX  ERROR ibv_create_cq(cqe=256) failed: Connection timed out
[1739874156.321848] [ohm:4158540:0]        ib_iface.c:1059 UCX  ERROR ibv_create_cq(cqe=256) failed: Connection timed out
[1739874156.334309] [ohm:4158491:0]        ib_iface.c:1059 UCX  ERROR ibv_create_cq(cqe=256) failed: Connection timed out
[1739874156.335336] [ohm:4158580:0]        ib_iface.c:1059 UCX  ERROR ibv_create_cq(cqe=256) failed: Connection timed out
[1739874156.336999] [ohm:4158480:0]        ib_iface.c:1059 UCX  ERROR ibv_create_cq(cqe=256) failed: Connection timed out
[1739874156.339759] [ohm:4158489:0]        ib_iface.c:1059 UCX  ERROR ibv_create_cq(cqe=256) failed: Connection timed out
[1739874156.347400] [ohm:4158610:0]        ib_iface.c:1059 UCX  ERROR ibv_create_cq(cqe=256) failed: Connection timed out
[1739874156.350651] [ohm:4158482:0]        ib_iface.c:1059 UCX  ERROR ibv_create_cq(cqe=256) failed: Connection timed out
[1739874156.352440] [ohm:4158467:0]        ib_iface.c:1059 UCX  ERROR ibv_create_cq(cqe=256) failed: Connection timed out
[1739874156.354174] [ohm:4158478:0]        ib_iface.c:1059 UCX  ERROR ibv_create_cq(cqe=256) failed: Connection timed out
[1739874156.354944] [ohm:4158595:0]        ib_iface.c:1059 UCX  ERROR ibv_create_cq(cqe=256) failed: Connection timed out
[1739874156.356319] [ohm:4158570:0]        ib_iface.c:1059 UCX  ERROR ibv_create_cq(cqe=256) failed: Connection timed out
[1739874156.359806] [ohm:4158552:0]        ib_iface.c:1059 UCX  ERROR ibv_create_cq(cqe=256) failed: Connection timed out
[1739874156.361340] [ohm:4158522:0]        ib_iface.c:1059 UCX  ERROR ibv_create_cq(cqe=256) failed: Connection timed out
[1739874156.362277] [ohm:4158600:0]        ib_iface.c:1059 UCX  ERROR ibv_create_cq(cqe=256) failed: Connection timed out
[1739874156.364241] [ohm:4158527:0]        ib_iface.c:1059 UCX  ERROR ibv_create_cq(cqe=256) failed: Connection timed out
[1739874156.365146] [ohm:4158536:0]        ib_iface.c:1059 UCX  ERROR ibv_create_cq(cqe=256) failed: Connection timed out
[1739874156.365797] [ohm:4158613:0]        ib_iface.c:1059 UCX  ERROR ibv_create_cq(cqe=256) failed: Connection timed out
[1739874156.366526] [ohm:4158499:0]        ib_iface.c:1059 UCX  ERROR ibv_create_cq(cqe=256) failed: Connection timed out
[1739874156.367931] [ohm:4158585:0]        ib_iface.c:1059 UCX  ERROR ibv_create_cq(cqe=256) failed: Connection timed out
[1739874156.368316] [ohm:4158547:0]        ib_iface.c:1059 UCX  ERROR ibv_create_cq(cqe=256) failed: Connection timed out
[1739874156.368472] [ohm:4158550:0]        ib_iface.c:1059 UCX  ERROR ibv_create_cq(cqe=256) failed: Connection timed out
[1739874156.368674] [ohm:4158484:0]        ib_iface.c:1059 UCX  ERROR ibv_create_cq(cqe=256) failed: Connection timed out


           ************************************************************
           *        Program running with 64 parallel MPI-processes    *
           *              working on a common directory               *
           ************************************************************
------------------------------------------------------------------------------
                             ORCA STARTUP CALCULATIONS
                           -- RI-GTO INTEGRALS CHOSEN --
------------------------------------------------------------------------------
------------------------------------------------------------------------------
                   ___                                                        
                  /   \      - P O W E R E D   B Y -                         
                 /     \                                                     
                 |  |  |   _    _      __       _____    __    __             
                 |  |  |  | |  | |    /  \     |  _  \  |  |  /  |          
                  \  \/   | |  | |   /    \    | | | |  |  | /  /          
                 / \  \   | |__| |  /  /\  \   | |_| |  |  |/  /          
                |  |  |   |  __  | /  /__\  \  |    /   |      \           
                |  |  |   | |  | | |   __   |  |    \   |  |\   \          
                \     /   | |  | | |  |  |  |  | |\  \  |  | \   \       
                 \___/    |_|  |_| |__|  |__|  |_| \__\ |__|  \__/        
                                                                              
                      - O R C A' S   B I G   F R I E N D -                    
                                      &                                       
                       - I N T E G R A L  F E E D E R -                       
                                                                              
 v1 FN, 2020, v2 2021, v3 2022-2024                                           
------------------------------------------------------------------------------


----------------------
SHARK INTEGRAL PACKAGE
----------------------

Number of atoms                             ...     30
Number of basis functions                   ...    882
Number of shells                            ...    322
Maximum angular momentum                    ...      3
Integral batch strategy                     ... SHARK/LIBINT Hybrid
RI-J (if used) integral strategy            ... SPLIT-RIJ (Revised 2003 algorithm where possible)
Printlevel                                  ...      1
Contraction scheme used                     ... SEGMENTED contraction
Prescreening option                         ... SCHWARTZ
   Thresh                                   ... 2.500e-11
   Tcut                                     ... 2.500e-12
   Tpresel                                  ... 2.500e-12 
Coulomb Range Separation                    ... NOT USED
Exchange Range Separation                   ... Long Range
   Mu parameter                             ... 3.000e-01
   Scaling (regular/separated)              ... 1.500e-01 8.500e-01
Multipole approximations                    ... NOT USED
Finite Nucleus Model                        ... NOT USED
CABS basis                                  ... NOT available
Auxiliary Coulomb fitting basis             ... AVAILABLE
   # of basis functions in Aux-J            ...   1014
   # of shells in Aux-J                     ...    330
   Maximum angular momentum in Aux-J        ...      4
Auxiliary J/K fitting basis                 ... NOT available
Auxiliary Correlation fitting basis         ... NOT available
Auxiliary 'external' fitting basis          ... NOT available

Checking pre-screening integrals            ... done (  0.0 sec) Dimension = 322
Check shell pair data                       ... done (  0.0 sec)
Shell pair information
Shell pair cut-off parameter TPreSel        ...   2.5e-12
Total number of shell pairs                 ...     52003
Shell pairs after pre-screening             ...     44510
Total number of primitive shell pairs       ...    129718
Primitive shell pairs kept                  ...     82920
          la=0 lb=0:   8621 shell pairs
          la=1 lb=0:  11780 shell pairs
          la=1 lb=1:   4074 shell pairs
          la=2 lb=0:   7996 shell pairs
          la=2 lb=1:   5524 shell pairs
          la=2 lb=2:   1908 shell pairs
          la=3 lb=0:   2039 shell pairs
          la=3 lb=1:   1442 shell pairs
          la=3 lb=2:    990 shell pairs
          la=3 lb=3:    136 shell pairs

Calculating one electron integrals          ... done (  0.2 sec)
Calculating RI/J V-Matrix + Cholesky decomp.... done (  0.1 sec)
Calculating Nuclear repulsion               ... done (  0.0 sec) ENN=   1426.946655663682 Eh

Diagonalization of the overlap matrix:
Smallest eigenvalue                        ... 4.144e-07
Time for diagonalization                   ...    0.126 sec
Threshold for overlap eigenvalues          ... 1.000e-07
Number of eigenvalues below threshold      ... 0

IMPORTANT:
Smallest eigenvalue of S below the DiffSThresh (1.000e-06) while
Thresh>1e-12 and/or TCut>1e-13! In order to avoid SCF convergence issues,
Thresh will be set to at least 1e-12 and TCut to at least 1e-13.
This can be turned off by adding %SCF DiffSThresh -1 END to the input.

Time for construction of square roots      ...    0.134 sec
Total time needed                          ...    0.275 sec

-------------------
DFT GRID GENERATION
-------------------

General Integration Accuracy     IntAcc      ... 4.388
Radial Grid Type                 RadialGrid  ... OptM3 with GC (2021)
Angular Grid (max. ang.)         AngularGrid ... 4 (Lebedev-302)
Angular grid pruning method      GridPruning ... 4 (adaptive)
Weight generation scheme         WeightScheme... mBecke (2022)
Basis function cutoff            BFCut       ... 1.0000e-11
Integration weight cutoff        WCut        ... 1.0000e-14
Partially contracted basis set               ... off
Rotationally invariant grid construction     ... off
Angular grids for H and He will be reduced by one unit
Diffuse basis detected: some atoms will have their outermost
                        angular grid increased by 1.

Total number of grid points                  ...   152250
Total number of batches                      ...     2391
Average number of points per batch           ...       63
Average number of grid points per atom       ...     5075

--------------------
COSX GRID GENERATION
--------------------

GRIDX 1
-------
General Integration Accuracy     IntAcc      ... 3.816
Radial Grid Type                 RadialGrid  ... OptM3 with GC (2021)
Angular Grid (max. ang.)         AngularGrid ... 1 (Lebedev-50)
Angular grid pruning method      GridPruning ... 4 (adaptive)
Weight generation scheme         WeightScheme... mBecke (2022)
Basis function cutoff            BFCut       ... 1.0000e-11
Integration weight cutoff        WCut        ... 1.0000e-14
Partially contracted basis set               ... on
Rotationally invariant grid construction     ... off
Angular grids for H and He will be reduced by one unit
Diffuse basis detected: some atoms will have their outermost
                        angular grid increased by 1.

Total number of grid points                  ...    19058
Total number of batches                      ...      165
Average number of points per batch           ...      115
Average number of grid points per atom       ...      635
UseSFitting                                  ... on

GRIDX 2
-------
General Integration Accuracy     IntAcc      ... 4.020
Radial Grid Type                 RadialGrid  ... OptM3 with GC (2021)
Angular Grid (max. ang.)         AngularGrid ... 2 (Lebedev-110)
Angular grid pruning method      GridPruning ... 4 (adaptive)
Weight generation scheme         WeightScheme... mBecke (2022)
Basis function cutoff            BFCut       ... 1.0000e-11
Integration weight cutoff        WCut        ... 1.0000e-14
Partially contracted basis set               ... on
Rotationally invariant grid construction     ... off
Angular grids for H and He will be reduced by one unit
Diffuse basis detected: some atoms will have their outermost
                        angular grid increased by 1.

Total number of grid points                  ...    46009
Total number of batches                      ...      376
Average number of points per batch           ...      122
Average number of grid points per atom       ...     1534
UseSFitting                                  ... on

GRIDX 3
-------
General Integration Accuracy     IntAcc      ... 4.338
Radial Grid Type                 RadialGrid  ... OptM3 with GC (2021)
Angular Grid (max. ang.)         AngularGrid ... 3 (Lebedev-194)
Angular grid pruning method      GridPruning ... 4 (adaptive)
Weight generation scheme         WeightScheme... mBecke (2022)
Basis function cutoff            BFCut       ... 1.0000e-11
Integration weight cutoff        WCut        ... 1.0000e-14
Partially contracted basis set               ... on
Rotationally invariant grid construction     ... off
Angular grids for H and He will be reduced by one unit
Diffuse basis detected: some atoms will have their outermost
                        angular grid increased by 1.

Total number of grid points                  ...   101254
Total number of batches                      ...      805
Average number of points per batch           ...      125
Average number of grid points per atom       ...     3375
UseSFitting                                  ... on
Initializing property integral containers    ... done (  0.0 sec)

SHARK setup successfully completed in   4.1 seconds

Maximum memory used throughout the entire STARTUP-calculation: 79.4 MB
[1739874162.429779] [ohm:4158829:0]        ib_iface.c:1059 UCX  ERROR ibv_create_cq(cqe=256) failed: Connection timed out
[1739874162.431158] [ohm:4158830:0]        ib_iface.c:1059 UCX  ERROR ibv_create_cq(cqe=256) failed: Connection timed out
[1739874162.440519] [ohm:4158828:0]        ib_iface.c:1059 UCX  ERROR ibv_create_cq(cqe=256) failed: Connection timed out
[1739874162.509716] [ohm:4158847:0]        ib_iface.c:1059 UCX  ERROR ibv_create_cq(cqe=256) failed: Connection timed out
[1739874162.513942] [ohm:4158831:0]        ib_iface.c:1059 UCX  ERROR ibv_create_cq(cqe=256) failed: Connection timed out
[1739874162.515562] [ohm:4158833:0]        ib_iface.c:1059 UCX  ERROR ibv_create_cq(cqe=256) failed: Connection timed out
[1739874162.517014] [ohm:4158832:0]        ib_iface.c:1059 UCX  ERROR ibv_create_cq(cqe=256) failed: Connection timed out
[1739874162.518382] [ohm:4158851:0]        ib_iface.c:1059 UCX  ERROR ibv_create_cq(cqe=256) failed: Connection timed out
[1739874162.525344] [ohm:4158834:0]        ib_iface.c:1059 UCX  ERROR ibv_create_cq(cqe=256) failed: Connection timed out
[1739874162.527093] [ohm:4158845:0]        ib_iface.c:1059 UCX  ERROR ibv_create_cq(cqe=256) failed: Connection timed out
[1739874162.554348] [ohm:4158844:0]        ib_iface.c:1059 UCX  ERROR ibv_create_cq(cqe=256) failed: Connection timed out
[1739874162.581724] [ohm:4158836:0]        ib_iface.c:1059 UCX  ERROR ibv_create_cq(cqe=256) failed: Connection timed out
[1739874162.589689] [ohm:4158843:0]        ib_iface.c:1059 UCX  ERROR ibv_create_cq(cqe=256) failed: Connection timed out
[1739874162.600983] [ohm:4158853:0]        ib_iface.c:1059 UCX  ERROR ibv_create_cq(cqe=256) failed: Connection timed out
[1739874162.605378] [ohm:4158881:0]        ib_iface.c:1059 UCX  ERROR ibv_create_cq(cqe=256) failed: Connection timed out
[1739874162.617932] [ohm:4158885:0]        ib_iface.c:1059 UCX  ERROR ibv_create_cq(cqe=256) failed: Connection timed out
[1739874162.624036] [ohm:4158854:0]        ib_iface.c:1059 UCX  ERROR ibv_create_cq(cqe=256) failed: Connection timed out
[1739874162.628033] [ohm:4158840:0]        ib_iface.c:1059 UCX  ERROR ibv_create_cq(cqe=256) failed: Connection timed out
[1739874162.629812] [ohm:4158883:0]        ib_iface.c:1059 UCX  ERROR ibv_create_cq(cqe=256) failed: Connection timed out
[1739874162.630177] [ohm:4158948:0]        ib_iface.c:1059 UCX  ERROR ibv_create_cq(cqe=256) failed: Connection timed out
[1739874162.654590] [ohm:4158835:0]        ib_iface.c:1059 UCX  ERROR ibv_create_cq(cqe=256) failed: Connection timed out
[1739874162.657273] [ohm:4158939:0]        ib_iface.c:1059 UCX  ERROR ibv_create_cq(cqe=256) failed: Connection timed out
[1739874162.658317] [ohm:4158932:0]        ib_iface.c:1059 UCX  ERROR ibv_create_cq(cqe=256) failed: Connection timed out
[1739874162.661398] [ohm:4158842:0]        ib_iface.c:1059 UCX  ERROR ibv_create_cq(cqe=256) failed: Connection timed out
[1739874162.671068] [ohm:4158927:0]        ib_iface.c:1059 UCX  ERROR ibv_create_cq(cqe=256) failed: Connection timed out
[1739874162.672191] [ohm:4158919:0]        ib_iface.c:1059 UCX  ERROR ibv_create_cq(cqe=256) failed: Connection timed out
[1739874162.672265] [ohm:4158849:0]        ib_iface.c:1059 UCX  ERROR ibv_create_cq(cqe=256) failed: Connection timed out
[1739874162.679658] [ohm:4158909:0]        ib_iface.c:1059 UCX  ERROR ibv_create_cq(cqe=256) failed: Connection timed out
[1739874162.680571] [ohm:4158955:0]        ib_iface.c:1059 UCX  ERROR ibv_create_cq(cqe=256) failed: Connection timed out
[1739874162.682658] [ohm:4158850:0]        ib_iface.c:1059 UCX  ERROR ibv_create_cq(cqe=256) failed: Connection timed out
[1739874162.698695] [ohm:4158906:0]        ib_iface.c:1059 UCX  ERROR ibv_create_cq(cqe=256) failed: Connection timed out
[1739874162.698734] [ohm:4158946:0]        ib_iface.c:1059 UCX  ERROR ibv_create_cq(cqe=256) failed: Connection timed out
[1739874162.702819] [ohm:4158936:0]        ib_iface.c:1059 UCX  ERROR ibv_create_cq(cqe=256) failed: Connection timed out
[1739874162.706788] [ohm:4158933:0]        ib_iface.c:1059 UCX  ERROR ibv_create_cq(cqe=256) failed: Connection timed out
[1739874162.711908] [ohm:4158848:0]        ib_iface.c:1059 UCX  ERROR ibv_create_cq(cqe=256) failed: Connection timed out
[1739874162.714908] [ohm:4158852:0]        ib_iface.c:1059 UCX  ERROR ibv_create_cq(cqe=256) failed: Connection timed out
[1739874162.730000] [ohm:4158861:0]        ib_iface.c:1059 UCX  ERROR ibv_create_cq(cqe=256) failed: Connection timed out
[1739874162.737114] [ohm:4158926:0]        ib_iface.c:1059 UCX  ERROR ibv_create_cq(cqe=256) failed: Connection timed out
[1739874162.740189] [ohm:4158897:0]        ib_iface.c:1059 UCX  ERROR ibv_create_cq(cqe=256) failed: Connection timed out
[1739874162.740332] [ohm:4158877:0]        ib_iface.c:1059 UCX  ERROR ibv_create_cq(cqe=256) failed: Connection timed out
[1739874162.746342] [ohm:4158951:0]        ib_iface.c:1059 UCX  ERROR ibv_create_cq(cqe=256) failed: Connection timed out
[1739874162.748489] [ohm:4158878:0]        ib_iface.c:1059 UCX  ERROR ibv_create_cq(cqe=256) failed: Connection timed out
[1739874162.757063] [ohm:4158901:0]        ib_iface.c:1059 UCX  ERROR ibv_create_cq(cqe=256) failed: Connection timed out
[1739874162.766438] [ohm:4158923:0]        ib_iface.c:1059 UCX  ERROR ibv_create_cq(cqe=256) failed: Connection timed out
[1739874162.772920] [ohm:4158855:0]        ib_iface.c:1059 UCX  ERROR ibv_create_cq(cqe=256) failed: Connection timed out
[1739874162.774866] [ohm:4158870:0]        ib_iface.c:1059 UCX  ERROR ibv_create_cq(cqe=256) failed: Connection timed out
[1739874162.776654] [ohm:4158875:0]        ib_iface.c:1059 UCX  ERROR ibv_create_cq(cqe=256) failed: Connection timed out
[1739874162.783155] [ohm:4158888:0]        ib_iface.c:1059 UCX  ERROR ibv_create_cq(cqe=256) failed: Connection timed out
[1739874162.783662] [ohm:4158871:0]        ib_iface.c:1059 UCX  ERROR ibv_create_cq(cqe=256) failed: Connection timed out
[1739874162.785776] [ohm:4158974:0]        ib_iface.c:1059 UCX  ERROR ibv_create_cq(cqe=256) failed: Connection timed out
[1739874162.788483] [ohm:4158841:0]        ib_iface.c:1059 UCX  ERROR ibv_create_cq(cqe=256) failed: Connection timed out
[1739874162.789354] [ohm:4158892:0]        ib_iface.c:1059 UCX  ERROR ibv_create_cq(cqe=256) failed: Connection timed out
[1739874162.791737] [ohm:4158916:0]        ib_iface.c:1059 UCX  ERROR ibv_create_cq(cqe=256) failed: Connection timed out
[1739874162.791776] [ohm:4158913:0]        ib_iface.c:1059 UCX  ERROR ibv_create_cq(cqe=256) failed: Connection timed out
[1739874162.792723] [ohm:4158981:0]        ib_iface.c:1059 UCX  ERROR ibv_create_cq(cqe=256) failed: Connection timed out
[1739874162.794699] [ohm:4158960:0]        ib_iface.c:1059 UCX  ERROR ibv_create_cq(cqe=256) failed: Connection timed out
[1739874162.795895] [ohm:4158827:0]        ib_iface.c:1059 UCX  ERROR ibv_create_cq(cqe=256) failed: Connection timed out
[1739874162.799394] [ohm:4158839:0]        ib_iface.c:1059 UCX  ERROR ibv_create_cq(cqe=256) failed: Connection timed out
[1739874162.799488] [ohm:4158846:0]        ib_iface.c:1059 UCX  ERROR ibv_create_cq(cqe=256) failed: Connection timed out
[1739874162.800699] [ohm:4158942:0]        ib_iface.c:1059 UCX  ERROR ibv_create_cq(cqe=256) failed: Connection timed out
[1739874162.800964] [ohm:4158969:0]        ib_iface.c:1059 UCX  ERROR ibv_create_cq(cqe=256) failed: Connection timed out
[1739874162.802044] [ohm:4158864:0]        ib_iface.c:1059 UCX  ERROR ibv_create_cq(cqe=256) failed: Connection timed out
[1739874162.802275] [ohm:4158838:0]        ib_iface.c:1059 UCX  ERROR ibv_create_cq(cqe=256) failed: Connection timed out
[1739874162.802920] [ohm:4158837:0]        ib_iface.c:1059 UCX  ERROR ibv_create_cq(cqe=256) failed: Connection timed out


           ************************************************************
           *        Program running with 64 parallel MPI-processes    *
           *              working on a common directory               *
           ************************************************************
-------------------------------------------------------------------------------
                                 ORCA GUESS
                   Start orbitals & Density for SCF / CASSCF
-------------------------------------------------------------------------------

------------
SCF SETTINGS
------------
Hamiltonian:
 Density Functional     Method          .... DFT(GTOs)
  Functional kind                       .... Exchange-Correlation
  Functional name                       .... wB97M-V exchange-correlation functional
  Functional family                     .... Hybrid MGGA
  Functional refs                              
    [ 0] N. Mardirossian and M. Head-Gordon.,  J. Chem. Phys. 144, 214110 (2016), doi: 10.1063/1.4952647
  Fraction of HF Exchange (short range) .... 0.1500
  Fraction of HF Exchange (long range)  .... 1.0000
  Range separation parameter mu         .... 0.3000
  Functional external parameters        .... 17
    Parameter  0 _cx00      =  8.500000e-01 : u^00 coefficient for exchange
    Parameter  1 _cx01      =  1.007000e+00 : u^01 coefficient for exchange
    Parameter  2 _cx10      =  2.590000e-01 : u^10 coefficient for exchange
    Parameter  3 _css00     =  4.430000e-01 : u^00 coefficient for same-spin correlation
    Parameter  4 _css04     = -1.437000e+00 : u^04 coefficient for same-spin correlation
    Parameter  5 _css10     = -4.535000e+00 : u^10 coefficient for same-spin correlation
    Parameter  6 _css20     = -3.390000e+00 : u^20 coefficient for same-spin correlation
    Parameter  7 _css43     =  4.278000e+00 : u^43 coefficient for same-spin correlation
    Parameter  8 _cos00     =  1.000000e+00 : u^00 coefficient for opposite-spin correlation
    Parameter  9 _cos10     =  1.358000e+00 : u^10 coefficient for opposite-spin correlation
    Parameter 10 _cos20     =  2.924000e+00 : u^20 coefficient for opposite-spin correlation
    Parameter 11 _cos21     = -8.812000e+00 : u^21 coefficient for opposite-spin correlation
    Parameter 12 _cos60     = -1.390000e+00 : u^60 coefficient for opposite-spin correlation
    Parameter 13 _cos61     =  9.142000e+00 : u^61 coefficient for opposite-spin correlation
    Parameter 14 _alpha     =  1.000000e+00 : fraction of HF exchange
    Parameter 15 _beta      = -8.500000e-01 : fraction of short-range exchange
    Parameter 16 _omega     =  3.000000e-01 : range-separation constant
 Long-range corrected/Screened/Range-Separated Hybrid DFT is turned on
   Amount of maximum screened exact exchange              ....  0.850000
   Range separation parameter mu (erf(mu*r12)/r12)        ....  0.300000
 RI-approximation to the Coulomb term is turned on
   Number of AuxJ basis functions       .... 1014
   RIJ-COSX (HFX calculated with COS-X)).... on


General Settings:
 Integral files         IntName         .... orca
 Hartree-Fock type      HFTyp           .... UHF
 Total Charge           Charge          ....    0
 Multiplicity           Mult            ....    3
 Number of Electrons    NEL             ....  132
 Basis Dimension        Dim             ....  882
 Nuclear Repulsion      ENuc            ....   1426.9466556637 Eh

Convergence Acceleration:
 AO-DIIS                CNVDIIS         .... on
   Start iteration      DIISMaxIt       ....    12
   Startup error        DIISStart       ....  0.200000
   # of expansion vecs  DIISMaxEq       ....     5
   Bias factor          DIISBfac        ....   1.050
   Max. coefficient     DIISMaxC        ....  10.000
 MO-DIIS                CNVKDIIS        .... off
 Trust-Rad. Augm. Hess. CNVTRAH         .... auto
   Auto Start mean grad. ratio tolernc. ....  1.125000
   Auto Start start iteration           ....    50
   Auto Start num. interpolation iter.  ....    10
   Max. Number of Micro iterations      ....    24
   Max. Number of Macro iterations      .... Maxiter - #DIIS iter
   Number of Davidson start vectors     ....     2
   Converg. threshold    (grad. norm)   ....   1.000e-05
   Grad. Scal. Fac. for Micro threshold ....   0.100
   Minimum threshold for Micro iter.    ....   1.000e-02
   NR start threshold (gradient norm)   ....   1.000e-04
   Initial trust radius                 ....   0.400
   Minimum AH scaling param. (alpha)    ....   1.000
   Maximum AH scaling param. (alpha)    .... 1000.000
   Quad. conv. algorithm                .... NR
   White noise on init. David. guess    .... on
   Maximum white noise                  ....   0.010
   Pseudo random numbers                .... off
   Inactive MOs                         .... canonical
   Orbital update algorithm             .... Taylor
   Preconditioner                       .... Diag
   Full preconditioner red. dimension   ....   250
 SOSCF                  CNVSOSCF        .... on
   Start iteration      SOSCFMaxIt      ....   150
   Startup grad/error   SOSCFStart      ....  0.003300
   Hessian update       SOSCFHessUp     .... L-BFGS
 Level Shifting         CNVShift        .... on
   Level shift para.    LevelShift      ....    0.2500
   Turn off err/grad.   ShiftErr        ....    0.0010
 Zerner damping         CNVZerner       .... off
 Static damping         CNVDamp         .... on
   Fraction old density DampFac         ....    0.7000
   Max. Damping (<1)    DampMax         ....    0.9800
   Min. Damping (>=0)   DampMin         ....    0.0000
   Turn off err/grad.   DampErr         ....    0.1000

SCF Procedure:
 Maximum # iterations   MaxIter         ....   125
 SCF integral mode      SCFMode         .... Direct
   Integral package                     .... SHARK and LIBINT hybrid scheme
 Reset frequency        DirectResetFreq ....    20
 Integral Threshold     Thresh          ....  1.000e-12 Eh
 Primitive CutOff       TCut            ....  1.000e-13 Eh

Convergence Tolerance:
 Convergence Check Mode ConvCheckMode   .... Total+1el-Energy
 Convergence forced     ConvForced      .... 1
 Energy Change          TolE            ....  1.000e-08 Eh
 1-El. energy change                    ....  1.000e-05 Eh
 Orbital Gradient       TolG            ....  1.000e-05
 Orbital Rotation angle TolX            ....  1.000e-05
 DIIS Error             TolErr          ....  5.000e-07

------------------------------
INITIAL GUESS: MODEL POTENTIAL
------------------------------
Loading Hartree-Fock densities                     ... done
Calculating cut-offs                               ... done
Initializing the effective Hamiltonian             ... done
Setting up the integral package (SHARK)            ... done
Starting the Coulomb interaction                   ... done (   0.1 sec)
Making the grid                                    ... done (   0.2 sec)
Mapping shells                                     ... done
Starting the XC term evaluation                    ... done (   0.1 sec)
  promolecular density results
     # of electrons  =    131.993977504
     EX              =   -113.534149000
     EC              =     -4.479144620
     EX+EC           =   -118.013293620
Transforming the Hamiltonian                       ... done (   0.1 sec)
Diagonalizing the Hamiltonian                      ... done (   0.1 sec)
Back transforming the eigenvectors                 ... done (   0.1 sec)
Now organizing SCF variables                       ... done
                      ------------------
                      INITIAL GUESS DONE (   1.1 sec)
                      ------------------
             **** ENERGY FILE WAS UPDATED (orca.en.tmp) ****
Finished Guess after   3.7 sec
Maximum memory used throughout the entire GUESS-calculation: 71.7 MB
[1739874166.782568] [ohm:4159189:0]        ib_iface.c:1059 UCX  ERROR ibv_create_cq(cqe=256) failed: Connection timed out
[1739874166.787960] [ohm:4159182:0]        ib_iface.c:1059 UCX  ERROR ibv_create_cq(cqe=256) failed: Connection timed out
[1739874166.836734] [ohm:4159185:0]        ib_iface.c:1059 UCX  ERROR ibv_create_cq(cqe=256) failed: Connection timed out
[1739874166.839979] [ohm:4159188:0]        ib_iface.c:1059 UCX  ERROR ibv_create_cq(cqe=256) failed: Connection timed out
[1739874166.850802] [ohm:4159202:0]        ib_iface.c:1059 UCX  ERROR ibv_create_cq(cqe=256) failed: Connection timed out
[1739874166.860194] [ohm:4159201:0]        ib_iface.c:1059 UCX  ERROR ibv_create_cq(cqe=256) failed: Connection timed out
[1739874166.870414] [ohm:4159194:0]        ib_iface.c:1059 UCX  ERROR ibv_create_cq(cqe=256) failed: Connection timed out
[1739874166.890298] [ohm:4159209:0]        ib_iface.c:1059 UCX  ERROR ibv_create_cq(cqe=256) failed: Connection timed out
[1739874166.891552] [ohm:4159184:0]        ib_iface.c:1059 UCX  ERROR ibv_create_cq(cqe=256) failed: Connection timed out
[1739874166.898345] [ohm:4159278:0]        ib_iface.c:1059 UCX  ERROR ibv_create_cq(cqe=256) failed: Connection timed out
[1739874166.898607] [ohm:4159236:0]        ib_iface.c:1059 UCX  ERROR ibv_create_cq(cqe=256) failed: Connection timed out
[1739874166.952490] [ohm:4159239:0]        ib_iface.c:1059 UCX  ERROR ibv_create_cq(cqe=256) failed: Connection timed out
[1739874166.956283] [ohm:4159208:0]        ib_iface.c:1059 UCX  ERROR ibv_create_cq(cqe=256) failed: Connection timed out
[1739874166.965472] [ohm:4159196:0]        ib_iface.c:1059 UCX  ERROR ibv_create_cq(cqe=256) failed: Connection timed out
[1739874166.968096] [ohm:4159205:0]        ib_iface.c:1059 UCX  ERROR ibv_create_cq(cqe=256) failed: Connection timed out
[1739874166.985466] [ohm:4159314:0]        ib_iface.c:1059 UCX  ERROR ibv_create_cq(cqe=256) failed: Connection timed out
[1739874167.001741] [ohm:4159213:0]        ib_iface.c:1059 UCX  ERROR ibv_create_cq(cqe=256) failed: Connection timed out
[1739874167.003061] [ohm:4159256:0]        ib_iface.c:1059 UCX  ERROR ibv_create_cq(cqe=256) failed: Connection timed out
[1739874167.019285] [ohm:4159210:0]        ib_iface.c:1059 UCX  ERROR ibv_create_cq(cqe=256) failed: Connection timed out
[1739874167.026737] [ohm:4159287:0]        ib_iface.c:1059 UCX  ERROR ibv_create_cq(cqe=256) failed: Connection timed out
[1739874167.033657] [ohm:4159192:0]        ib_iface.c:1059 UCX  ERROR ibv_create_cq(cqe=256) failed: Connection timed out
[1739874167.037844] [ohm:4159218:0]        ib_iface.c:1059 UCX  ERROR ibv_create_cq(cqe=256) failed: Connection timed out
[1739874167.040517] [ohm:4159315:0]        ib_iface.c:1059 UCX  ERROR ibv_create_cq(cqe=256) failed: Connection timed out
[1739874167.047817] [ohm:4159302:0]        ib_iface.c:1059 UCX  ERROR ibv_create_cq(cqe=256) failed: Connection timed out
[1739874167.058873] [ohm:4159199:0]        ib_iface.c:1059 UCX  ERROR ibv_create_cq(cqe=256) failed: Connection timed out
[1739874167.064186] [ohm:4159269:0]        ib_iface.c:1059 UCX  ERROR ibv_create_cq(cqe=256) failed: Connection timed out
[1739874167.065368] [ohm:4159308:0]        ib_iface.c:1059 UCX  ERROR ibv_create_cq(cqe=256) failed: Connection timed out
[1739874167.067988] [ohm:4159223:0]        ib_iface.c:1059 UCX  ERROR ibv_create_cq(cqe=256) failed: Connection timed out
[1739874167.070511] [ohm:4159290:0]        ib_iface.c:1059 UCX  ERROR ibv_create_cq(cqe=256) failed: Connection timed out
[1739874167.073159] [ohm:4159319:0]        ib_iface.c:1059 UCX  ERROR ibv_create_cq(cqe=256) failed: Connection timed out
[1739874167.095910] [ohm:4159240:0]        ib_iface.c:1059 UCX  ERROR ibv_create_cq(cqe=256) failed: Connection timed out
[1739874167.098346] [ohm:4159310:0]        ib_iface.c:1059 UCX  ERROR ibv_create_cq(cqe=256) failed: Connection timed out
[1739874167.100137] [ohm:4159249:0]        ib_iface.c:1059 UCX  ERROR ibv_create_cq(cqe=256) failed: Connection timed out
[1739874167.106707] [ohm:4159293:0]        ib_iface.c:1059 UCX  ERROR ibv_create_cq(cqe=256) failed: Connection timed out
[1739874167.115005] [ohm:4159297:0]        ib_iface.c:1059 UCX  ERROR ibv_create_cq(cqe=256) failed: Connection timed out
[1739874167.116139] [ohm:4159304:0]        ib_iface.c:1059 UCX  ERROR ibv_create_cq(cqe=256) failed: Connection timed out
[1739874167.128821] [ohm:4159262:0]        ib_iface.c:1059 UCX  ERROR ibv_create_cq(cqe=256) failed: Connection timed out
[1739874167.129289] [ohm:4159187:0]        ib_iface.c:1059 UCX  ERROR ibv_create_cq(cqe=256) failed: Connection timed out
[1739874167.131157] [ohm:4159206:0]        ib_iface.c:1059 UCX  ERROR ibv_create_cq(cqe=256) failed: Connection timed out
[1739874167.132993] [ohm:4159244:0]        ib_iface.c:1059 UCX  ERROR ibv_create_cq(cqe=256) failed: Connection timed out
[1739874167.140083] [ohm:4159272:0]        ib_iface.c:1059 UCX  ERROR ibv_create_cq(cqe=256) failed: Connection timed out
[1739874167.140758] [ohm:4159190:0]        ib_iface.c:1059 UCX  ERROR ibv_create_cq(cqe=256) failed: Connection timed out
[1739874167.142779] [ohm:4159203:0]        ib_iface.c:1059 UCX  ERROR ibv_create_cq(cqe=256) failed: Connection timed out
[1739874167.143712] [ohm:4159193:0]        ib_iface.c:1059 UCX  ERROR ibv_create_cq(cqe=256) failed: Connection timed out
[1739874167.155009] [ohm:4159277:0]        ib_iface.c:1059 UCX  ERROR ibv_create_cq(cqe=256) failed: Connection timed out
[1739874167.156517] [ohm:4159183:0]        ib_iface.c:1059 UCX  ERROR ibv_create_cq(cqe=256) failed: Connection timed out
[1739874167.157405] [ohm:4159264:0]        ib_iface.c:1059 UCX  ERROR ibv_create_cq(cqe=256) failed: Connection timed out
[1739874167.157793] [ohm:4159195:0]        ib_iface.c:1059 UCX  ERROR ibv_create_cq(cqe=256) failed: Connection timed out
[1739874167.161455] [ohm:4159198:0]        ib_iface.c:1059 UCX  ERROR ibv_create_cq(cqe=256) failed: Connection timed out
[1739874167.161592] [ohm:4159204:0]        ib_iface.c:1059 UCX  ERROR ibv_create_cq(cqe=256) failed: Connection timed out
[1739874167.167604] [ohm:4159207:0]        ib_iface.c:1059 UCX  ERROR ibv_create_cq(cqe=256) failed: Connection timed out
[1739874167.170469] [ohm:4159300:0]        ib_iface.c:1059 UCX  ERROR ibv_create_cq(cqe=256) failed: Connection timed out
[1739874167.171633] [ohm:4159216:0]        ib_iface.c:1059 UCX  ERROR ibv_create_cq(cqe=256) failed: Connection timed out
[1739874167.171756] [ohm:4159211:0]        ib_iface.c:1059 UCX  ERROR ibv_create_cq(cqe=256) failed: Connection timed out
[1739874167.171978] [ohm:4159273:0]        ib_iface.c:1059 UCX  ERROR ibv_create_cq(cqe=256) failed: Connection timed out
[1739874167.172935] [ohm:4159232:0]        ib_iface.c:1059 UCX  ERROR ibv_create_cq(cqe=256) failed: Connection timed out
[1739874167.173805] [ohm:4159197:0]        ib_iface.c:1059 UCX  ERROR ibv_create_cq(cqe=256) failed: Connection timed out
[1739874167.177167] [ohm:4159322:0]        ib_iface.c:1059 UCX  ERROR ibv_create_cq(cqe=256) failed: Connection timed out
[1739874167.177489] [ohm:4159191:0]        ib_iface.c:1059 UCX  ERROR ibv_create_cq(cqe=256) failed: Connection timed out
[1739874167.177679] [ohm:4159200:0]        ib_iface.c:1059 UCX  ERROR ibv_create_cq(cqe=256) failed: Connection timed out
[1739874167.178189] [ohm:4159226:0]        ib_iface.c:1059 UCX  ERROR ibv_create_cq(cqe=256) failed: Connection timed out
[1739874167.182255] [ohm:4159251:0]        ib_iface.c:1059 UCX  ERROR ibv_create_cq(cqe=256) failed: Connection timed out
[1739874167.183469] [ohm:4159186:0]        ib_iface.c:1059 UCX  ERROR ibv_create_cq(cqe=256) failed: Connection timed out
[1739874167.183715] [ohm:4159282:0]        ib_iface.c:1059 UCX  ERROR ibv_create_cq(cqe=256) failed: Connection timed out


           ************************************************************
           *        Program running with 64 parallel MPI-processes    *
           *              working on a common directory               *
           ************************************************************

-------------------------------------------------------------------------------------------
                                      ORCA LEAN-SCF
                              memory conserving SCF solver
-------------------------------------------------------------------------------------------

----------------------------------------D-I-I-S--------------------------------------------
Iteration    Energy (Eh)           Delta-E    RMSDP     MaxDP     DIISErr   Damp  Time(sec)
-------------------------------------------------------------------------------------------
               ***  Starting incremental Fock matrix formation  ***
    1    -908.0282108808110024     0.00e+00  1.40e-03  2.53e-01  1.46e-01  0.700   7.7
    2    -908.2921710871423784    -2.64e-01  1.11e-03  1.97e-01  6.98e-02  0.700   6.5
                               ***Turning on AO-DIIS***
    3    -908.4090431123509006    -1.17e-01  7.94e-04  1.45e-01  2.83e-02  0.700   5.8
    4    -908.4811175956801890    -7.21e-02  1.83e-03  3.30e-01  1.86e-02  0.000   5.7
    5    -908.6436053804250150    -1.62e-01  1.99e-04  6.37e-02  5.38e-03  0.000   6.0
                              *** Initializing SOSCF ***
---------------------------------------S-O-S-C-F--------------------------------------
Iteration    Energy (Eh)           Delta-E    RMSDP     MaxDP     MaxGrad    Time(sec)
--------------------------------------------------------------------------------------
    6    -908.6450687521632972    -1.46e-03  9.11e-05  1.43e-02  2.78e-03     6.4
               *** Restarting incremental Fock matrix formation ***
    7    -908.6457434764733989    -6.75e-04  1.81e-04  2.56e-02  3.98e-03     7.4
    8    -908.6461265730945343    -3.83e-04  1.63e-04  2.31e-02  2.03e-03     6.6
    9    -908.6462171907032825    -9.06e-05  1.06e-04  1.26e-02  7.90e-04     6.6
   10    -908.6463050364272931    -8.78e-05  1.18e-05  1.58e-03  3.62e-04     6.4
   11    -908.6463099648590287    -4.93e-06  6.82e-06  8.01e-04  3.07e-04     6.1
   12    -908.6463122575964917    -2.29e-06  5.98e-06  1.07e-03  1.65e-04     6.0
   13    -908.6463131182431425    -8.61e-07  2.04e-06  4.66e-04  2.37e-05     6.0
   14    -908.6463132129165388    -9.47e-08  9.54e-07  1.80e-04  2.01e-05     5.7
   15    -908.6463132177523221    -4.84e-09  1.27e-06  3.57e-04  6.13e-06     5.6
                 **** Energy Check signals convergence ****

               *****************************************************
               *                     SUCCESS                       *
               *           SCF CONVERGED AFTER  15 CYCLES          *
               *****************************************************

Recomputing exchange energy using gridx3       ... done (    7.787 sec)
Old exchange energy                            :    -35.033498442 Eh
New exchange energy                            :    -35.033480868 Eh
Exchange energy change after final integration :      0.000017574 Eh
Total energy after final integration           :   -908.646295643 Eh
             **** ENERGY FILE WAS UPDATED (orca.en.tmp) ****

----------------
TOTAL SCF ENERGY
----------------

Total Energy       :       -908.64629564333643 Eh          -24725.52273 eV

Components:
Nuclear Repulsion  :       1426.94665566368167 Eh           38829.19254 eV
Electronic Energy  :      -2335.59296888143399 Eh          -63554.71574 eV
One Electron Energy:      -4070.88274371513307 Eh         -110774.35112 eV
Two Electron Energy:       1735.28977483369908 Eh           47219.63537 eV

Virial components:
Potential Energy   :      -1814.51162691744548 Eh          -49375.37156 eV
Kinetic Energy     :        905.86533127410917 Eh           24649.84884 eV
Virial Ratio       :          2.00306995341715

DFT components:
N(Alpha)           :       67.000034751956 electrons
N(Beta)            :       65.000044269888 electrons
N(Total)           :      132.000079021844 electrons
E(XC)              :      -86.256068819999 Eh       

---------------
SCF CONVERGENCE
---------------

  Last Energy change         ...    4.8358e-09  Tolerance :   1.0000e-08
  Last MAX-Density change    ...    3.5705e-04  Tolerance :   1.0000e-07
  Last RMS-Density change    ...    1.2744e-06  Tolerance :   5.0000e-09
  Last DIIS Error            ...    2.7785e-03  Tolerance :   5.0000e-07
  Last Orbital Gradient      ...    6.1271e-06  Tolerance :   1.0000e-05
  Last Orbital Rotation      ...    2.7043e-05  Tolerance :   1.0000e-05


----------------------
UHF SPIN CONTAMINATION
----------------------

Warning: in a DFT calculation there is little theoretical justification to 
         calculate <S**2> as in Hartree-Fock theory. We will do it anyways
         but you should keep in mind that the values have only limited relevance

Expectation value of <S**2>     :     2.010254
Ideal value S*(S+1) for S=1.0   :     2.000000
Deviation                       :     0.010254

----------------
ORBITAL ENERGIES
----------------
                 SPIN UP ORBITALS
  NO   OCC          E(Eh)            E(eV) 
   0   1.0000     -19.337775      -526.2076 
   1   1.0000     -19.329276      -525.9763 
   2   1.0000     -19.328886      -525.9657 
   3   1.0000     -19.322477      -525.7913 
   4   1.0000     -14.569977      -396.4692 
   5   1.0000     -14.567734      -396.4082 
   6   1.0000     -14.564922      -396.3317 
   7   1.0000     -14.564429      -396.3183 
   8   1.0000     -10.514686      -286.1192 
   9   1.0000     -10.509266      -285.9717 
  10   1.0000     -10.485196      -285.3167 
  11   1.0000     -10.484765      -285.3050 
  12   1.0000     -10.443576      -284.1842 
  13   1.0000     -10.441191      -284.1192 
  14   1.0000     -10.415070      -283.4085 
  15   1.0000     -10.402093      -283.0554 
  16   1.0000     -10.374922      -282.3160 
  17   1.0000     -10.366748      -282.0936 
  18   1.0000      -1.229436       -33.4546 
  19   1.0000      -1.221796       -33.2468 
  20   1.0000      -1.211396       -32.9638 
  21   1.0000      -1.197214       -32.5779 
  22   1.0000      -1.124476       -30.5985 
  23   1.0000      -1.092766       -29.7357 
  24   1.0000      -1.070348       -29.1257 
  25   1.0000      -1.062797       -28.9202 
  26   1.0000      -0.988494       -26.8983 
  27   1.0000      -0.943533       -25.6748 
  28   1.0000      -0.879977       -23.9454 
  29   1.0000      -0.824899       -22.4466 
  30   1.0000      -0.814884       -22.1741 
  31   1.0000      -0.806592       -21.9485 
  32   1.0000      -0.790578       -21.5127 
  33   1.0000      -0.779539       -21.2123 
  34   1.0000      -0.720681       -19.6107 
  35   1.0000      -0.697926       -18.9915 
  36   1.0000      -0.691829       -18.8256 
  37   1.0000      -0.662095       -18.0165 
  38   1.0000      -0.640091       -17.4178 
  39   1.0000      -0.633885       -17.2489 
  40   1.0000      -0.615056       -16.7365 
  41   1.0000      -0.605936       -16.4884 
  42   1.0000      -0.602019       -16.3818 
  43   1.0000      -0.592570       -16.1246 
  44   1.0000      -0.579530       -15.7698 
  45   1.0000      -0.570388       -15.5210 
  46   1.0000      -0.567536       -15.4434 
  47   1.0000      -0.561392       -15.2763 
  48   1.0000      -0.557348       -15.1662 
  49   1.0000      -0.553849       -15.0710 
  50   1.0000      -0.550175       -14.9710 
  51   1.0000      -0.545491       -14.8436 
  52   1.0000      -0.531604       -14.4657 
  53   1.0000      -0.514883       -14.0107 
  54   1.0000      -0.511781       -13.9263 
  55   1.0000      -0.495859       -13.4930 
  56   1.0000      -0.442690       -12.0462 
  57   1.0000      -0.427195       -11.6246 
  58   1.0000      -0.417513       -11.3611 
  59   1.0000      -0.409552       -11.1445 
  60   1.0000      -0.404417       -11.0048 
  61   1.0000      -0.397249       -10.8097 
  62   1.0000      -0.394432       -10.7331 
  63   1.0000      -0.388044       -10.5592 
  64   1.0000      -0.382620       -10.4116 
  65   1.0000      -0.358593        -9.7578 
  66   1.0000      -0.306843        -8.3496 
  67   0.0000       0.009042         0.2460 
  68   0.0000       0.018751         0.5102 
  69   0.0000       0.031538         0.8582 
  70   0.0000       0.035347         0.9618 
  71   0.0000       0.041305         1.1240 
  72   0.0000       0.054488         1.4827 
  73   0.0000       0.058805         1.6002 
  74   0.0000       0.061208         1.6655 
  75   0.0000       0.064455         1.7539 
  76   0.0000       0.065519         1.7829 
  77   0.0000       0.070745         1.9251 

                 SPIN DOWN ORBITALS
  NO   OCC          E(Eh)            E(eV) 
   0   1.0000     -19.332483      -526.0636 
   1   1.0000     -19.329214      -525.9747 
   2   1.0000     -19.328869      -525.9653 
   3   1.0000     -19.322471      -525.7912 
   4   1.0000     -14.570008      -396.4701 
   5   1.0000     -14.567633      -396.4054 
   6   1.0000     -14.564824      -396.3290 
   7   1.0000     -14.564403      -396.3176 
   8   1.0000     -10.514716      -286.1200 
   9   1.0000     -10.509268      -285.9717 
  10   1.0000     -10.485220      -285.3173 
  11   1.0000     -10.485218      -285.3173 
  12   1.0000     -10.443362      -284.1783 
  13   1.0000     -10.440644      -284.1044 
  14   1.0000     -10.414792      -283.4009 
  15   1.0000     -10.375293      -282.3261 
  16   1.0000     -10.374909      -282.3156 
  17   1.0000     -10.366661      -282.0912 
  18   1.0000      -1.228026       -33.4163 
  19   1.0000      -1.221446       -33.2372 
  20   1.0000      -1.203872       -32.7590 
  21   1.0000      -1.197132       -32.5756 
  22   1.0000      -1.124194       -30.5909 
  23   1.0000      -1.092177       -29.7196 
  24   1.0000      -1.069305       -29.0973 
  25   1.0000      -1.062202       -28.9040 
  26   1.0000      -0.987843       -26.8806 
  27   1.0000      -0.914485       -24.8844 
  28   1.0000      -0.879452       -23.9311 
  29   1.0000      -0.823290       -22.4029 
  30   1.0000      -0.810660       -22.0592 
  31   1.0000      -0.801229       -21.8025 
  32   1.0000      -0.787154       -21.4196 
  33   1.0000      -0.774318       -21.0703 
  34   1.0000      -0.714055       -19.4304 
  35   1.0000      -0.695805       -18.9338 
  36   1.0000      -0.687723       -18.7139 
  37   1.0000      -0.659673       -17.9506 
  38   1.0000      -0.636440       -17.3184 
  39   1.0000      -0.627827       -17.0841 
  40   1.0000      -0.611790       -16.6477 
  41   1.0000      -0.601517       -16.3681 
  42   1.0000      -0.589191       -16.0327 
  43   1.0000      -0.585448       -15.9309 
  44   1.0000      -0.574798       -15.6410 
  45   1.0000      -0.563978       -15.3466 
  46   1.0000      -0.558341       -15.1932 
  47   1.0000      -0.555898       -15.1268 
  48   1.0000      -0.553590       -15.0640 
  49   1.0000      -0.550601       -14.9826 
  50   1.0000      -0.540627       -14.7112 
  51   1.0000      -0.536508       -14.5991 
  52   1.0000      -0.531006       -14.4494 
  53   1.0000      -0.511489       -13.9183 
  54   1.0000      -0.503547       -13.7022 
  55   1.0000      -0.495094       -13.4722 
  56   1.0000      -0.430016       -11.7013 
  57   1.0000      -0.425741       -11.5850 
  58   1.0000      -0.417215       -11.3530 
  59   1.0000      -0.402756       -10.9595 
  60   1.0000      -0.394873       -10.7450 
  61   1.0000      -0.393122       -10.6974 
  62   1.0000      -0.386813       -10.5257 
  63   1.0000      -0.383012       -10.4223 
  64   1.0000      -0.355938        -9.6856 
  65   0.0000      -0.058280        -1.5859 
  66   0.0000       0.007271         0.1979 
  67   0.0000       0.014889         0.4051 
  68   0.0000       0.029516         0.8032 
  69   0.0000       0.032804         0.8926 
  70   0.0000       0.036285         0.9874 
  71   0.0000       0.043267         1.1774 
  72   0.0000       0.056678         1.5423 
  73   0.0000       0.058445         1.5904 
  74   0.0000       0.061608         1.6764 
  75   0.0000       0.063980         1.7410 
*Only the first 10 virtual orbitals were printed.

                    ********************************
                    * MULLIKEN POPULATION ANALYSIS *
                    ********************************

--------------------------------------------
MULLIKEN ATOMIC CHARGES AND SPIN POPULATIONS
--------------------------------------------
   0 O :   -0.670179    0.002240
   1 O :   -0.590927    0.172794
   2 O :   -0.639710    0.000140
   3 O :   -0.631919    0.000859
   4 N :   -0.223758    0.002848
   5 N :   -0.134713    0.001612
   6 N :    0.015315    0.001130
   7 N :    0.052069    0.004137
   8 C :    1.136464    0.004456
   9 C :   -0.121962    1.518745
  10 C :    0.373861    0.009284
  11 C :   -0.755973    0.034677
  12 C :   -1.675627    0.001663
  13 C :   -1.153511    0.050351
  14 C :    0.268591   -0.003089
  15 C :    0.908386    0.085992
  16 C :    0.429934   -0.000427
  17 C :    0.454832   -0.003414
  18 H :    0.311158    0.001577
  19 H :    0.508443    0.016229
  20 H :    0.297147    0.000646
  21 H :    0.334176   -0.000255
  22 H :    0.401474    0.003395
  23 H :    0.277408    0.031502
  24 H :    0.302062    0.029624
  25 H :    0.366845    0.031819
  26 H :    0.027318    0.000189
  27 H :    0.097824    0.000079
  28 H :    0.025836    0.000035
  29 H :    0.009137    0.001165
Sum of atomic charges         :   -0.0000000
Sum of atomic spin populations:    2.0000000

-----------------------------------------------------
MULLIKEN REDUCED ORBITAL CHARGES AND SPIN POPULATIONS
-----------------------------------------------------
CHARGE
  0 O s       :     4.096449  s :     4.096449
      pz      :     1.426460  p :     4.542363
      px      :     1.380461
      py      :     1.735441
      dz2     :     0.009168  d :     0.029425
      dxz     :     0.007556
      dyz     :     0.006053
      dx2y2   :     0.005777
      dxy     :     0.000872
      f0      :     0.000353  f :     0.001942
      f+1     :     0.000375
      f-1     :     0.000272
      f+2     :     0.000391
      f-2     :     0.000335
      f+3     :     0.000122
      f-3     :     0.000095

  1 O s       :     4.078070  s :     4.078070
[...]
[1739874428.727975] [ohm:4161594:0]        ib_iface.c:1059 UCX  ERROR ibv_create_cq(cqe=256) failed: Connection timed out
[1739874428.728228] [ohm:4161585:0]        ib_iface.c:1059 UCX  ERROR ibv_create_cq(cqe=256) failed: Connection timed out
[1739874428.728349] [ohm:4161589:0]        ib_iface.c:1059 UCX  ERROR ibv_create_cq(cqe=256) failed: Connection timed out
[1739874428.728430] [ohm:4161613:0]        ib_iface.c:1059 UCX  ERROR ibv_create_cq(cqe=256) failed: Connection timed out
[1739874428.728719] [ohm:4161555:0]        ib_iface.c:1059 UCX  ERROR ibv_create_cq(cqe=256) failed: Connection timed out
[1739874428.728650] [ohm:4161561:0]        ib_iface.c:1059 UCX  ERROR ibv_create_cq(cqe=256) failed: Connection timed out
[1739874428.729201] [ohm:4161590:0]        ib_iface.c:1059 UCX  ERROR ibv_create_cq(cqe=256) failed: Connection timed out
[1739874428.729359] [ohm:4161582:0]        ib_iface.c:1059 UCX  ERROR ibv_create_cq(cqe=256) failed: Connection timed out
[1739874428.729567] [ohm:4161559:0]        ib_iface.c:1059 UCX  ERROR ibv_create_cq(cqe=256) failed: Connection timed out
[1739874428.729576] [ohm:4161563:0]        ib_iface.c:1059 UCX  ERROR ibv_create_cq(cqe=256) failed: Connection timed out


           ************************************************************
           *        Program running with 64 parallel MPI-processes    *
           *              working on a common directory               *
           ************************************************************

------------------------------------------------------------------------------
                              ORCA PROPERTY CALCULATIONS
------------------------------------------------------------------------------

GBWName                                 ... orca.gbw
Number of atoms                         ...     30
Number of basis functions               ...    882
Max core memory                         ...   1024 MB

Electric properties:
Dipole moment                           ... YES
Quadrupole moment                       ...  NO
Static polarizability (Dipole/Dipole)   ...  NO
Static polarizability (Dipole/Quad.)    ...  NO
Static polarizability (Quad./Quad.)     ...  NO
Static polarizability (Velocity)        ...  NO

Atomic electric properties:
Dipole moment                           ...  NO
Quadrupole moment                       ...  NO
Static polarizability                   ...  NO

Choice of electric origin               ... Center of mass
Position of electric origin             ...     0.173484    -0.001360     0.055886

General magnetic properties:
Magnetizability                         ...  NO

EPR properties:
g-Tensor (aka g-matrix)                 ...  NO
Zero-Field splitting spin-orbit         ...  NO
Zero-field splitting spin-spin          ...  NO
Hyperfine couplings                     ...  NO (   0 nuclei)
Quadrupole couplings                    ...  NO (   0 nuclei)
Contact density                         ...  NO (   0 nuclei)

NMR properties:
Chemical shifts                         ...  NO (   0 nuclei)
Spin-rotation constants                 ...  NO (   0 nuclei)
Spin-spin couplings                     ...  NO (   0 nuclei,    0 pairs)

Choice of magnetic origin               ... GIAO
Position of magnetic origin             ...     0.000000     0.000000     0.000000

Properties with geometric perturbations:
SCF Hessian                             ...  NO
IR spectrum                             ...  NO
VCD spectrum                            ...  NO
X-ray spectroscopy properties:
SCF XES/XAS/RIXS spectra                ...  NO


-------------
DIPOLE MOMENT
-------------

Method             : SCF
Type of density    : Electron Density
Multiplicity       :   3
Irrep              :   0
Energy             :  -908.6462956433364297 Eh
Relativity type    : 
Basis              : AO
                                X                 Y                 Z
Electronic contribution:      0.182883479      -9.792129664      -6.133421620
Nuclear contribution   :     -0.506152563      10.824872189       8.725544721
                        -----------------------------------------
Total Dipole Moment    :     -0.323269084       1.032742525       2.592123101
                        -----------------------------------------
Magnitude (a.u.)       :      2.808943252
Magnitude (Debye)      :      7.139766341



--------------------
Rotational spectrum 
--------------------
 
Rotational constants in cm-1:             0.022621             0.012119             0.011089 
Rotational constants in MHz :           678.165240           363.329246           332.428859 

Dipole components along the rotational axes: 
x,y,z [a.u.] :     0.135526     1.324323     2.473452 
x,y,z [Debye]:     0.344479     3.366162     6.287015 

 

-------------
DIPOLE MOMENT
-------------

Method             : TDA/CIS
Type of density    : Electron Density
Level              : Relaxed density
State              :   1
Multiplicity       :   3
Irrep              :   0
Energy             :     0.0000000000000000 Eh
Relativity type    : 
Basis              : AO
                                X                 Y                 Z
Electronic contribution:     -0.202355992      -9.817788612      -6.264423820
Nuclear contribution   :     -0.506152563      10.824872189       8.725544721
                        -----------------------------------------
Total Dipole Moment    :     -0.708508555       1.007083577       2.461120901
                        -----------------------------------------
Magnitude (a.u.)       :      2.751966169
Magnitude (Debye)      :      6.994942104



--------------------
Rotational spectrum 
--------------------
 
Rotational constants in cm-1:             0.022621             0.012119             0.011089 
Rotational constants in MHz :           678.165240           363.329246           332.428859 

Dipole components along the rotational axes: 
x,y,z [a.u.] :     0.257694     0.947710     2.570750 
x,y,z [Debye]:     0.655007     2.408888     6.534328 

 

Dipole moment calculation done in   0.2 sec 

Maximum memory used throughout the entire PROP-calculation: 81.0 MB
[1739874431.147388] [ohm:4161906:0]        ib_iface.c:1059 UCX  ERROR ibv_create_cq(cqe=256) failed: Connection timed out
[1739874431.153526] [ohm:4161905:0]        ib_iface.c:1059 UCX  ERROR ibv_create_cq(cqe=256) failed: Connection timed out
[1739874431.154271] [ohm:4161914:0]        ib_iface.c:1059 UCX  ERROR ibv_create_cq(cqe=256) failed: Connection timed out
[1739874431.163906] [ohm:4161910:0]        ib_iface.c:1059 UCX  ERROR ibv_create_cq(cqe=256) failed: Connection timed out
[1739874431.164189] [ohm:4161911:0]        ib_iface.c:1059 UCX  ERROR ibv_create_cq(cqe=256) failed: Connection timed out
[1739874431.165760] [ohm:4161909:0]        ib_iface.c:1059 UCX  ERROR ibv_create_cq(cqe=256) failed: Connection timed out
[1739874431.169385] [ohm:4161907:0]        ib_iface.c:1059 UCX  ERROR ibv_create_cq(cqe=256) failed: Connection timed out
[1739874431.175364] [ohm:4161908:0]        ib_iface.c:1059 UCX  ERROR ibv_create_cq(cqe=256) failed: Connection timed out
[1739874431.221075] [ohm:4161922:0]        ib_iface.c:1059 UCX  ERROR ibv_create_cq(cqe=256) failed: Connection timed out
[1739874431.228565] [ohm:4161916:0]        ib_iface.c:1059 UCX  ERROR ibv_create_cq(cqe=256) failed: Connection timed out
[1739874431.230081] [ohm:4162007:0]        ib_iface.c:1059 UCX  ERROR ibv_create_cq(cqe=256) failed: Connection timed out
[1739874431.231685] [ohm:4161921:0]        ib_iface.c:1059 UCX  ERROR ibv_create_cq(cqe=256) failed: Connection timed out
[1739874431.236240] [ohm:4161923:0]        ib_iface.c:1059 UCX  ERROR ibv_create_cq(cqe=256) failed: Connection timed out
[1739874431.257990] [ohm:4161934:0]        ib_iface.c:1059 UCX  ERROR ibv_create_cq(cqe=256) failed: Connection timed out
[1739874431.270926] [ohm:4161918:0]        ib_iface.c:1059 UCX  ERROR ibv_create_cq(cqe=256) failed: Connection timed out
[1739874431.285478] [ohm:4161927:0]        ib_iface.c:1059 UCX  ERROR ibv_create_cq(cqe=256) failed: Connection timed out
[1739874431.289199] [ohm:4161917:0]        ib_iface.c:1059 UCX  ERROR ibv_create_cq(cqe=256) failed: Connection timed out
[1739874431.289505] [ohm:4161941:0]        ib_iface.c:1059 UCX  ERROR ibv_create_cq(cqe=256) failed: Connection timed out
[1739874431.293863] [ohm:4161925:0]        ib_iface.c:1059 UCX  ERROR ibv_create_cq(cqe=256) failed: Connection timed out
[1739874431.308547] [ohm:4162004:0]        ib_iface.c:1059 UCX  ERROR ibv_create_cq(cqe=256) failed: Connection timed out
[1739874431.311873] [ohm:4161912:0]        ib_iface.c:1059 UCX  ERROR ibv_create_cq(cqe=256) failed: Connection timed out
[1739874431.319839] [ohm:4162036:0]        ib_iface.c:1059 UCX  ERROR ibv_create_cq(cqe=256) failed: Connection timed out
[1739874431.320663] [ohm:4161988:0]        ib_iface.c:1059 UCX  ERROR ibv_create_cq(cqe=256) failed: Connection timed out
[1739874431.322238] [ohm:4161960:0]        ib_iface.c:1059 UCX  ERROR ibv_create_cq(cqe=256) failed: Connection timed out
[1739874431.326184] [ohm:4161952:0]        ib_iface.c:1059 UCX  ERROR ibv_create_cq(cqe=256) failed: Connection timed out
[1739874431.326907] [ohm:4161999:0]        ib_iface.c:1059 UCX  ERROR ibv_create_cq(cqe=256) failed: Connection timed out
[1739874431.333493] [ohm:4161963:0]        ib_iface.c:1059 UCX  ERROR ibv_create_cq(cqe=256) failed: Connection timed out
[1739874431.359104] [ohm:4162009:0]        ib_iface.c:1059 UCX  ERROR ibv_create_cq(cqe=256) failed: Connection timed out
[1739874431.368940] [ohm:4161970:0]        ib_iface.c:1059 UCX  ERROR ibv_create_cq(cqe=256) failed: Connection timed out
[1739874431.378960] [ohm:4161919:0]        ib_iface.c:1059 UCX  ERROR ibv_create_cq(cqe=256) failed: Connection timed out
[1739874431.391744] [ohm:4162021:0]        ib_iface.c:1059 UCX  ERROR ibv_create_cq(cqe=256) failed: Connection timed out
[1739874431.396453] [ohm:4161920:0]        ib_iface.c:1059 UCX  ERROR ibv_create_cq(cqe=256) failed: Connection timed out
[1739874431.398073] [ohm:4161967:0]        ib_iface.c:1059 UCX  ERROR ibv_create_cq(cqe=256) failed: Connection timed out
[1739874431.400162] [ohm:4162024:0]        ib_iface.c:1059 UCX  ERROR ibv_create_cq(cqe=256) failed: Connection timed out
[1739874431.400968] [ohm:4162029:0]        ib_iface.c:1059 UCX  ERROR ibv_create_cq(cqe=256) failed: Connection timed out
[1739874431.409270] [ohm:4161928:0]        ib_iface.c:1059 UCX  ERROR ibv_create_cq(cqe=256) failed: Connection timed out
[1739874431.411924] [ohm:4161926:0]        ib_iface.c:1059 UCX  ERROR ibv_create_cq(cqe=256) failed: Connection timed out
[1739874431.414466] [ohm:4161945:0]        ib_iface.c:1059 UCX  ERROR ibv_create_cq(cqe=256) failed: Connection timed out
[1739874431.418271] [ohm:4161940:0]        ib_iface.c:1059 UCX  ERROR ibv_create_cq(cqe=256) failed: Connection timed out
[1739874431.418334] [ohm:4161924:0]        ib_iface.c:1059 UCX  ERROR ibv_create_cq(cqe=256) failed: Connection timed out
[1739874431.425245] [ohm:4162063:0]        ib_iface.c:1059 UCX  ERROR ibv_create_cq(cqe=256) failed: Connection timed out
[1739874431.430230] [ohm:4162050:0]        ib_iface.c:1059 UCX  ERROR ibv_create_cq(cqe=256) failed: Connection timed out
[1739874431.434411] [ohm:4162027:0]        ib_iface.c:1059 UCX  ERROR ibv_create_cq(cqe=256) failed: Connection timed out
[1739874431.435872] [ohm:4161957:0]        ib_iface.c:1059 UCX  ERROR ibv_create_cq(cqe=256) failed: Connection timed out
[1739874431.438103] [ohm:4161985:0]        ib_iface.c:1059 UCX  ERROR ibv_create_cq(cqe=256) failed: Connection timed out
[1739874431.440681] [ohm:4161980:0]        ib_iface.c:1059 UCX  ERROR ibv_create_cq(cqe=256) failed: Connection timed out
[1739874431.443714] [ohm:4161913:0]        ib_iface.c:1059 UCX  ERROR ibv_create_cq(cqe=256) failed: Connection timed out
[1739874431.451588] [ohm:4161929:0]        ib_iface.c:1059 UCX  ERROR ibv_create_cq(cqe=256) failed: Connection timed out
[1739874431.451671] [ohm:4162043:0]        ib_iface.c:1059 UCX  ERROR ibv_create_cq(cqe=256) failed: Connection timed out
[1739874431.465263] [ohm:4161991:0]        ib_iface.c:1059 UCX  ERROR ibv_create_cq(cqe=256) failed: Connection timed out
[1739874431.465453] [ohm:4161933:0]        ib_iface.c:1059 UCX  ERROR ibv_create_cq(cqe=256) failed: Connection timed out
[1739874431.468159] [ohm:4161955:0]        ib_iface.c:1059 UCX  ERROR ibv_create_cq(cqe=256) failed: Connection timed out
[1739874431.469721] [ohm:4161949:0]        ib_iface.c:1059 UCX  ERROR ibv_create_cq(cqe=256) failed: Connection timed out
[1739874431.470977] [ohm:4161993:0]        ib_iface.c:1059 UCX  ERROR ibv_create_cq(cqe=256) failed: Connection timed out
[1739874431.475444] [ohm:4162001:0]        ib_iface.c:1059 UCX  ERROR ibv_create_cq(cqe=256) failed: Connection timed out
[1739874431.475479] [ohm:4161915:0]        ib_iface.c:1059 UCX  ERROR ibv_create_cq(cqe=256) failed: Connection timed out
[1739874431.476000] [ohm:4162016:0]        ib_iface.c:1059 UCX  ERROR ibv_create_cq(cqe=256) failed: Connection timed out
[1739874431.476017] [ohm:4161998:0]        ib_iface.c:1059 UCX  ERROR ibv_create_cq(cqe=256) failed: Connection timed out
[1739874431.476188] [ohm:4162015:0]        ib_iface.c:1059 UCX  ERROR ibv_create_cq(cqe=256) failed: Connection timed out
[1739874431.476750] [ohm:4162032:0]        ib_iface.c:1059 UCX  ERROR ibv_create_cq(cqe=256) failed: Connection timed out
[1739874431.477083] [ohm:4161975:0]        ib_iface.c:1059 UCX  ERROR ibv_create_cq(cqe=256) failed: Connection timed out
[1739874431.477177] [ohm:4162069:0]        ib_iface.c:1059 UCX  ERROR ibv_create_cq(cqe=256) failed: Connection timed out
[1739874431.477231] [ohm:4161932:0]        ib_iface.c:1059 UCX  ERROR ibv_create_cq(cqe=256) failed: Connection timed out
[1739874431.477612] [ohm:4162057:0]        ib_iface.c:1059 UCX  ERROR ibv_create_cq(cqe=256) failed: Connection timed out

--------------------------------
SUGGESTED CITATIONS FOR THIS RUN
--------------------------------

Below you find a list of papers that are relevant to this ORCA run
We neither can nor want to force you to cite these papers, but we appreciate if you do
You receive ORCA, which is the product of decades of hard work by many enthusiastic individuals, for free
The only thing we kindly ask in return is that you cite our papers,
We deeply appreciate it, if you show your appreciation for ORCA by not just citing the generic ORCA reference.

Please note that relegating all ORCA citations to the supporting information does *not* help us.
SI sections are not indexed - citations you put there will not count into any citation statistics
But we need these citations in order to attract the funding resources that allow us to do what we are doing

Therefore, if you are a happy ORCA user, please consider citing a few of the papers listed below in the main body of your paper

In addition to the list printed below, the program has created the file orca.bibtex that contains the list in bibtex format
You can import this file easily into all common literature databanks and citation aid programs


List of essential papers. We consider these as the minimum necessary citations

  1. Neese,F.
     Software update: the ORCA program system, version 5.0
     WIRES Comput. Molec. Sci., 2022 12(1)e1606
     doi.org/10.1002/wcms.1606

List of papers to cite with high priority. The work reported in these papers was absolutely
necessary for this run to complete.
Our perspective: the developers of density functionals and basis sets usually get cited in chemistry papers
Good! But without the algorithms to do something with them, the functionals or basis sets would not do anything.
Hence, in our opinion, the algorithm design and method developments papers are equally worthy of getting cited

  1. Neese,F.; Olbrich,G.
     Efficient use of the resolution of the identity approximation in time-dependent density functional calculations with hybrid density functionals
     Chem. Phys. Lett., 2002 362 170-178
     doi.org/10.1016/s0009-2614(02)01053-9
  2. Neese,F.
     An improvement of the resolution of the identity approximation for the formation of the Coulomb matrix
     J. Comp. Chem., 2003 24(14)1740-1747
     doi.org/10.1002/jcc.10318
  3. Neese,F.; Wennmohs,F.; Hansen,A.; Becker,U.
     Efficient, approximate and parallel Hartree-Fock and hybrid DFT calculations. A 'chain-of-spheres' algorithm for the Hartree-Fock exchange
     Chem. Phys., 2009 356(1-3)98-109
     doi.org/10.1016/j.chemphys.2008.10.036
  4. Petrenko,T.; Kossmann,S.; Neese,F.
     Efficient time-dependent density functional theory approximations for hybrid density functionals: Analytical gradients and parallelization
     J. Chem. Phys., 2011 134 054116
     doi.org/10.1063/1.3533441
  5. Helmich-Paris,B.; de Souza,B.; Neese,F.; Izsák,R.
     An improved chain of spheres for exchange algorithm
     J. Chem. Phys., 2021 155 104109
     doi.org/doi: 10.1063/5.0058766.
  6. Neese,F.
     The SHARK Integral Generation and Digestion System
     J. Comp. Chem., 2022  1-16
     doi.org/10.1002/jcc.26942
  7. Lehtola,S.; Steigemann,C.; Oliveira,M.; Marques,M.
     Recent developments in Libxc - A comprehensive library of functionals for density functional theory
     Software X, 2018 7 
     doi.org/10.1016/j.softx.2017.11.002
  8. Grimme,S.; Antony,J.; Ehrlich,S.; Krieg,H.
     A consistent and accurate ab initio parametrization of density functional dispersion correction (DFT-D) for the 94 elements H-Pu
     J. Chem. Phys., 2010 132 154104-XXXX
     doi.org/10.1063/1.3382344
  9. Grimme,S.; Ehrlich,S.; Goerigk,L.
     Effect of the damping function in dispersion corrected density functional theory
     J. Comput. Chem., 2011 32(7)1456-1465
     doi.org/10.1002/jcc.21759

List of suggested additional citations. These are papers that are important in the 'surrounding' of 
of this run, or papers that preceded the highly important papers. If you like your results we are grateful for a citation.

  1. Izsak,R.; Neese,F.
     An overlap fitted chain of spheres exchange method
     J. Chem. Phys., 2011 135 144105
     doi.org/10.1063/1.3646921
  2. Izsak,R.; Hansen,A.; Neese,F.
     The resolution of identity and chain of spheres approximations for the LPNO-CCSD singles Fock term
     Molec. Phys., 2012 110 2413-2417
     doi.org/10.1080/00268976.2012.687466
  3. Neese,F.
     The ORCA program system
     WIRES Comput. Molec. Sci., 2012 2(1)73-78
     doi.org/10.1002/wcms.81
  4. Izsak,R.; Neese,F.; Klopper,W.
     Robust fitting techniques in the chain of spheres approximation to the Fock exchange: The role of the complementary space
     J. Chem. Phys., 2013 139 
     doi.org/10.1063/1.4819264
  5. Neese,F.
     Software update: the ORCA program system, version 4.0
     WIRES Comput. Molec. Sci., 2018 8(1)1-6
     doi.org/10.1002/wcms.1327
  6. Neese,F.; Wennmohs,F.; Becker,U.; Riplinger,C.
     The ORCA quantum chemistry program package
     J. Chem. Phys., 2020 152 Art. No. L224108
     doi.org/10.1063/5.0004608

List of optional additional citations

  1. Neese,F.
     Approximate second-order SCF convergence for spin unrestricted wavefunctions
     Chem. Phys. Lett., 2000 325(1-3)93-98
     doi.org/10.1016/s0009-2614(00)00662-x

Timings for individual modules:

Sum of individual times          ...      275.061 sec (=   4.584 min)
Startup calculation              ...        6.291 sec (=   0.105 min)   2.3 %
SCF iterations                   ...      112.485 sec (=   1.875 min)  40.9 %
Property integrals               ...        4.163 sec (=   0.069 min)   1.5 %
Property calculations            ...        3.589 sec (=   0.060 min)   1.3 %
CIS module                       ...      148.532 sec (=   2.476 min)  54.0 %
                             ****ORCA TERMINATED NORMALLY****
TOTAL RUN TIME: 0 days 0 hours 4 minutes 37 seconds 109 msec
