
                                 *****************
                                 * O   R   C   A *
                                 *****************

                                            #,                                       
                                            ###                                      
                                            ####                                     
                                            #####                                    
                                            ######                                   
                                           ########,                                 
                                     ,,################,,,,,                         
                               ,,#################################,,                 
                          ,,##########################################,,             
                       ,#########################################, ''#####,          
                    ,#############################################,,   '####,        
                  ,##################################################,,,,####,       
                ,###########''''           ''''###############################       
              ,#####''   ,,,,##########,,,,          '''####'''          '####       
            ,##' ,,,,###########################,,,                        '##       
           ' ,,###''''                  '''############,,,                           
         ,,##''                                '''############,,,,        ,,,,,,###''
      ,#''                                            '''#######################'''  
     '                                                          ''''####''''         
             ,#######,   #######,   ,#######,      ##                                
            ,#'     '#,  ##    ##  ,#'     '#,    #''#        ,####,   ,####,        
            ##       ##  ##   ,#'  ##            #'  '#       #'       #'  '#        
            ##       ##  #######   ##           ,######,      #####,   #    #        
            '#,     ,#'  ##    ##  '#,     ,#' ,#      #,     #,   #   #,  ,#        
             '#######'   ##     ##  '#######'  #'      '#     '####' # '####'        



                #########################################################
                #                        -***-                          #
                #          Department of theory and spectroscopy        #
                #                                                       #
                #                      Frank Neese                      #
                #                                                       #
                #     Directorship, Architecture, Infrastructure        #
                #                    SHARK, DRIVERS                     #
                #        Core code/Algorithms in most modules           #
                #                                                       #
                #        Max Planck Institute fuer Kohlenforschung      #
                #                Kaiser Wilhelm Platz 1                 #
                #                 D-45470 Muelheim/Ruhr                 #
                #                      Germany                          #
                #                                                       #
                #                  All rights reserved                  #
                #                        -***-                          #
                #########################################################


                         Program Version 6.0.0  -   RELEASE  -


 With contributions from (in alphabetic order):
   Daniel Aravena         : Magnetic Suceptibility
   Michael Atanasov       : Ab Initio Ligand Field Theory (pilot matlab implementation)
   Alexander A. Auer      : GIAO ZORA, VPT2 properties, NMR spectrum
   Ute Becker             : All parallelization in ORCA, NUMFREQ, NUMCALC
   Giovanni Bistoni       : ED, misc. LED, open-shell LED, HFLD
   Martin Brehm           : Molecular dynamics
   Dmytro Bykov           : pre 5.0 version of the SCF Hessian
   Marcos Casanova-Páez   : Triplet and SCS-CIS(D). UHF-(DLPNO)-IP/EA/STEOM-CCSD. UHF-CVS-IP/STEOM-CCSD
   Vijay G. Chilkuri      : MRCI spin determinant printing, contributions to CSF-ICE
   Pauline Colinet        : FMM embedding
   Dipayan Datta          : RHF DLPNO-CCSD density
   Achintya Kumar Dutta   : EOM-CC, STEOM-CC
   Nicolas Foglia         : Exact transition moments, OPA infrastructure, MCD improvements
   Dmitry Ganyushin       : Spin-Orbit,Spin-Spin,Magnetic field MRCI
   Miquel Garcia          : C-PCM and meta-GGA Hessian, CCSD/C-PCM, Gaussian charge scheme
   Tiago L. C. Gouveia    : GS-ROHF, GS-ROCIS
   Yang Guo               : DLPNO-NEVPT2, F12-NEVPT2, CIM, IAO-localization
   Andreas Hansen         : Spin unrestricted coupled pair/coupled cluster methods
   Ingolf Harden          : AUTO-CI MPn and infrastructure 
   Benjamin Helmich-Paris : MC-RPA, TRAH-(SCF,CASSCF), AVAS, COSX integrals, SCF dyn. polar.
   Lee Huntington         : MR-EOM, pCC
   Robert Izsak           : Overlap fitted RIJCOSX, COSX-SCS-MP3, EOM
   Riya Kayal             : Wick's Theorem for AUTO-CI, AUTO-CI UHF-CCSDT
   Emily Kempfer          : AUTO-CI, RHF CISDT and CCSDT
   Christian Kollmar      : KDIIS, OOCD, Brueckner-CCSD(T), CCSD density, CASPT2, CASPT2-K, improved NEVPT2
   Axel Koslowski         : Symmetry handling
   Simone Kossmann        : Meta GGA functionals, TD-DFT gradient, OOMP2, (MP2 Hessian; deprecated post 5.0)
   Lucas Lang             : DCDCAS
   Marvin Lechner         : AUTO-CI (C++ implementation), FIC-MRCC
   Spencer Leger          : CASSCF response
   Dagmar Lenk            : GEPOL surface, SMD, ORCA-2-JSON
   Dimitrios Liakos       : Extrapolation schemes; Compound Job, initial MDCI parallelization
   Dimitrios Manganas     : Further ROCIS development; embedding schemes. LFT, Crystal Embedding
   Dimitrios Pantazis     : SARC Basis sets
   Anastasios Papadopoulos: AUTO-CI, single reference methods and gradients
   Taras Petrenko         : pre 6.0 DFT Hessian and TD-DFT gradient, (ASA, deprecated), ECA, 1-Electron XAS/XES, NRVS
   Peter Pinski           : DLPNO-MP2, DLPNO-MP2 Gradient
   Christoph Reimann      : Effective Core Potentials
   Marius Retegan         : Local ZFS, SOC
   Christoph Riplinger    : Optimizer, TS searches, QM/MM, DLPNO-CCSD(T), (RO)-DLPNO pert. Triples
   Michael Roemelt        : Original ROCIS implementation
   Masaaki Saitow         : Open-shell DLPNO-CCSD energy and density
   Barbara Sandhoefer     : DKH picture change effects
   Kantharuban Sivalingam : CASSCF convergence/infrastructure, NEVPT2 and variants, FIC-MRCI
   Bernardo de Souza      : ESD, SOC TD-DFT
   Georgi Stoychev        : AutoAux, RI-MP2 NMR, DLPNO-MP2 response, X2C
   Van Anh Tran           : RI-MP2 g-tensors
   Willem Van den Heuvel  : Paramagnetic NMR
   Zikuan Wang            : NOTCH, Electric field optimization 
   Frank Wennmohs         : Technical directorship and infrastructure
   Hang Xu                : AUTO-CI-Response properties 


 We gratefully acknowledge several colleagues who have allowed us to
 interface, adapt or use parts of their codes:
   Stefan Grimme, W. Hujo, H. Kruse, P. Pracht,  : VdW corrections, initial TS optimization,
                  C. Bannwarth, S. Ehlert,         DFT functionals, gCP, sTDA/sTD-DF
                  L. Wittmann, M. Mueller
   Ed Valeev, F. Pavosevic, A. Kumar             : LibInt (2-el integral package), F12 methods
   Garnet Chan, S. Sharma, J. Yang, R. Olivares  : DMRG
   Ulf Ekstrom                                   : XCFun DFT Library
   Mihaly Kallay                                 : mrcc  (arbitrary order and MRCC methods)
   Frank Weinhold                                : gennbo (NPA and NBO analysis)
   Simon Mueller                                 : openCOSMO-RS
   Christopher J. Cramer and Donald G. Truhlar   : smd solvation model
   Lars Goerigk                                  : TD-DFT with DH, B97 family of functionals
   V. Asgeirsson, H. Jonsson                     : NEB implementation
   FAccTs GmbH                                   : IRC, NEB, NEB-TS, DLPNO-Multilevel, CI-OPT
                                                   MM, QMMM, 2- and 3-layer-ONIOM, Crystal-QMMM,
                                                   LR-CPCM, SF, NACMEs, symmetry and pop. for TD-DFT,
                                                   nearIR, NL-DFT gradient (VV10), updates on ESD,
                                                   ML-optimized integration grids, MBIS, APM,
                                                   GOAT, DOCKER, SOLVATOR, interface openCOSMO-RS
   S Lehtola, MJT Oliveira, MAL Marques          : LibXC Library
   Liviu Ungur et al                             : ANISO software


 Your calculation uses the libint2 library for the computation of 2-el integrals
 For citations please refer to: http://libint.valeyev.net

 Your ORCA version has been built with support for libXC version: 6.2.2
 For citations please refer to: https://libxc.gitlab.io

 This ORCA versions uses:
   CBLAS   interface :  Fast vector & matrix operations
   LAPACKE interface :  Fast linear algebra routines
   SCALAPACK package :  Parallel linear algebra routines
   Shared memory     :  Shared parallel matrices
   BLAS/LAPACK       :  OpenBLAS 0.3.27  USE64BITINT DYNAMIC_ARCH NO_AFFINITY Zen SINGLE_THREADED
        Core in use  :  Zen
   Copyright (c) 2011-2014, The OpenBLAS Project


Your calculation utilizes the atom-pairwise dispersion correction
with the Becke-Johnson damping scheme (D3BJ)


Warning: RI is on but no J-basis has been assigned. Assigning Def2/J (nothing to worry about!)
================================================================================

----- Orbital basis set information -----
Your calculation utilizes the basis: def2-TZVPPD
   F. Weigend and R. Ahlrichs, Phys. Chem. Chem. Phys. 7, 3297 (2005).
   D. Rappoport and F. Furche, J. Chem. Phys. 133, 134105 (2010)
   D. Rappoport, J. Chem. Phys. 155, 124102 (2021).

----- AuxJ basis set information -----
Your calculation utilizes the auxiliary basis: def2/J
   F. Weigend, Phys. Chem. Chem. Phys. 8, 1057 (2006).

================================================================================
                                        WARNINGS
                       Please study these warnings very carefully!
================================================================================

Using LibXC functional ID 531 : wB97M-V exchange-correlation functional
[ 1]  N. Mardirossian and M. Head-Gordon.,  J. Chem. Phys. 144, 214110 (2016)
Using LibXC functional ID 531 : wB97M-V exchange-correlation functional
[ 1]  N. Mardirossian and M. Head-Gordon.,  J. Chem. Phys. 144, 214110 (2016)

WARNING: B97M-V or wB97M-V functional requested.
  ===> : libXC variant has now been activated.
         Any manually given DFX/HFX/RangeSep scaling parameters are IGNORED!

Your calculation utilizes LibXC
 by S Lehtola, C Steigemann, MJT Oliveira & MAL Marques
Please cite in your paper:
 S Lehtola, C Steigemann, MJT Oliveira & MAL Marques, SoftwareX, 7, (2018), 1.
   


WARNING: your system is open-shell and RHF/RKS was chosen
  ===> : WILL SWITCH to UHF/UKS

INFO   : Checking CIS options ...

WARNING: CIS/ROCIS methods need fully converged wavefunctions
  ===> : Setting SCFConvForced true
         You can overwrite this default with %scf ConvForced false 


================================================================================
                                       INPUT FILE
================================================================================
NAME = orca.inp
|  1> ! Engrad def2-TZVPPD wB97M-D3BJ 
|  2> %pal nprocs 8 end%pal nprocs 32 end 
|  3>  %tddft nroots 2 Iroot 2 
|  4> sf true 
|  5> end 
|  6> *xyz 0 3 
|  7> O   2.70743496796424 1.143680646347 -0.57070153543621
|  8> O   -0.46952555603099 0.8184239479383 -2.16471650941682
|  9> O   0.85356704433567 -2.90204294700194 -1.49599055935736
| 10> O   -2.69749051451383 -1.6321340401684 0.94113525103285
| 11> N   0.57575150285514 -2.02101205632609 0.58589548916472
| 12> N   -2.09883997537848 0.50554138497479 1.45096836675657
| 13> N   1.82180729435104 -0.89785772558838 -0.98909217696192
| 14> N   -1.66055041058386 -0.35047902261161 -0.63712266319146
| 15> C   1.2932849066841 0.20229800209137 1.08675363305672
| 16> C   -0.73545231654757 1.78818237818748 -0.01288088392824
| 17> C   0.67818552357785 -0.93966290191989 1.42887047583235
| 18> C   -1.4188579315999 1.6583382383599 1.12857449503235
| 19> C   1.55651490731872 1.30171856190975 2.06695823418566
| 20> C   -0.00842580732156 3.03479939802064 -0.40706010709521
| 21> C   2.0018894866173 0.23157726784865 -0.19552810493102
| 22> C   -0.91212493021053 0.75839849438221 -1.03970200794188
| 23> C   1.06508273177656 -2.01327512456532 -0.70299527081644
| 24> C   -2.19521410675508 -0.57931828533301 0.608020258113
| 25> H   0.2204192327719 -1.07598479239935 2.39673909116321
| 26> H   -1.42178024983427 2.42379292384505 1.8890170473425
| 27> H   1.40362698929468 2.27835578784943 1.62023046119979
| 28> H   0.90935194675655 1.20173687912671 2.93614455588112
| 29> H   2.59160430303934 1.26646414401648 2.40377185468111
| 30> H   -0.45643828321867 3.46198002199189 -1.30212486279181
| 31> H   -0.04851410961136 3.77175220070104 0.39216319178969
| 32> H   1.03157541043976 2.81974160267878 -0.64035750555149
| 33> H   -0.04672864497442 -2.77900051300889 0.80762873296383
| 34> H   -2.53980574455168 0.39474648804991 2.34594120164954
| 35> H   2.19044558729335 -0.84841350474639 -1.92593002399576
| 36> H   -1.73819325394397 -1.10734745465013 -1.3000101284294
| 37> *
| 38> 
| 39>                          ****END OF INPUT****
================================================================================

                     *******************************
                     * Energy+Gradient Calculation *
                     *******************************

---------------------------------
CARTESIAN COORDINATES (ANGSTROEM)
---------------------------------
  O      2.707435    1.143681   -0.570702
  O     -0.469526    0.818424   -2.164717
  O      0.853567   -2.902043   -1.495991
  O     -2.697491   -1.632134    0.941135
  N      0.575752   -2.021012    0.585895
  N     -2.098840    0.505541    1.450968
  N      1.821807   -0.897858   -0.989092
  N     -1.660550   -0.350479   -0.637123
  C      1.293285    0.202298    1.086754
  C     -0.735452    1.788182   -0.012881
  C      0.678186   -0.939663    1.428870
  C     -1.418858    1.658338    1.128574
  C      1.556515    1.301719    2.066958
  C     -0.008426    3.034799   -0.407060
  C      2.001889    0.231577   -0.195528
  C     -0.912125    0.758398   -1.039702
  C      1.065083   -2.013275   -0.702995
  C     -2.195214   -0.579318    0.608020
  H      0.220419   -1.075985    2.396739
  H     -1.421780    2.423793    1.889017
  H      1.403627    2.278356    1.620230
  H      0.909352    1.201737    2.936145
  H      2.591604    1.266464    2.403772
  H     -0.456438    3.461980   -1.302125
  H     -0.048514    3.771752    0.392163
  H      1.031575    2.819742   -0.640358
  H     -0.046729   -2.779001    0.807629
  H     -2.539806    0.394746    2.345941
  H      2.190446   -0.848414   -1.925930
  H     -1.738193   -1.107347   -1.300010

----------------------------
CARTESIAN COORDINATES (A.U.)
----------------------------
  NO LB      ZA    FRAG     MASS         X           Y           Z
   0 O     8.0000    0    15.999    5.116311    2.161243   -1.078470
   1 O     8.0000    0    15.999   -0.887275    1.546597   -4.090721
   2 O     8.0000    0    15.999    1.613008   -5.484066   -2.827012
   3 O     8.0000    0    15.999   -5.097518   -3.084286    1.778488
   4 N     7.0000    0    14.007    1.088013   -3.819159    1.107182
   5 N     7.0000    0    14.007   -3.966233    0.955335    2.741933
   6 N     7.0000    0    14.007    3.442717   -1.696705   -1.869113
   7 N     7.0000    0    14.007   -3.137986   -0.662309   -1.203987
   8 C     6.0000    0    12.011    2.443954    0.382288    2.053667
   9 C     6.0000    0    12.011   -1.389803    3.379175   -0.024341
  10 C     6.0000    0    12.011    1.281585   -1.775706    2.700174
  11 C     6.0000    0    12.011   -2.681253    3.133805    2.132697
  12 C     6.0000    0    12.011    2.941387    2.459892    3.905985
  13 C     6.0000    0    12.011   -0.015922    5.734940   -0.769232
  14 C     6.0000    0    12.011    3.783023    0.437618   -0.369495
  15 C     6.0000    0    12.011   -1.723666    1.433165   -1.964752
  16 C     6.0000    0    12.011    2.012715   -3.804539   -1.328469
  17 C     6.0000    0    12.011   -4.148353   -1.094753    1.148992
  18 H     1.0000    0     1.008    0.416532   -2.033317    4.529180
  19 H     1.0000    0     1.008   -2.686775    4.580305    3.569725
  20 H     1.0000    0     1.008    2.652471    4.305468    3.061792
  21 H     1.0000    0     1.008    1.718426    2.270954    5.548509
  22 H     1.0000    0     1.008    4.897422    2.393270    4.542470
  23 H     1.0000    0     1.008   -0.862543    6.542194   -2.460659
  24 H     1.0000    0     1.008   -0.091678    7.127579    0.741081
  25 H     1.0000    0     1.008    1.949395    5.328539   -1.210100
  26 H     1.0000    0     1.008   -0.088304   -5.251550    1.526197
  27 H     1.0000    0     1.008   -4.799537    0.745963    4.433186
  28 H     1.0000    0     1.008    4.139342   -1.603269   -3.639480
  29 H     1.0000    0     1.008   -3.284709   -2.092583   -2.456663

--------------------------------
INTERNAL COORDINATES (ANGSTROEM)
--------------------------------
 O      0   0   0     0.000000000000     0.00000000     0.00000000
 O      1   0   0     3.569279174870     0.00000000     0.00000000
 O      2   1   0     4.004952227153    73.50282203     0.00000000
 O      3   2   1     4.490240598630    64.31879120   111.21424842
 N      3   2   1     2.277640538901    75.69919061    64.15531200
 N      4   3   2     2.277711240951   100.31505178   319.08714510
 N      1   2   3     2.264346711365    59.14902340   359.38094479
 N      2   1   3     2.262391946093   102.36377968    59.19884103
 C      1   2   3     2.373431969593    75.24974743   292.88090720
 C      2   1   3     2.375193679286    69.99219196   113.70121231
 C      9   1   2     1.341441721246   142.08846244    73.28071878
 C     10   2   1     1.336721032037   142.29795489   232.06604791
 C      9   1   2     1.496267576558    93.51005406   236.57473582
 C     10   2   1     1.495994251069    92.69984567    66.47036107
 C      1   2   3     1.212634364627    63.36859148   323.10593969
 C      2   1   3     1.210435826315    85.11847875    86.62181361
 C      3   2   1     1.209747352087    58.98440139    36.37424571
 C      4   3   2     1.213123325111    76.64222345   338.42368583
 H     11   9   1     1.079306856906   122.05314920   168.50597790
 H     12  10   2     1.078982062334   122.29639215   191.96480871
 H     13   9   1     1.084786011030   111.52756771    51.09172460
 H     13   9   1     1.088255988377   110.55468221   172.71085957
 H     13   9   1     1.089080504860   110.24386655   292.51924106
 H     14  10   2     1.088273578171   110.10502571    53.72765477
 H     14  10   2     1.087871493716   110.67188782   174.11997629
 H     14  10   2     1.087327027351   110.88839602   295.31299127
 H      5   3   2     1.005581257936    89.16810313   123.08887214
 H      6   4   3     1.003843958971    88.88378846   215.22207476
 H      7   1   2     1.007970274181    89.10994038    83.77708661
 H      8   2   1     1.009107539418    89.11047306   243.64873438

---------------------------
INTERNAL COORDINATES (A.U.)
---------------------------
 O      0   0   0     0.000000000000     0.00000000     0.00000000
 O      1   0   0     6.744960136012     0.00000000     0.00000000
 O      2   1   0     7.568262888756    73.50282203     0.00000000
 O      3   2   1     8.485325006826    64.31879120   111.21424842
 N      3   2   1     4.304116850039    75.69919061    64.15531200
 N      4   3   2     4.304250457552   100.31505178   319.08714510
 N      1   2   3     4.278995156725    59.14902340   359.38094479
 N      2   1   3     4.275301185706   102.36377968    59.19884103
 C      1   2   3     4.485136420025    75.24974743   292.88090720
 C      2   1   3     4.488465568871    69.99219196   113.70121231
 C      9   1   2     2.534957477770   142.08846244    73.28071878
 C     10   2   1     2.526036668003   142.29795489   232.06604791
 C      9   1   2     2.827535942761    93.51005406   236.57473582
 C     10   2   1     2.827019432441    92.69984567    66.47036107
 C      1   2   3     2.291546849727    63.36859148   323.10593969
 C      2   1   3     2.287392214423    85.11847875    86.62181361
 C      3   2   1     2.286091186680    58.98440139    36.37424571
 C      4   3   2     2.292470851132    76.64222345   338.42368583
 H     11   9   1     2.039594374016   122.05314920   168.50597790
 H     12  10   2     2.038980601225   122.29639215   191.96480871
 H     13   9   1     2.049948474755   111.52756771    51.09172460
 H     13   9   1     2.056505781632   110.55468221   172.71085957
 H     13   9   1     2.058063891978   110.24386655   292.51924106
 H     14  10   2     2.056539021527   110.10502571    53.72765477
 H     14  10   2     2.055779192023   110.67188782   174.11997629
 H     14  10   2     2.054750299705   110.88839602   295.31299127
 H      5   3   2     1.900273182903    89.16810313   123.08887214
 H      6   4   3     1.896990163647    88.88378846   215.22207476
 H      7   1   2     1.904787769336    89.10994038    83.77708661
 H      8   2   1     1.906936889176    89.11047306   243.64873438

---------------------
BASIS SET INFORMATION
---------------------
There are 4 groups of distinct atoms

 Group   1 Type O   : 12s7p3d1f contracted to 6s4p3d1f pattern {621111/4111/111/1}
 Group   2 Type N   : 12s6p3d1f contracted to 6s3p3d1f pattern {621111/411/111/1}
 Group   3 Type C   : 12s6p3d1f contracted to 6s3p3d1f pattern {621111/411/111/1}
 Group   4 Type H   : 5s3p1d contracted to 3s3p1d pattern {311/111/1}

Atom   0O    basis set group =>   1
Atom   1O    basis set group =>   1
Atom   2O    basis set group =>   1
Atom   3O    basis set group =>   1
Atom   4N    basis set group =>   2
Atom   5N    basis set group =>   2
Atom   6N    basis set group =>   2
Atom   7N    basis set group =>   2
Atom   8C    basis set group =>   3
Atom   9C    basis set group =>   3
Atom  10C    basis set group =>   3
Atom  11C    basis set group =>   3
Atom  12C    basis set group =>   3
Atom  13C    basis set group =>   3
Atom  14C    basis set group =>   3
Atom  15C    basis set group =>   3
Atom  16C    basis set group =>   3
Atom  17C    basis set group =>   3
Atom  18H    basis set group =>   4
Atom  19H    basis set group =>   4
Atom  20H    basis set group =>   4
Atom  21H    basis set group =>   4
Atom  22H    basis set group =>   4
Atom  23H    basis set group =>   4
Atom  24H    basis set group =>   4
Atom  25H    basis set group =>   4
Atom  26H    basis set group =>   4
Atom  27H    basis set group =>   4
Atom  28H    basis set group =>   4
Atom  29H    basis set group =>   4
---------------------------------
AUXILIARY/J BASIS SET INFORMATION
---------------------------------
There are 4 groups of distinct atoms

 Group   1 Type O   : 12s5p4d2f1g contracted to 6s4p3d1f1g pattern {711111/2111/211/2/1}
 Group   2 Type N   : 12s5p4d2f1g contracted to 6s4p3d1f1g pattern {711111/2111/211/2/1}
 Group   3 Type C   : 12s5p4d2f1g contracted to 6s4p3d1f1g pattern {711111/2111/211/2/1}
 Group   4 Type H   : 5s2p1d contracted to 3s1p1d pattern {311/2/1}

Atom   0O    basis set group =>   1
Atom   1O    basis set group =>   1
Atom   2O    basis set group =>   1
Atom   3O    basis set group =>   1
Atom   4N    basis set group =>   2
Atom   5N    basis set group =>   2
Atom   6N    basis set group =>   2
Atom   7N    basis set group =>   2
Atom   8C    basis set group =>   3
Atom   9C    basis set group =>   3
Atom  10C    basis set group =>   3
Atom  11C    basis set group =>   3
Atom  12C    basis set group =>   3
Atom  13C    basis set group =>   3
Atom  14C    basis set group =>   3
Atom  15C    basis set group =>   3
Atom  16C    basis set group =>   3
Atom  17C    basis set group =>   3
Atom  18H    basis set group =>   4
Atom  19H    basis set group =>   4
Atom  20H    basis set group =>   4
Atom  21H    basis set group =>   4
Atom  22H    basis set group =>   4
Atom  23H    basis set group =>   4
Atom  24H    basis set group =>   4
Atom  25H    basis set group =>   4
Atom  26H    basis set group =>   4
Atom  27H    basis set group =>   4
Atom  28H    basis set group =>   4
Atom  29H    basis set group =>   4
[1737025896.354467] [ohm:225753:0]        ib_iface.c:1059 UCX  ERROR ibv_create_cq(cqe=256) failed: Connection timed out
[1737025896.358158] [ohm:225752:0]        ib_iface.c:1059 UCX  ERROR ibv_create_cq(cqe=256) failed: Connection timed out
[1737025896.371588] [ohm:225757:0]        ib_iface.c:1059 UCX  ERROR ibv_create_cq(cqe=256) failed: Connection timed out
[1737025896.400852] [ohm:225758:0]        ib_iface.c:1059 UCX  ERROR ibv_create_cq(cqe=256) failed: Connection timed out
[1737025896.401239] [ohm:225760:0]        ib_iface.c:1059 UCX  ERROR ibv_create_cq(cqe=256) failed: Connection timed out
[1737025896.408971] [ohm:225754:0]        ib_iface.c:1059 UCX  ERROR ibv_create_cq(cqe=256) failed: Connection timed out
[1737025896.414775] [ohm:225764:0]        ib_iface.c:1059 UCX  ERROR ibv_create_cq(cqe=256) failed: Connection timed out
[1737025896.417823] [ohm:225759:0]        ib_iface.c:1059 UCX  ERROR ibv_create_cq(cqe=256) failed: Connection timed out
[1737025896.449464] [ohm:225762:0]        ib_iface.c:1059 UCX  ERROR ibv_create_cq(cqe=256) failed: Connection timed out
[1737025896.454689] [ohm:225773:0]        ib_iface.c:1059 UCX  ERROR ibv_create_cq(cqe=256) failed: Connection timed out
[1737025896.456364] [ohm:225781:0]        ib_iface.c:1059 UCX  ERROR ibv_create_cq(cqe=256) failed: Connection timed out
[1737025896.463552] [ohm:225756:0]        ib_iface.c:1059 UCX  ERROR ibv_create_cq(cqe=256) failed: Connection timed out
[1737025896.464034] [ohm:225770:0]        ib_iface.c:1059 UCX  ERROR ibv_create_cq(cqe=256) failed: Connection timed out
[1737025896.470381] [ohm:225767:0]        ib_iface.c:1059 UCX  ERROR ibv_create_cq(cqe=256) failed: Connection timed out
[1737025896.473374] [ohm:225766:0]        ib_iface.c:1059 UCX  ERROR ibv_create_cq(cqe=256) failed: Connection timed out
[1737025896.479421] [ohm:225791:0]        ib_iface.c:1059 UCX  ERROR ibv_create_cq(cqe=256) failed: Connection timed out
[1737025896.483195] [ohm:225787:0]        ib_iface.c:1059 UCX  ERROR ibv_create_cq(cqe=256) failed: Connection timed out
[1737025896.485397] [ohm:225776:0]        ib_iface.c:1059 UCX  ERROR ibv_create_cq(cqe=256) failed: Connection timed out
[1737025896.494865] [ohm:225807:0]        ib_iface.c:1059 UCX  ERROR ibv_create_cq(cqe=256) failed: Connection timed out
[1737025896.495879] [ohm:225763:0]        ib_iface.c:1059 UCX  ERROR ibv_create_cq(cqe=256) failed: Connection timed out
[1737025896.497967] [ohm:225790:0]        ib_iface.c:1059 UCX  ERROR ibv_create_cq(cqe=256) failed: Connection timed out
[1737025896.498490] [ohm:225782:0]        ib_iface.c:1059 UCX  ERROR ibv_create_cq(cqe=256) failed: Connection timed out
[1737025896.501069] [ohm:225775:0]        ib_iface.c:1059 UCX  ERROR ibv_create_cq(cqe=256) failed: Connection timed out
[1737025896.501486] [ohm:225771:0]        ib_iface.c:1059 UCX  ERROR ibv_create_cq(cqe=256) failed: Connection timed out
[1737025896.501640] [ohm:225761:0]        ib_iface.c:1059 UCX  ERROR ibv_create_cq(cqe=256) failed: Connection timed out
[1737025896.504746] [ohm:225780:0]        ib_iface.c:1059 UCX  ERROR ibv_create_cq(cqe=256) failed: Connection timed out
[1737025896.505197] [ohm:225798:0]        ib_iface.c:1059 UCX  ERROR ibv_create_cq(cqe=256) failed: Connection timed out
[1737025896.508747] [ohm:225786:0]        ib_iface.c:1059 UCX  ERROR ibv_create_cq(cqe=256) failed: Connection timed out
[1737025896.510122] [ohm:225765:0]        ib_iface.c:1059 UCX  ERROR ibv_create_cq(cqe=256) failed: Connection timed out
[1737025896.510119] [ohm:225784:0]        ib_iface.c:1059 UCX  ERROR ibv_create_cq(cqe=256) failed: Connection timed out
[1737025896.511766] [ohm:225755:0]        ib_iface.c:1059 UCX  ERROR ibv_create_cq(cqe=256) failed: Connection timed out
[1737025896.536693] [ohm:225793:0]        ib_iface.c:1059 UCX  ERROR ibv_create_cq(cqe=256) failed: Connection timed out


           ************************************************************
           *        Program running with 32 parallel MPI-processes    *
           *              working on a common directory               *
           ************************************************************
------------------------------------------------------------------------------
                             ORCA STARTUP CALCULATIONS
                           -- RI-GTO INTEGRALS CHOSEN --
------------------------------------------------------------------------------
------------------------------------------------------------------------------
                   ___                                                        
                  /   \      - P O W E R E D   B Y -                         
                 /     \                                                     
                 |  |  |   _    _      __       _____    __    __             
                 |  |  |  | |  | |    /  \     |  _  \  |  |  /  |          
                  \  \/   | |  | |   /    \    | | | |  |  | /  /          
                 / \  \   | |__| |  /  /\  \   | |_| |  |  |/  /          
                |  |  |   |  __  | /  /__\  \  |    /   |      \           
                |  |  |   | |  | | |   __   |  |    \   |  |\   \          
                \     /   | |  | | |  |  |  |  | |\  \  |  | \   \       
                 \___/    |_|  |_| |__|  |__|  |_| \__\ |__|  \__/        
                                                                              
                      - O R C A' S   B I G   F R I E N D -                    
                                      &                                       
                       - I N T E G R A L  F E E D E R -                       
                                                                              
 v1 FN, 2020, v2 2021, v3 2022-2024                                           
------------------------------------------------------------------------------


----------------------
SHARK INTEGRAL PACKAGE
----------------------

Number of atoms                             ...     30
Number of basis functions                   ...    882
Number of shells                            ...    322
Maximum angular momentum                    ...      3
Integral batch strategy                     ... SHARK/LIBINT Hybrid
RI-J (if used) integral strategy            ... SPLIT-RIJ (Revised 2003 algorithm where possible)
Printlevel                                  ...      1
Contraction scheme used                     ... SEGMENTED contraction
Prescreening option                         ... SCHWARTZ
   Thresh                                   ... 2.500e-11
   Tcut                                     ... 2.500e-12
   Tpresel                                  ... 2.500e-12 
Coulomb Range Separation                    ... NOT USED
Exchange Range Separation                   ... Long Range
   Mu parameter                             ... 3.000e-01
   Scaling (regular/separated)              ... 1.500e-01 8.500e-01
Multipole approximations                    ... NOT USED
Finite Nucleus Model                        ... NOT USED
CABS basis                                  ... NOT available
Auxiliary Coulomb fitting basis             ... AVAILABLE
   # of basis functions in Aux-J            ...   1014
   # of shells in Aux-J                     ...    330
   Maximum angular momentum in Aux-J        ...      4
Auxiliary J/K fitting basis                 ... NOT available
Auxiliary Correlation fitting basis         ... NOT available
Auxiliary 'external' fitting basis          ... NOT available

Checking pre-screening integrals            ... done (  0.1 sec) Dimension = 322
Check shell pair data                       ... done (  0.1 sec)
Shell pair information
Shell pair cut-off parameter TPreSel        ...   2.5e-12
Total number of shell pairs                 ...     52003
Shell pairs after pre-screening             ...     45519
Total number of primitive shell pairs       ...    129718
Primitive shell pairs kept                  ...     85041
          la=0 lb=0:   8794 shell pairs
          la=1 lb=0:  12019 shell pairs
          la=1 lb=1:   4148 shell pairs
          la=2 lb=0:   8172 shell pairs
          la=2 lb=1:   5649 shell pairs
          la=2 lb=2:   1953 shell pairs
          la=3 lb=0:   2110 shell pairs
          la=3 lb=1:   1503 shell pairs
          la=3 lb=2:   1023 shell pairs
          la=3 lb=3:    148 shell pairs

Calculating one electron integrals          ... done (  2.3 sec)
Calculating RI/J V-Matrix + Cholesky decomp.... done (  6.6 sec)
Calculating Nuclear repulsion               ... done (  0.0 sec) ENN=   1464.257385985863 Eh

Diagonalization of the overlap matrix:
Smallest eigenvalue                        ... 3.968e-07
Time for diagonalization                   ...    0.280 sec
Threshold for overlap eigenvalues          ... 1.000e-07
Number of eigenvalues below threshold      ... 0

IMPORTANT:
Smallest eigenvalue of S below the DiffSThresh (1.000e-06) while
Thresh>1e-12 and/or TCut>1e-13! In order to avoid SCF convergence issues,
Thresh will be set to at least 1e-12 and TCut to at least 1e-13.
This can be turned off by adding %SCF DiffSThresh -1 END to the input.

Time for construction of square roots      ...    1.212 sec
Total time needed                          ...    2.089 sec

-------------------
DFT GRID GENERATION
-------------------

General Integration Accuracy     IntAcc      ... 4.388
Radial Grid Type                 RadialGrid  ... OptM3 with GC (2021)
Angular Grid (max. ang.)         AngularGrid ... 4 (Lebedev-302)
Angular grid pruning method      GridPruning ... 4 (adaptive)
Weight generation scheme         WeightScheme... mBecke (2022)
Basis function cutoff            BFCut       ... 1.0000e-11
Integration weight cutoff        WCut        ... 1.0000e-14
Partially contracted basis set               ... off
Rotationally invariant grid construction     ... off
Angular grids for H and He will be reduced by one unit
Diffuse basis detected: some atoms will have their outermost
                        angular grid increased by 1.

Total number of grid points                  ...   151891
Total number of batches                      ...     2388
Average number of points per batch           ...       63
Average number of grid points per atom       ...     5063

--------------------
COSX GRID GENERATION
--------------------

GRIDX 1
-------
General Integration Accuracy     IntAcc      ... 3.816
Radial Grid Type                 RadialGrid  ... OptM3 with GC (2021)
Angular Grid (max. ang.)         AngularGrid ... 1 (Lebedev-50)
Angular grid pruning method      GridPruning ... 4 (adaptive)
Weight generation scheme         WeightScheme... mBecke (2022)
Basis function cutoff            BFCut       ... 1.0000e-11
Integration weight cutoff        WCut        ... 1.0000e-14
Partially contracted basis set               ... on
Rotationally invariant grid construction     ... off
Angular grids for H and He will be reduced by one unit
Diffuse basis detected: some atoms will have their outermost
                        angular grid increased by 1.

Total number of grid points                  ...    19005
Total number of batches                      ...      164
Average number of points per batch           ...      115
Average number of grid points per atom       ...      634
UseSFitting                                  ... on

GRIDX 2
-------
General Integration Accuracy     IntAcc      ... 4.020
Radial Grid Type                 RadialGrid  ... OptM3 with GC (2021)
Angular Grid (max. ang.)         AngularGrid ... 2 (Lebedev-110)
Angular grid pruning method      GridPruning ... 4 (adaptive)
Weight generation scheme         WeightScheme... mBecke (2022)
Basis function cutoff            BFCut       ... 1.0000e-11
Integration weight cutoff        WCut        ... 1.0000e-14
Partially contracted basis set               ... on
Rotationally invariant grid construction     ... off
Angular grids for H and He will be reduced by one unit
Diffuse basis detected: some atoms will have their outermost
                        angular grid increased by 1.

Total number of grid points                  ...    45770
Total number of batches                      ...      372
Average number of points per batch           ...      123
Average number of grid points per atom       ...     1526
UseSFitting                                  ... on

GRIDX 3
-------
General Integration Accuracy     IntAcc      ... 4.338
Radial Grid Type                 RadialGrid  ... OptM3 with GC (2021)
Angular Grid (max. ang.)         AngularGrid ... 3 (Lebedev-194)
Angular grid pruning method      GridPruning ... 4 (adaptive)
Weight generation scheme         WeightScheme... mBecke (2022)
Basis function cutoff            BFCut       ... 1.0000e-11
Integration weight cutoff        WCut        ... 1.0000e-14
Partially contracted basis set               ... on
Rotationally invariant grid construction     ... off
Angular grids for H and He will be reduced by one unit
Diffuse basis detected: some atoms will have their outermost
                        angular grid increased by 1.

Total number of grid points                  ...   100716
Total number of batches                      ...      805
Average number of points per batch           ...      125
Average number of grid points per atom       ...     3357
UseSFitting                                  ... on
Initializing property integral containers    ... done (  0.2 sec)

SHARK setup successfully completed in  43.8 seconds

Maximum memory used throughout the entire STARTUP-calculation: 81.8 MB
[1737025942.385959] [ohm:227356:0]        ib_iface.c:1059 UCX  ERROR ibv_create_cq(cqe=256) failed: Connection timed out
[1737025942.389990] [ohm:227351:0]        ib_iface.c:1059 UCX  ERROR ibv_create_cq(cqe=256) failed: Connection timed out
[1737025942.394058] [ohm:227359:0]        ib_iface.c:1059 UCX  ERROR ibv_create_cq(cqe=256) failed: Connection timed out
[1737025942.401077] [ohm:227360:0]        ib_iface.c:1059 UCX  ERROR ibv_create_cq(cqe=256) failed: Connection timed out
[1737025942.406803] [ohm:227364:0]        ib_iface.c:1059 UCX  ERROR ibv_create_cq(cqe=256) failed: Connection timed out
[1737025942.411951] [ohm:227369:0]        ib_iface.c:1059 UCX  ERROR ibv_create_cq(cqe=256) failed: Connection timed out
[1737025942.412793] [ohm:227367:0]        ib_iface.c:1059 UCX  ERROR ibv_create_cq(cqe=256) failed: Connection timed out
[1737025942.419740] [ohm:227397:0]        ib_iface.c:1059 UCX  ERROR ibv_create_cq(cqe=256) failed: Connection timed out
[1737025942.429387] [ohm:227352:0]        ib_iface.c:1059 UCX  ERROR ibv_create_cq(cqe=256) failed: Connection timed out
[1737025942.430703] [ohm:227371:0]        ib_iface.c:1059 UCX  ERROR ibv_create_cq(cqe=256) failed: Connection timed out
[1737025942.431839] [ohm:227355:0]        ib_iface.c:1059 UCX  ERROR ibv_create_cq(cqe=256) failed: Connection timed out
[1737025942.432654] [ohm:227368:0]        ib_iface.c:1059 UCX  ERROR ibv_create_cq(cqe=256) failed: Connection timed out
[1737025942.441367] [ohm:227373:0]        ib_iface.c:1059 UCX  ERROR ibv_create_cq(cqe=256) failed: Connection timed out
[1737025942.444943] [ohm:227350:0]        ib_iface.c:1059 UCX  ERROR ibv_create_cq(cqe=256) failed: Connection timed out
[1737025942.466162] [ohm:227377:0]        ib_iface.c:1059 UCX  ERROR ibv_create_cq(cqe=256) failed: Connection timed out
[1737025942.473756] [ohm:227406:0]        ib_iface.c:1059 UCX  ERROR ibv_create_cq(cqe=256) failed: Connection timed out
[1737025942.474367] [ohm:227379:0]        ib_iface.c:1059 UCX  ERROR ibv_create_cq(cqe=256) failed: Connection timed out
[1737025942.479817] [ohm:227353:0]        ib_iface.c:1059 UCX  ERROR ibv_create_cq(cqe=256) failed: Connection timed out
[1737025942.480591] [ohm:227411:0]        ib_iface.c:1059 UCX  ERROR ibv_create_cq(cqe=256) failed: Connection timed out
[1737025942.481506] [ohm:227370:0]        ib_iface.c:1059 UCX  ERROR ibv_create_cq(cqe=256) failed: Connection timed out
[1737025942.482000] [ohm:227363:0]        ib_iface.c:1059 UCX  ERROR ibv_create_cq(cqe=256) failed: Connection timed out
[1737025942.482597] [ohm:227358:0]        ib_iface.c:1059 UCX  ERROR ibv_create_cq(cqe=256) failed: Connection timed out
[1737025942.484111] [ohm:227403:0]        ib_iface.c:1059 UCX  ERROR ibv_create_cq(cqe=256) failed: Connection timed out
[1737025942.486175] [ohm:227391:0]        ib_iface.c:1059 UCX  ERROR ibv_create_cq(cqe=256) failed: Connection timed out
[1737025942.486502] [ohm:227362:0]        ib_iface.c:1059 UCX  ERROR ibv_create_cq(cqe=256) failed: Connection timed out
[1737025942.488811] [ohm:227366:0]        ib_iface.c:1059 UCX  ERROR ibv_create_cq(cqe=256) failed: Connection timed out
[1737025942.489328] [ohm:227365:0]        ib_iface.c:1059 UCX  ERROR ibv_create_cq(cqe=256) failed: Connection timed out
[1737025942.489622] [ohm:227354:0]        ib_iface.c:1059 UCX  ERROR ibv_create_cq(cqe=256) failed: Connection timed out
[1737025942.492312] [ohm:227357:0]        ib_iface.c:1059 UCX  ERROR ibv_create_cq(cqe=256) failed: Connection timed out
[1737025942.494897] [ohm:227349:0]        ib_iface.c:1059 UCX  ERROR ibv_create_cq(cqe=256) failed: Connection timed out
[1737025942.500811] [ohm:227361:0]        ib_iface.c:1059 UCX  ERROR ibv_create_cq(cqe=256) failed: Connection timed out
[1737025942.509142] [ohm:227385:0]        ib_iface.c:1059 UCX  ERROR ibv_create_cq(cqe=256) failed: Connection timed out


           ************************************************************
           *        Program running with 32 parallel MPI-processes    *
           *              working on a common directory               *
           ************************************************************
-------------------------------------------------------------------------------
                                 ORCA GUESS
                   Start orbitals & Density for SCF / CASSCF
-------------------------------------------------------------------------------

------------
SCF SETTINGS
------------
Hamiltonian:
 Density Functional     Method          .... DFT(GTOs)
  Functional kind                       .... Exchange-Correlation
  Functional name                       .... wB97M-V exchange-correlation functional
  Functional family                     .... Hybrid MGGA
  Functional refs                              
    [ 0] N. Mardirossian and M. Head-Gordon.,  J. Chem. Phys. 144, 214110 (2016), doi: 10.1063/1.4952647
  Fraction of HF Exchange (short range) .... 0.1500
  Fraction of HF Exchange (long range)  .... 1.0000
  Range separation parameter mu         .... 0.3000
  Functional external parameters        .... 17
    Parameter  0 _cx00      =  8.500000e-01 : u^00 coefficient for exchange
    Parameter  1 _cx01      =  1.007000e+00 : u^01 coefficient for exchange
    Parameter  2 _cx10      =  2.590000e-01 : u^10 coefficient for exchange
    Parameter  3 _css00     =  4.430000e-01 : u^00 coefficient for same-spin correlation
    Parameter  4 _css04     = -1.437000e+00 : u^04 coefficient for same-spin correlation
    Parameter  5 _css10     = -4.535000e+00 : u^10 coefficient for same-spin correlation
    Parameter  6 _css20     = -3.390000e+00 : u^20 coefficient for same-spin correlation
    Parameter  7 _css43     =  4.278000e+00 : u^43 coefficient for same-spin correlation
    Parameter  8 _cos00     =  1.000000e+00 : u^00 coefficient for opposite-spin correlation
    Parameter  9 _cos10     =  1.358000e+00 : u^10 coefficient for opposite-spin correlation
    Parameter 10 _cos20     =  2.924000e+00 : u^20 coefficient for opposite-spin correlation
    Parameter 11 _cos21     = -8.812000e+00 : u^21 coefficient for opposite-spin correlation
    Parameter 12 _cos60     = -1.390000e+00 : u^60 coefficient for opposite-spin correlation
    Parameter 13 _cos61     =  9.142000e+00 : u^61 coefficient for opposite-spin correlation
    Parameter 14 _alpha     =  1.000000e+00 : fraction of HF exchange
    Parameter 15 _beta      = -8.500000e-01 : fraction of short-range exchange
    Parameter 16 _omega     =  3.000000e-01 : range-separation constant
 Long-range corrected/Screened/Range-Separated Hybrid DFT is turned on
   Amount of maximum screened exact exchange              ....  0.850000
   Range separation parameter mu (erf(mu*r12)/r12)        ....  0.300000
 RI-approximation to the Coulomb term is turned on
   Number of AuxJ basis functions       .... 1014
   RIJ-COSX (HFX calculated with COS-X)).... on


General Settings:
 Integral files         IntName         .... orca
 Hartree-Fock type      HFTyp           .... UHF
 Total Charge           Charge          ....    0
 Multiplicity           Mult            ....    3
 Number of Electrons    NEL             ....  132
 Basis Dimension        Dim             ....  882
 Nuclear Repulsion      ENuc            ....   1464.2573859859 Eh

Convergence Acceleration:
 AO-DIIS                CNVDIIS         .... on
   Start iteration      DIISMaxIt       ....    12
   Startup error        DIISStart       ....  0.200000
   # of expansion vecs  DIISMaxEq       ....     5
   Bias factor          DIISBfac        ....   1.050
   Max. coefficient     DIISMaxC        ....  10.000
 MO-DIIS                CNVKDIIS        .... off
 Trust-Rad. Augm. Hess. CNVTRAH         .... auto
   Auto Start mean grad. ratio tolernc. ....  1.125000
   Auto Start start iteration           ....    50
   Auto Start num. interpolation iter.  ....    10
   Max. Number of Micro iterations      ....    24
   Max. Number of Macro iterations      .... Maxiter - #DIIS iter
   Number of Davidson start vectors     ....     2
   Converg. threshold    (grad. norm)   ....   1.000e-05
   Grad. Scal. Fac. for Micro threshold ....   0.100
   Minimum threshold for Micro iter.    ....   1.000e-02
   NR start threshold (gradient norm)   ....   1.000e-04
   Initial trust radius                 ....   0.400
   Minimum AH scaling param. (alpha)    ....   1.000
   Maximum AH scaling param. (alpha)    .... 1000.000
   Quad. conv. algorithm                .... NR
   White noise on init. David. guess    .... on
   Maximum white noise                  ....   0.010
   Pseudo random numbers                .... off
   Inactive MOs                         .... canonical
   Orbital update algorithm             .... Taylor
   Preconditioner                       .... Diag
   Full preconditioner red. dimension   ....   250
 SOSCF                  CNVSOSCF        .... on
   Start iteration      SOSCFMaxIt      ....   150
   Startup grad/error   SOSCFStart      ....  0.003300
   Hessian update       SOSCFHessUp     .... L-BFGS
 Level Shifting         CNVShift        .... on
   Level shift para.    LevelShift      ....    0.2500
   Turn off err/grad.   ShiftErr        ....    0.0010
 Zerner damping         CNVZerner       .... off
 Static damping         CNVDamp         .... on
   Fraction old density DampFac         ....    0.7000
   Max. Damping (<1)    DampMax         ....    0.9800
   Min. Damping (>=0)   DampMin         ....    0.0000
   Turn off err/grad.   DampErr         ....    0.1000

SCF Procedure:
 Maximum # iterations   MaxIter         ....   125
 SCF integral mode      SCFMode         .... Direct
   Integral package                     .... SHARK and LIBINT hybrid scheme
 Reset frequency        DirectResetFreq ....    20
 Integral Threshold     Thresh          ....  1.000e-12 Eh
 Primitive CutOff       TCut            ....  1.000e-13 Eh

Convergence Tolerance:
 Convergence Check Mode ConvCheckMode   .... Total+1el-Energy
 Convergence forced     ConvForced      .... 1
 Energy Change          TolE            ....  1.000e-08 Eh
 1-El. energy change                    ....  1.000e-05 Eh
 Orbital Gradient       TolG            ....  1.000e-05
 Orbital Rotation angle TolX            ....  1.000e-05
 DIIS Error             TolErr          ....  5.000e-07

------------------------------
INITIAL GUESS: MODEL POTENTIAL
------------------------------
Loading Hartree-Fock densities                     ... done
Calculating cut-offs                               ... done
Initializing the effective Hamiltonian             ... done
Setting up the integral package (SHARK)            ... done
Starting the Coulomb interaction                   ... done (   2.1 sec)
Making the grid                                    ... done (   6.4 sec)
Mapping shells                                     ... done
Starting the XC term evaluation                    ... done (   0.6 sec)
  promolecular density results
     # of electrons  =    131.998534376
     EX              =   -113.602838707
     EC              =     -4.490148830
     EX+EC           =   -118.092987537
Transforming the Hamiltonian                       ... done (   1.6 sec)
Diagonalizing the Hamiltonian                      ... done (   1.3 sec)
Back transforming the eigenvectors                 ... done (   0.4 sec)
Now organizing SCF variables                       ... done
                      ------------------
                      INITIAL GUESS DONE (  15.6 sec)
                      ------------------
             **** ENERGY FILE WAS UPDATED (orca.en.tmp) ****
Finished Guess after  41.0 sec
Maximum memory used throughout the entire GUESS-calculation: 74.2 MB
[1737025984.143906] [ohm:228842:0]        ib_iface.c:1059 UCX  ERROR ibv_create_cq(cqe=256) failed: Connection timed out
[1737025984.149103] [ohm:228835:0]        ib_iface.c:1059 UCX  ERROR ibv_create_cq(cqe=256) failed: Connection timed out
[1737025984.162767] [ohm:228845:0]        ib_iface.c:1059 UCX  ERROR ibv_create_cq(cqe=256) failed: Connection timed out
[1737025984.164629] [ohm:228830:0]        ib_iface.c:1059 UCX  ERROR ibv_create_cq(cqe=256) failed: Connection timed out
[1737025984.169325] [ohm:228839:0]        ib_iface.c:1059 UCX  ERROR ibv_create_cq(cqe=256) failed: Connection timed out
[1737025984.170532] [ohm:228838:0]        ib_iface.c:1059 UCX  ERROR ibv_create_cq(cqe=256) failed: Connection timed out
[1737025984.180311] [ohm:228843:0]        ib_iface.c:1059 UCX  ERROR ibv_create_cq(cqe=256) failed: Connection timed out
[1737025984.188558] [ohm:228854:0]        ib_iface.c:1059 UCX  ERROR ibv_create_cq(cqe=256) failed: Connection timed out
[1737025984.189971] [ohm:228831:0]        ib_iface.c:1059 UCX  ERROR ibv_create_cq(cqe=256) failed: Connection timed out
[1737025984.198515] [ohm:228874:0]        ib_iface.c:1059 UCX  ERROR ibv_create_cq(cqe=256) failed: Connection timed out
[1737025984.202405] [ohm:228883:0]        ib_iface.c:1059 UCX  ERROR ibv_create_cq(cqe=256) failed: Connection timed out
[1737025984.209693] [ohm:228833:0]        ib_iface.c:1059 UCX  ERROR ibv_create_cq(cqe=256) failed: Connection timed out
[1737025984.210262] [ohm:228884:0]        ib_iface.c:1059 UCX  ERROR ibv_create_cq(cqe=256) failed: Connection timed out
[1737025984.210905] [ohm:228841:0]        ib_iface.c:1059 UCX  ERROR ibv_create_cq(cqe=256) failed: Connection timed out
[1737025984.215304] [ohm:228844:0]        ib_iface.c:1059 UCX  ERROR ibv_create_cq(cqe=256) failed: Connection timed out
[1737025984.216274] [ohm:228857:0]        ib_iface.c:1059 UCX  ERROR ibv_create_cq(cqe=256) failed: Connection timed out
[1737025984.216579] [ohm:228836:0]        ib_iface.c:1059 UCX  ERROR ibv_create_cq(cqe=256) failed: Connection timed out
[1737025984.226312] [ohm:228870:0]        ib_iface.c:1059 UCX  ERROR ibv_create_cq(cqe=256) failed: Connection timed out
[1737025984.231021] [ohm:228850:0]        ib_iface.c:1059 UCX  ERROR ibv_create_cq(cqe=256) failed: Connection timed out
[1737025984.232324] [ohm:228868:0]        ib_iface.c:1059 UCX  ERROR ibv_create_cq(cqe=256) failed: Connection timed out
[1737025984.232484] [ohm:228848:0]        ib_iface.c:1059 UCX  ERROR ibv_create_cq(cqe=256) failed: Connection timed out
[1737025984.239222] [ohm:228834:0]        ib_iface.c:1059 UCX  ERROR ibv_create_cq(cqe=256) failed: Connection timed out
[1737025984.240564] [ohm:228849:0]        ib_iface.c:1059 UCX  ERROR ibv_create_cq(cqe=256) failed: Connection timed out
[1737025984.240730] [ohm:228837:0]        ib_iface.c:1059 UCX  ERROR ibv_create_cq(cqe=256) failed: Connection timed out
[1737025984.245456] [ohm:228832:0]        ib_iface.c:1059 UCX  ERROR ibv_create_cq(cqe=256) failed: Connection timed out
[1737025984.246259] [ohm:228853:0]        ib_iface.c:1059 UCX  ERROR ibv_create_cq(cqe=256) failed: Connection timed out
[1737025984.247423] [ohm:228847:0]        ib_iface.c:1059 UCX  ERROR ibv_create_cq(cqe=256) failed: Connection timed out
[1737025984.256997] [ohm:228851:0]        ib_iface.c:1059 UCX  ERROR ibv_create_cq(cqe=256) failed: Connection timed out
[1737025984.259263] [ohm:228840:0]        ib_iface.c:1059 UCX  ERROR ibv_create_cq(cqe=256) failed: Connection timed out
[1737025984.266665] [ohm:228864:0]        ib_iface.c:1059 UCX  ERROR ibv_create_cq(cqe=256) failed: Connection timed out
[1737025984.267493] [ohm:228852:0]        ib_iface.c:1059 UCX  ERROR ibv_create_cq(cqe=256) failed: Connection timed out
[1737025984.270396] [ohm:228846:0]        ib_iface.c:1059 UCX  ERROR ibv_create_cq(cqe=256) failed: Connection timed out


           ************************************************************
           *        Program running with 32 parallel MPI-processes    *
           *              working on a common directory               *
           ************************************************************

-------------------------------------------------------------------------------------------
                                      ORCA LEAN-SCF
                              memory conserving SCF solver
-------------------------------------------------------------------------------------------

----------------------------------------D-I-I-S--------------------------------------------
Iteration    Energy (Eh)           Delta-E    RMSDP     MaxDP     DIISErr   Damp  Time(sec)
-------------------------------------------------------------------------------------------
               ***  Starting incremental Fock matrix formation  ***
    1    -908.0920281579928997     0.00e+00  1.72e-03  2.77e-01  1.46e-01  0.700  35.0
    2    -908.3560284054228759    -2.64e-01  1.41e-03  1.66e-01  6.89e-02  0.700  58.4
                               ***Turning on AO-DIIS***
    3    -908.4745702241752952    -1.19e-01  1.12e-03  1.41e-01  2.71e-02  0.700  51.6
    4    -908.5468922619911609    -7.23e-02  2.83e-03  3.06e-01  1.90e-02  0.000  52.0
    5    -908.7079624270086242    -1.61e-01  5.09e-04  7.71e-02  3.85e-03  0.000  46.7
                              *** Initializing SOSCF ***
---------------------------------------S-O-S-C-F--------------------------------------
Iteration    Energy (Eh)           Delta-E    RMSDP     MaxDP     MaxGrad    Time(sec)
--------------------------------------------------------------------------------------
    6    -908.7089198341118390    -9.57e-04  4.11e-04  6.75e-02  1.67e-03    54.1
               *** Restarting incremental Fock matrix formation ***
    7    -908.7093163196591377    -3.96e-04  5.86e-04  1.08e-01  2.53e-03    39.7
    8    -908.7096106192034313    -2.94e-04  9.18e-04  1.69e-01  1.42e-03    24.8
    9    -908.7097848392631931    -1.74e-04  1.09e-04  1.55e-02  6.00e-04    41.9
   10    -908.7098099985378212    -2.52e-05  1.22e-04  2.51e-02  8.20e-04    43.8
   11    -908.7098379111944269    -2.79e-05  2.52e-04  5.42e-02  9.27e-04    42.7
               *** Scaled step length from 3.244893 to 0.200000 ***
Curvature condition for BFGS not met. Restarting diagonal Hessian.
   12    -908.7099218076173202    -8.39e-05  6.87e-03  1.09e+00  1.77e-03    53.3
               *** Scaled step length from 0.224957 to 0.200000 ***
   13    -908.7014404242431738     8.48e-03  5.29e-03  9.23e-01  2.88e-02    42.4
   14    -908.7017430546184187    -3.03e-04  1.26e-03  1.98e-01  2.29e-02    38.8
   15    -908.7097623586787449    -8.02e-03  4.25e-04  6.52e-02  5.09e-03    43.5
   16    -908.7103324106069522    -5.70e-04  9.01e-04  1.30e-01  6.77e-03    31.9
               *** Scaled step length from 2.231153 to 0.200000 ***
   17    -908.7118877830980637    -1.56e-03  1.26e-03  1.62e-01  8.36e-03    42.3
               *** Scaled step length from 0.427452 to 0.200000 ***
   18    -908.7141874437475053    -2.30e-03  1.07e-03  1.68e-01  9.23e-03    44.8
   19    -908.7153758443951119    -1.19e-03  5.70e-04  6.76e-02  9.10e-03    44.5
               *** Scaled step length from 0.320562 to 0.200000 ***
   20    -908.7178424347353030    -2.47e-03  2.54e-03  2.68e-01  1.08e-02    43.9
   21    -908.7246107744331312    -6.77e-03  2.44e-03  3.03e-01  9.83e-03    44.5
   22    -908.7268499630677070    -2.24e-03  5.98e-04  9.82e-02  4.82e-03    40.0
   23    -908.7275376242869243    -6.88e-04  6.92e-04  8.95e-02  3.63e-03    42.7
   24    -908.7279004800243456    -3.63e-04  2.24e-04  2.85e-02  1.16e-03    25.8
   25    -908.7280000324431057    -9.96e-05  1.11e-04  2.52e-02  8.13e-04    29.4
   26    -908.7280149245520988    -1.49e-05  6.92e-05  1.31e-02  2.60e-04    36.9
               *** Restarting incremental Fock matrix formation ***
   27    -908.7280225057702410    -7.58e-06  3.24e-05  4.77e-03  1.69e-04    47.2
   28    -908.7280241830644627    -1.68e-06  1.15e-05  1.35e-03  1.13e-04    42.9
   29    -908.7280250197914029    -8.37e-07  1.25e-05  2.26e-03  5.18e-05    41.4
   30    -908.7280251938650508    -1.74e-07  5.56e-06  8.90e-04  3.00e-05    42.7
   31    -908.7280252331252086    -3.93e-08  2.02e-06  3.39e-04  1.76e-05    34.2
   32    -908.7280252759878749    -4.29e-08  3.39e-06  6.16e-04  8.10e-06    36.8
   33    -908.7280253046478720    -2.87e-08  2.20e-06  6.04e-04  3.78e-06    37.2
   34    -908.7280253122967224    -7.65e-09  3.68e-06  8.13e-04  2.73e-06    24.9
                 **** Energy Check signals convergence ****

               *****************************************************
               *                     SUCCESS                       *
               *           SCF CONVERGED AFTER  34 CYCLES          *
               *****************************************************

Recomputing exchange energy using gridx3       ... done (   27.992 sec)
Old exchange energy                            :    -35.041545367 Eh
New exchange energy                            :    -35.041562944 Eh
Exchange energy change after final integration :     -0.000017577 Eh
Total energy after final integration           :   -908.728042889 Eh
             **** ENERGY FILE WAS UPDATED (orca.en.tmp) ****

----------------
TOTAL SCF ENERGY
----------------

Total Energy       :       -908.72804288892985 Eh          -24727.74718 eV

Components:
Nuclear Repulsion  :       1464.25738598586258 Eh           39844.46913 eV
Electronic Energy  :      -2372.98541129815931 Eh          -64572.21583 eV
One Electron Energy:      -4145.81669496633731 Eh         -112813.40759 eV
Two Electron Energy:       1772.83128366817823 Eh           48241.19176 eV

Virial components:
Potential Energy   :      -1815.05211844380210 Eh          -49390.07909 eV
Kinetic Energy     :        906.32407555487214 Eh           24662.33190 eV
Virial Ratio       :          2.00265243680367

DFT components:
N(Alpha)           :       67.000037827386 electrons
N(Beta)            :       65.000046107706 electrons
N(Total)           :      132.000083935092 electrons
E(XC)              :      -86.337392593240 Eh       

---------------
SCF CONVERGENCE
---------------

  Last Energy change         ...    7.6489e-09  Tolerance :   1.0000e-08
  Last MAX-Density change    ...    8.1300e-04  Tolerance :   1.0000e-07
  Last RMS-Density change    ...    3.6813e-06  Tolerance :   5.0000e-09
  Last DIIS Error            ...    1.6730e-03  Tolerance :   5.0000e-07
  Last Orbital Gradient      ...    2.7267e-06  Tolerance :   1.0000e-05
  Last Orbital Rotation      ...    2.9013e-05  Tolerance :   1.0000e-05


----------------------
UHF SPIN CONTAMINATION
----------------------

Warning: in a DFT calculation there is little theoretical justification to 
         calculate <S**2> as in Hartree-Fock theory. We will do it anyways
         but you should keep in mind that the values have only limited relevance

Expectation value of <S**2>     :     2.012364
Ideal value S*(S+1) for S=1.0   :     2.000000
Deviation                       :     0.012364

----------------
ORBITAL ENERGIES
----------------
                 SPIN UP ORBITALS
  NO   OCC          E(Eh)            E(eV) 
   0   1.0000     -19.330882      -526.0201 
   1   1.0000     -19.330444      -526.0081 
   2   1.0000     -19.324954      -525.8587 
   3   1.0000     -19.317102      -525.6451 
   4   1.0000     -14.591288      -397.0491 
   5   1.0000     -14.585298      -396.8861 
   6   1.0000     -14.572757      -396.5449 
   7   1.0000     -14.548052      -395.8726 
   8   1.0000     -10.516872      -286.1786 
   9   1.0000     -10.507647      -285.9276 
  10   1.0000     -10.481185      -285.2075 
  11   1.0000     -10.456262      -284.5293 
  12   1.0000     -10.434867      -283.9472 
  13   1.0000     -10.407149      -283.1929 
  14   1.0000     -10.396840      -282.9124 
  15   1.0000     -10.385125      -282.5936 
  16   1.0000     -10.369566      -282.1702 
  17   1.0000     -10.352210      -281.6980 
  18   1.0000      -1.230233       -33.4763 
  19   1.0000      -1.223687       -33.2982 
  20   1.0000      -1.196255       -32.5518 
  21   1.0000      -1.187985       -32.3267 
  22   1.0000      -1.126709       -30.6593 
  23   1.0000      -1.123483       -30.5715 
  24   1.0000      -1.073246       -29.2045 
  25   1.0000      -1.058865       -28.8132 
  26   1.0000      -0.977204       -26.5911 
  27   1.0000      -0.958984       -26.0953 
  28   1.0000      -0.856980       -23.3196 
  29   1.0000      -0.849897       -23.1269 
  30   1.0000      -0.814582       -22.1659 
  31   1.0000      -0.808677       -22.0052 
  32   1.0000      -0.796767       -21.6811 
  33   1.0000      -0.787999       -21.4425 
  34   1.0000      -0.700636       -19.0653 
  35   1.0000      -0.698908       -19.0183 
  36   1.0000      -0.695238       -18.9184 
  37   1.0000      -0.689875       -18.7725 
  38   1.0000      -0.648400       -17.6439 
  39   1.0000      -0.644908       -17.5488 
  40   1.0000      -0.629016       -17.1164 
  41   1.0000      -0.601548       -16.3690 
  42   1.0000      -0.599916       -16.3245 
  43   1.0000      -0.592030       -16.1100 
  44   1.0000      -0.579892       -15.7797 
  45   1.0000      -0.570066       -15.5123 
  46   1.0000      -0.567676       -15.4473 
  47   1.0000      -0.554109       -15.0781 
  48   1.0000      -0.552587       -15.0367 
  49   1.0000      -0.544450       -14.8152 
  50   1.0000      -0.530802       -14.4439 
  51   1.0000      -0.525135       -14.2897 
  52   1.0000      -0.518092       -14.0980 
  53   1.0000      -0.514335       -13.9958 
  54   1.0000      -0.509420       -13.8620 
  55   1.0000      -0.500392       -13.6164 
  56   1.0000      -0.490063       -13.3353 
  57   1.0000      -0.483018       -13.1436 
  58   1.0000      -0.422572       -11.4988 
  59   1.0000      -0.417669       -11.3654 
  60   1.0000      -0.407979       -11.1017 
  61   1.0000      -0.399287       -10.8652 
  62   1.0000      -0.391824       -10.6621 
  63   1.0000      -0.386721       -10.5232 
  64   1.0000      -0.383906       -10.4466 
  65   1.0000      -0.348468        -9.4823 
  66   1.0000      -0.206565        -5.6209 
  67   0.0000       0.009804         0.2668 
  68   0.0000       0.017920         0.4876 
  69   0.0000       0.032008         0.8710 
  70   0.0000       0.037720         1.0264 
  71   0.0000       0.040999         1.1156 
  72   0.0000       0.056782         1.5451 
  73   0.0000       0.059127         1.6089 
  74   0.0000       0.062039         1.6882 
  75   0.0000       0.065630         1.7859 
  76   0.0000       0.068119         1.8536 
  77   0.0000       0.072859         1.9826 

                 SPIN DOWN ORBITALS
  NO   OCC          E(Eh)            E(eV) 
   0   1.0000     -19.330820      -526.0184 
   1   1.0000     -19.328504      -525.9553 
   2   1.0000     -19.325163      -525.8644 
   3   1.0000     -19.311131      -525.4826 
   4   1.0000     -14.586140      -396.9090 
   5   1.0000     -14.584647      -396.8684 
   6   1.0000     -14.572770      -396.5452 
   7   1.0000     -14.547190      -395.8492 
   8   1.0000     -10.516883      -286.1789 
   9   1.0000     -10.508048      -285.9385 
  10   1.0000     -10.481106      -285.2054 
  11   1.0000     -10.455865      -284.5186 
  12   1.0000     -10.433543      -283.9111 
  13   1.0000     -10.397789      -282.9382 
  14   1.0000     -10.386616      -282.6342 
  15   1.0000     -10.385397      -282.6010 
  16   1.0000     -10.370027      -282.1828 
  17   1.0000     -10.352157      -281.6965 
  18   1.0000      -1.229715       -33.4622 
  19   1.0000      -1.219578       -33.1864 
  20   1.0000      -1.196351       -32.5544 
  21   1.0000      -1.179181       -32.0871 
  22   1.0000      -1.125411       -30.6240 
  23   1.0000      -1.112978       -30.2857 
  24   1.0000      -1.072886       -29.1947 
  25   1.0000      -1.053470       -28.6664 
  26   1.0000      -0.964158       -26.2361 
  27   1.0000      -0.948057       -25.7979 
  28   1.0000      -0.848917       -23.1002 
  29   1.0000      -0.846475       -23.0338 
  30   1.0000      -0.813086       -22.1252 
  31   1.0000      -0.799676       -21.7603 
  32   1.0000      -0.795069       -21.6349 
  33   1.0000      -0.781318       -21.2607 
  34   1.0000      -0.697986       -18.9932 
  35   1.0000      -0.695196       -18.9172 
  36   1.0000      -0.688850       -18.7446 
  37   1.0000      -0.681940       -18.5565 
  38   1.0000      -0.645548       -17.5662 
  39   1.0000      -0.635456       -17.2916 
  40   1.0000      -0.622509       -16.9393 
  41   1.0000      -0.599772       -16.3206 
  42   1.0000      -0.591043       -16.0831 
  43   1.0000      -0.583981       -15.8909 
  44   1.0000      -0.570378       -15.5208 
  45   1.0000      -0.566588       -15.4176 
  46   1.0000      -0.561549       -15.2805 
  47   1.0000      -0.553057       -15.0494 
  48   1.0000      -0.544720       -14.8226 
  49   1.0000      -0.538513       -14.6537 
  50   1.0000      -0.522705       -14.2235 
  51   1.0000      -0.519291       -14.1306 
  52   1.0000      -0.512064       -13.9340 
  53   1.0000      -0.509145       -13.8545 
  54   1.0000      -0.500254       -13.6126 
  55   1.0000      -0.495268       -13.4769 
  56   1.0000      -0.478354       -13.0167 
  57   1.0000      -0.446314       -12.1448 
  58   1.0000      -0.422189       -11.4883 
  59   1.0000      -0.413073       -11.2403 
  60   1.0000      -0.405181       -11.0255 
  61   1.0000      -0.389727       -10.6050 
  62   1.0000      -0.377721       -10.2783 
  63   1.0000      -0.377149       -10.2627 
  64   1.0000      -0.348107        -9.4725 
  65   0.0000      -0.105351        -2.8667 
  66   0.0000       0.009392         0.2556 
  67   0.0000       0.020317         0.5529 
  68   0.0000       0.029081         0.7913 
  69   0.0000       0.034744         0.9454 
  70   0.0000       0.040481         1.1015 
  71   0.0000       0.056711         1.5432 
  72   0.0000       0.058544         1.5931 
  73   0.0000       0.062023         1.6877 
  74   0.0000       0.064902         1.7661 
  75   0.0000       0.067801         1.8450 
*Only the first 10 virtual orbitals were printed.

                    ********************************
                    * MULLIKEN POPULATION ANALYSIS *
                    ********************************

--------------------------------------------
MULLIKEN ATOMIC CHARGES AND SPIN POPULATIONS
--------------------------------------------
   0 O :   -0.683566    0.218906
   1 O :   -0.661985   -0.007164
   2 O :   -0.632174    0.071643
   3 O :   -0.666544    0.002144
   4 N :    0.008828    0.203245
   5 N :    0.004050    0.036562
   6 N :    0.014233    0.040505
   7 N :    0.011581    0.000683
   8 C :    1.205669    0.275721
   9 C :    0.409289   -0.031415
  10 C :   -0.329841    0.933044
  11 C :    0.271569    0.083567
  12 C :   -1.472525    0.008627
  13 C :   -1.579706   -0.017842
  14 C :    0.177717    0.167687
  15 C :    0.621939    0.029087
  16 C :    0.463829   -0.028877
  17 C :    0.427342   -0.006123
  18 H :    0.176805   -0.008630
  19 H :    0.191965    0.006273
  20 H :    0.248574    0.014822
  21 H :    0.330855    0.011987
  22 H :    0.395773    0.004242
  23 H :    0.372236    0.001742
  24 H :    0.337923    0.001707
  25 H :    0.247569    0.004050
  26 H :    0.061016   -0.016667
  27 H :    0.025528   -0.004010
  28 H :    0.010675    0.000775
  29 H :    0.011374    0.003709
Sum of atomic charges         :   -0.0000000
Sum of atomic spin populations:    2.0000000

-----------------------------------------------------
MULLIKEN REDUCED ORBITAL CHARGES AND SPIN POPULATIONS
-----------------------------------------------------
CHARGE
  0 O s       :     4.087862  s :     4.087862
      pz      :     1.710796  p :     4.566062
      px      :     1.396143
      py      :     1.459124
      dz2     :     0.003511  d :     0.027731
      dxz     :     0.001172
      dyz     :     0.006217
      dx2y2   :     0.010579
      dxy     :     0.006252
      f0      :     0.000184  f :     0.001911
      f+1     :     0.000159
      f-1     :     0.000267
      f+2     :     0.000175
      f-2     :     0.000321
      f+3     :     0.000346
      f-3     :     0.000458

  1 O s       :     4.086927  s :     4.086927
      pz      :     1.317392  p :     4.544302
      px      :     1.481228
      py      :     1.745682
      dz2     :     0.010392  d :     0.028818
      dxz     :     0.011298
      dyz     :     0.004263
      dx2y2   :     0.001471
      dxy     :     0.001393
      f0      :     0.000618  f :     0.001940
      f+1     :     0.000500
      f-1     :     0.000416
      f+2     :     0.000196
      f-2     :     0.000170
      f+3     :     0.000020
      f-3     :     0.000019

  2 O s       :     4.070207  s :     4.070207
      pz      :     1.543423  p :     4.530280
      px      :     1.547456
      py      :     1.439402
      dz2     :     0.004569  d :     0.029743
      dxz     :     0.006309
      dyz     :     0.007570
      dx2y2   :     0.004696
      dxy     :     0.006600
      f0      :     0.000230  f :     0.001943
      f+1     :     0.000099
      f-1     :     0.000492
      f+2     :     0.000408
      f-2     :     0.000398
      f+3     :     0.000153
      f-3     :     0.000164

  3 O s       :     4.073245  s :     4.073245
      pz      :     1.731711  p :     4.563908
      px      :     1.472977
      py      :     1.359219
      dz2     :     0.002956  d :     0.027468
      dxz     :    -0.000654
      dyz     :     0.005926
      dx2y2   :     0.010520
      dxy     :     0.008719
      f0      :     0.000196  f :     0.001923
      f+1     :     0.000094
      f-1     :     0.000309
      f+2     :     0.000228
      f-2     :     0.000250
      f+3     :     0.000365
      f-3     :     0.000482

  4 N s       :     3.507397  s :     3.507397
      pz      :     1.010447  p :     3.405250
      px      :     1.308273
      py      :     1.086530
      dz2     :     0.014416  d :     0.074711
      dxz     :     0.020272
      dyz     :     0.020701
      dx2y2   :     0.009124
      dxy     :     0.010198
      f0      :     0.000671  f :     0.003813
      f+1     :     0.000579
      f-1     :     0.000801
      f+2     :     0.000488
      f-2     :     0.000618
      f+3     :     0.000358
      f-3     :     0.000300

  5 N s       :     3.477956  s :     3.477956
      pz      :     1.047493  p :     3.456231
      px      :     1.409360
      py      :     0.999379
      dz2     :     0.008004  d :     0.057919
      dxz     :    -0.000270
      dyz     :     0.015508
      dx2y2   :     0.012592
      dxy     :     0.022085
      f0      :     0.000308  f :     0.003844
      f+1     :     0.000213
      f-1     :     0.000644
      f+2     :     0.000537
      f-2     :     0.000649
      f+3     :     0.000722
      f-3     :     0.000769

  6 N s       :     3.499590  s :     3.499590
      pz      :     1.040747  p :     3.430155
      px      :     1.407567
      py      :     0.981841
      dz2     :     0.001633  d :     0.052276
      dxz     :     0.000911
      dyz     :     0.025609
      dx2y2   :     0.014023
      dxy     :     0.010101
      f0      :     0.000285  f :     0.003745
      f+1     :     0.000186
      f-1     :     0.000558
      f+2     :     0.000455
      f-2     :     0.000648
      f+3     :     0.000786
      f-3     :     0.000827

  7 N s       :     3.503807  s :     3.503807
      pz      :     0.975197  p :     3.413855
      px      :     1.384698
      py      :     1.053960
      dz2     :     0.031296  d :     0.067042
      dxz     :     0.008346
      dyz     :    -0.001882
      dx2y2   :     0.016027
      dxy     :     0.013254
      f0      :     0.000616  f :     0.003716
      f+1     :     0.000609
      f-1     :     0.000507
      f+2     :     0.000378
      f-2     :     0.000624
      f+3     :     0.000481
      f-3     :     0.000501

  8 C s       :     3.169724  s :     3.169724
      pz      :     0.434127  p :     1.614959
      px      :     0.678322
      py      :     0.502510
      dz2     :    -0.008689  d :     0.000186
      dxz     :     0.033906
      dyz     :    -0.082044
      dx2y2   :     0.077681
      dxy     :    -0.020668
      f0      :     0.001400  f :     0.009463
      f+1     :     0.000997
      f-1     :     0.001681
      f+2     :     0.001243
      f-2     :     0.001535
      f+3     :     0.000823
      f-3     :     0.001784

  9 C s       :     3.531490  s :     3.531490
      pz      :     0.582412  p :     2.065939
      px      :     0.901272
      py      :     0.582255
      dz2     :     0.046151  d :    -0.016001
      dxz     :     0.016289
      dyz     :    -0.048157
      dx2y2   :    -0.017327
      dxy     :    -0.012958
      f0      :     0.001925  f :     0.009282
      f+1     :     0.000874
      f-1     :     0.001599
      f+2     :     0.001229
      f-2     :     0.001774
      f+3     :     0.000857
      f-3     :     0.001024

 10 C s       :     3.612466  s :     3.612466
      pz      :     1.085009  p :     2.717655
      px      :     1.051377
      py      :     0.581269
      dz2     :    -0.003553  d :    -0.011063
      dxz     :     0.014373
      dyz     :    -0.032515
      dx2y2   :     0.011070
      dxy     :    -0.000437
      f0      :     0.001097  f :     0.010783
      f+1     :     0.000613
      f-1     :     0.002152
      f+2     :     0.001499
      f-2     :     0.002128
      f+3     :     0.001310
      f-3     :     0.001983

 11 C s       :     3.276529  s :     3.276529
      pz      :     0.880090  p :     2.372837
      px      :     0.689139
      py      :     0.803609
      dz2     :    -0.001726  d :     0.068160
      dxz     :    -0.003643
      dyz     :     0.043375
      dx2y2   :     0.028424
      dxy     :     0.001729
      f0      :     0.001978  f :     0.010905
      f+1     :     0.000869
      f-1     :     0.001481
      f+2     :     0.001196
      f-2     :     0.001780
      f+3     :     0.001279
      f-3     :     0.002322

 12 C s       :     3.796921  s :     3.796921
      pz      :     1.090291  p :     3.612441
      px      :     1.434827
      py      :     1.087324
      dz2     :     0.002798  d :     0.060431
      dxz     :     0.022690
      dyz     :     0.004581
      dx2y2   :     0.024464
      dxy     :     0.005898
      f0      :     0.000248  f :     0.002732
      f+1     :     0.000174
      f-1     :     0.000637
      f+2     :     0.000797
      f-2     :     0.000443
      f+3     :     0.000238
      f-3     :     0.000194

 13 C s       :     3.879392  s :     3.879392
      pz      :     1.385164  p :     3.607497
      px      :     1.221019
      py      :     1.001313
      dz2     :     0.018957  d :     0.090182
      dxz     :     0.027273
      dyz     :     0.021292
      dx2y2   :     0.022844
      dxy     :    -0.000184
      f0      :     0.000174  f :     0.002636
      f+1     :     0.000144
      f-1     :     0.000487
      f+2     :     0.000339
      f-2     :     0.000379
      f+3     :     0.000505
      f-3     :     0.000607

 14 C s       :     3.511227  s :     3.511227
      pz      :     0.682146  p :     2.073892
      px      :     0.710647
      py      :     0.681100
      dz2     :     0.045584  d :     0.215295
      dxz     :     0.042786
      dyz     :     0.036378
      dx2y2   :     0.076530
      dxy     :     0.014018
      f0      :     0.002091  f :     0.021869
      f+1     :     0.001808
      f-1     :     0.004556
      f+2     :     0.002548
      f-2     :     0.004247
      f+3     :     0.002968
      f-3     :     0.003651

 15 C s       :     3.244365  s :     3.244365
      pz      :     0.534106  p :     1.872180
      px      :     0.630933
      py      :     0.707140
      dz2     :     0.042198  d :     0.239683
      dxz     :     0.037384
      dyz     :     0.093946
      dx2y2   :     0.033434
      dxy     :     0.032721
      f0      :     0.004698  f :     0.021833
      f+1     :     0.003119
      f-1     :     0.005406
      f+2     :     0.001924
      f-2     :     0.003141
      f+3     :     0.001384
      f-3     :     0.002161

 16 C s       :     3.280267  s :     3.280267
      pz      :     0.667958  p :     2.003719
      px      :     0.711511
      py      :     0.624250
      dz2     :     0.082127  d :     0.226777
      dxz     :     0.044701
      dyz     :     0.008192
      dx2y2   :     0.051054
      dxy     :     0.040704
      f0      :     0.004377  f :     0.025407
      f+1     :     0.002449
      f-1     :     0.006020
      f+2     :     0.002758
      f-2     :     0.004178
      f+3     :     0.002402
      f-3     :     0.003222

 17 C s       :     3.297671  s :     3.297671
      pz      :     0.686009  p :     2.001401
      px      :     0.686648
      py      :     0.628745
      dz2     :     0.040922  d :     0.247862
      dxz     :     0.050241
      dyz     :     0.067752
      dx2y2   :     0.055732
      dxy     :     0.033214
      f0      :     0.003572  f :     0.025724
      f+1     :     0.002148
      f-1     :     0.005787
      f+2     :     0.003221
      f-2     :     0.004254
      f+3     :     0.002744
      f-3     :     0.003998

 18 H s       :     0.775843  s :     0.775843
      pz      :     0.010909  p :     0.044581
      px      :     0.031286
      py      :     0.002386
[...]
=> NOW LEAVING ORCA_CIS


-------------------------------------------------------------------------------
                          DFT DISPERSION CORRECTION                            
                                                                               
                              DFTD3 V3.1  Rev 1                                
                          USING Becke-Johnson damping                          
-------------------------------------------------------------------------------
The WB97M functional is recognized
Active option DFTDOPT                   ...         4   

molecular C6(AA) [au] = 9905.403746 


            DFT-D V3
 parameters
 s6 scaling factor         :     1.0000 
 a1 scaling factor         :     0.5660 
 s8 scaling factor         :     0.3908 
 a2 scaling factor         :     3.1280 
 ad hoc parameters k1-k3   :    16.0000     1.3333    -4.0000 

 Edisp/kcal,au: -38.880592560857  -0.061960161592 
 E6   /kcal   : -31.185033757 
 E8   /kcal   :  -7.695558804 
 % E8         :  19.792802263 

-------------------------   ----------------
Dispersion correction           -0.061960162
-------------------------   ----------------


-------------------------   --------------------
FINAL SINGLE POINT ENERGY      -908.765823825643
-------------------------   --------------------

[1737028014.405042] [ohm:265718:0]        ib_iface.c:1059 UCX  ERROR ibv_create_cq(cqe=256) failed: Connection timed out
[1737028014.407043] [ohm:265719:0]        ib_iface.c:1059 UCX  ERROR ibv_create_cq(cqe=256) failed: Connection timed out
[1737028014.409918] [ohm:265720:0]        ib_iface.c:1059 UCX  ERROR ibv_create_cq(cqe=256) failed: Connection timed out
[1737028014.416396] [ohm:265721:0]        ib_iface.c:1059 UCX  ERROR ibv_create_cq(cqe=256) failed: Connection timed out
[1737028014.419291] [ohm:265739:0]        ib_iface.c:1059 UCX  ERROR ibv_create_cq(cqe=256) failed: Connection timed out
[1737028014.429495] [ohm:265731:0]        ib_iface.c:1059 UCX  ERROR ibv_create_cq(cqe=256) failed: Connection timed out
[1737028014.435105] [ohm:265732:0]        ib_iface.c:1059 UCX  ERROR ibv_create_cq(cqe=256) failed: Connection timed out
[1737028014.437579] [ohm:265737:0]        ib_iface.c:1059 UCX  ERROR ibv_create_cq(cqe=256) failed: Connection timed out
[1737028014.440322] [ohm:265724:0]        ib_iface.c:1059 UCX  ERROR ibv_create_cq(cqe=256) failed: Connection timed out
[1737028014.441110] [ohm:265722:0]        ib_iface.c:1059 UCX  ERROR ibv_create_cq(cqe=256) failed: Connection timed out
[1737028014.454635] [ohm:265753:0]        ib_iface.c:1059 UCX  ERROR ibv_create_cq(cqe=256) failed: Connection timed out
[1737028014.455826] [ohm:265745:0]        ib_iface.c:1059 UCX  ERROR ibv_create_cq(cqe=256) failed: Connection timed out
[1737028014.457520] [ohm:265751:0]        ib_iface.c:1059 UCX  ERROR ibv_create_cq(cqe=256) failed: Connection timed out
[1737028014.458993] [ohm:265746:0]        ib_iface.c:1059 UCX  ERROR ibv_create_cq(cqe=256) failed: Connection timed out
[1737028014.459891] [ohm:265729:0]        ib_iface.c:1059 UCX  ERROR ibv_create_cq(cqe=256) failed: Connection timed out
[1737028014.464200] [ohm:265758:0]        ib_iface.c:1059 UCX  ERROR ibv_create_cq(cqe=256) failed: Connection timed out
[1737028014.464384] [ohm:265748:0]        ib_iface.c:1059 UCX  ERROR ibv_create_cq(cqe=256) failed: Connection timed out
[1737028014.465360] [ohm:265752:0]        ib_iface.c:1059 UCX  ERROR ibv_create_cq(cqe=256) failed: Connection timed out
[1737028014.469907] [ohm:265754:0]        ib_iface.c:1059 UCX  ERROR ibv_create_cq(cqe=256) failed: Connection timed out
[1737028014.475321] [ohm:265725:0]        ib_iface.c:1059 UCX  ERROR ibv_create_cq(cqe=256) failed: Connection timed out
[1737028014.477884] [ohm:265723:0]        ib_iface.c:1059 UCX  ERROR ibv_create_cq(cqe=256) failed: Connection timed out
[1737028014.478386] [ohm:265747:0]        ib_iface.c:1059 UCX  ERROR ibv_create_cq(cqe=256) failed: Connection timed out
[1737028014.487245] [ohm:265750:0]        ib_iface.c:1059 UCX  ERROR ibv_create_cq(cqe=256) failed: Connection timed out
[1737028014.492596] [ohm:265730:0]        ib_iface.c:1059 UCX  ERROR ibv_create_cq(cqe=256) failed: Connection timed out
[1737028014.495692] [ohm:265743:0]        ib_iface.c:1059 UCX  ERROR ibv_create_cq(cqe=256) failed: Connection timed out
[1737028014.497603] [ohm:265726:0]        ib_iface.c:1059 UCX  ERROR ibv_create_cq(cqe=256) failed: Connection timed out
[1737028014.499251] [ohm:265761:0]        ib_iface.c:1059 UCX  ERROR ibv_create_cq(cqe=256) failed: Connection timed out
[1737028014.500200] [ohm:265728:0]        ib_iface.c:1059 UCX  ERROR ibv_create_cq(cqe=256) failed: Connection timed out
[1737028014.501598] [ohm:265749:0]        ib_iface.c:1059 UCX  ERROR ibv_create_cq(cqe=256) failed: Connection timed out
[1737028014.505675] [ohm:265727:0]        ib_iface.c:1059 UCX  ERROR ibv_create_cq(cqe=256) failed: Connection timed out
[1737028014.505664] [ohm:265759:0]        ib_iface.c:1059 UCX  ERROR ibv_create_cq(cqe=256) failed: Connection timed out
[1737028014.509485] [ohm:265735:0]        ib_iface.c:1059 UCX  ERROR ibv_create_cq(cqe=256) failed: Connection timed out


           ************************************************************
           *        Program running with 32 parallel MPI-processes    *
           *              working on a common directory               *
           ************************************************************

------------------------------------------------------------------------------
                              ORCA PROPERTY CALCULATIONS
------------------------------------------------------------------------------

GBWName                                 ... orca.gbw
Number of atoms                         ...     30
Number of basis functions               ...    882
Max core memory                         ...   1024 MB

Electric properties:
Dipole moment                           ... YES
Quadrupole moment                       ...  NO
Static polarizability (Dipole/Dipole)   ...  NO
Static polarizability (Dipole/Quad.)    ...  NO
Static polarizability (Quad./Quad.)     ...  NO
Static polarizability (Velocity)        ...  NO

Atomic electric properties:
Dipole moment                           ...  NO
Quadrupole moment                       ...  NO
Static polarizability                   ...  NO

Choice of electric origin               ... Center of mass
Position of electric origin             ...     0.039361    -0.019363     0.077819

General magnetic properties:
Magnetizability                         ...  NO

EPR properties:
g-Tensor (aka g-matrix)                 ...  NO
Zero-Field splitting spin-orbit         ...  NO
Zero-field splitting spin-spin          ...  NO
Hyperfine couplings                     ...  NO (   0 nuclei)
Quadrupole couplings                    ...  NO (   0 nuclei)
Contact density                         ...  NO (   0 nuclei)

NMR properties:
Chemical shifts                         ...  NO (   0 nuclei)
Spin-rotation constants                 ...  NO (   0 nuclei)
Spin-spin couplings                     ...  NO (   0 nuclei,    0 pairs)

Choice of magnetic origin               ... GIAO
Position of magnetic origin             ...     0.000000     0.000000     0.000000

Properties with geometric perturbations:
SCF Hessian                             ...  NO
IR spectrum                             ...  NO
VCD spectrum                            ...  NO
X-ray spectroscopy properties:
SCF XES/XAS/RIXS spectra                ...  NO


-------------
DIPOLE MOMENT
-------------

Method             : SCF
Type of density    : Electron Density
Multiplicity       :   3
Irrep              :   0
Energy             :  -908.7280428889298491 Eh
Relativity type    : 
Basis              : AO
                                X                 Y                 Z
Electronic contribution:     -2.530391378     -10.074495614      -6.100781960
Nuclear contribution   :      1.728149378      11.140748313       8.514922595
                        -----------------------------------------
Total Dipole Moment    :     -0.802241999       1.066252699       2.414140635
                        -----------------------------------------
Magnitude (a.u.)       :      2.758362204
Magnitude (Debye)      :      7.011199533



--------------------
Rotational spectrum 
--------------------
 
Rotational constants in cm-1:             0.017945             0.016918             0.013048 
Rotational constants in MHz :           537.965123           507.191013           391.173726 

Dipole components along the rotational axes: 
x,y,z [a.u.] :     1.817901     0.806339     1.911443 
x,y,z [Debye]:     4.620737     2.049552     4.858503 

 

-------------
DIPOLE MOMENT
-------------

Method             : TDA/CIS
Type of density    : Electron Density
Level              : Relaxed density
State              :   2
Multiplicity       :   3
Irrep              :   0
Energy             :     0.0000000000000000 Eh
Relativity type    : 
Basis              : AO
                                X                 Y                 Z
Electronic contribution:     -2.610882763     -10.157247822      -6.109285673
Nuclear contribution   :      1.728149378      11.140748313       8.514922595
                        -----------------------------------------
Total Dipole Moment    :     -0.882733385       0.983500491       2.405636921
                        -----------------------------------------
Magnitude (a.u.)       :      2.744736862
Magnitude (Debye)      :      6.976566666



--------------------
Rotational spectrum 
--------------------
 
Rotational constants in cm-1:             0.017945             0.016918             0.013048 
Rotational constants in MHz :           537.965123           507.191013           391.173726 

Dipole components along the rotational axes: 
x,y,z [a.u.] :     1.856987     0.698387     1.896691 
x,y,z [Debye]:     4.720086     1.775158     4.821005 

 

Dipole moment calculation done in   1.9 sec 

Maximum memory used throughout the entire PROP-calculation: 83.4 MB
[1737028020.775106] [ohm:265896:0]        ib_iface.c:1059 UCX  ERROR ibv_create_cq(cqe=256) failed: Connection timed out
[1737028020.798502] [ohm:265888:0]        ib_iface.c:1059 UCX  ERROR ibv_create_cq(cqe=256) failed: Connection timed out
[1737028020.799615] [ohm:265912:0]        ib_iface.c:1059 UCX  ERROR ibv_create_cq(cqe=256) failed: Connection timed out
[1737028020.817303] [ohm:265900:0]        ib_iface.c:1059 UCX  ERROR ibv_create_cq(cqe=256) failed: Connection timed out
[1737028020.825236] [ohm:265894:0]        ib_iface.c:1059 UCX  ERROR ibv_create_cq(cqe=256) failed: Connection timed out
[1737028020.826488] [ohm:265893:0]        ib_iface.c:1059 UCX  ERROR ibv_create_cq(cqe=256) failed: Connection timed out
[1737028020.827030] [ohm:265890:0]        ib_iface.c:1059 UCX  ERROR ibv_create_cq(cqe=256) failed: Connection timed out
[1737028020.827763] [ohm:265887:0]        ib_iface.c:1059 UCX  ERROR ibv_create_cq(cqe=256) failed: Connection timed out
[1737028020.830835] [ohm:265886:0]        ib_iface.c:1059 UCX  ERROR ibv_create_cq(cqe=256) failed: Connection timed out
[1737028020.832046] [ohm:265904:0]        ib_iface.c:1059 UCX  ERROR ibv_create_cq(cqe=256) failed: Connection timed out
[1737028020.834777] [ohm:265907:0]        ib_iface.c:1059 UCX  ERROR ibv_create_cq(cqe=256) failed: Connection timed out
[1737028020.839209] [ohm:265895:0]        ib_iface.c:1059 UCX  ERROR ibv_create_cq(cqe=256) failed: Connection timed out
[1737028020.841104] [ohm:265909:0]        ib_iface.c:1059 UCX  ERROR ibv_create_cq(cqe=256) failed: Connection timed out
[1737028020.847825] [ohm:265905:0]        ib_iface.c:1059 UCX  ERROR ibv_create_cq(cqe=256) failed: Connection timed out
[1737028020.850060] [ohm:265897:0]        ib_iface.c:1059 UCX  ERROR ibv_create_cq(cqe=256) failed: Connection timed out
[1737028020.854372] [ohm:265902:0]        ib_iface.c:1059 UCX  ERROR ibv_create_cq(cqe=256) failed: Connection timed out
[1737028020.854836] [ohm:265925:0]        ib_iface.c:1059 UCX  ERROR ibv_create_cq(cqe=256) failed: Connection timed out
[1737028020.856773] [ohm:265920:0]        ib_iface.c:1059 UCX  ERROR ibv_create_cq(cqe=256) failed: Connection timed out
[1737028020.862316] [ohm:265933:0]        ib_iface.c:1059 UCX  ERROR ibv_create_cq(cqe=256) failed: Connection timed out
[1737028020.866646] [ohm:265903:0]        ib_iface.c:1059 UCX  ERROR ibv_create_cq(cqe=256) failed: Connection timed out
[1737028020.873077] [ohm:265892:0]        ib_iface.c:1059 UCX  ERROR ibv_create_cq(cqe=256) failed: Connection timed out
[1737028020.875293] [ohm:265915:0]        ib_iface.c:1059 UCX  ERROR ibv_create_cq(cqe=256) failed: Connection timed out
[1737028020.889485] [ohm:265889:0]        ib_iface.c:1059 UCX  ERROR ibv_create_cq(cqe=256) failed: Connection timed out
[1737028020.891337] [ohm:265898:0]        ib_iface.c:1059 UCX  ERROR ibv_create_cq(cqe=256) failed: Connection timed out
[1737028020.896068] [ohm:265918:0]        ib_iface.c:1059 UCX  ERROR ibv_create_cq(cqe=256) failed: Connection timed out
[1737028020.896214] [ohm:265922:0]        ib_iface.c:1059 UCX  ERROR ibv_create_cq(cqe=256) failed: Connection timed out
[1737028020.897054] [ohm:265901:0]        ib_iface.c:1059 UCX  ERROR ibv_create_cq(cqe=256) failed: Connection timed out
[1737028020.899648] [ohm:265906:0]        ib_iface.c:1059 UCX  ERROR ibv_create_cq(cqe=256) failed: Connection timed out
[1737028020.900177] [ohm:265937:0]        ib_iface.c:1059 UCX  ERROR ibv_create_cq(cqe=256) failed: Connection timed out
[1737028020.903845] [ohm:265891:0]        ib_iface.c:1059 UCX  ERROR ibv_create_cq(cqe=256) failed: Connection timed out
[1737028020.905299] [ohm:265940:0]        ib_iface.c:1059 UCX  ERROR ibv_create_cq(cqe=256) failed: Connection timed out
[1737028020.910874] [ohm:265899:0]        ib_iface.c:1059 UCX  ERROR ibv_create_cq(cqe=256) failed: Connection timed out

--------------------------------
SUGGESTED CITATIONS FOR THIS RUN
--------------------------------

Below you find a list of papers that are relevant to this ORCA run
We neither can nor want to force you to cite these papers, but we appreciate if you do
You receive ORCA, which is the product of decades of hard work by many enthusiastic individuals, for free
The only thing we kindly ask in return is that you cite our papers,
We deeply appreciate it, if you show your appreciation for ORCA by not just citing the generic ORCA reference.

Please note that relegating all ORCA citations to the supporting information does *not* help us.
SI sections are not indexed - citations you put there will not count into any citation statistics
But we need these citations in order to attract the funding resources that allow us to do what we are doing

Therefore, if you are a happy ORCA user, please consider citing a few of the papers listed below in the main body of your paper

In addition to the list printed below, the program has created the file orca.bibtex that contains the list in bibtex format
You can import this file easily into all common literature databanks and citation aid programs


List of essential papers. We consider these as the minimum necessary citations

  1. Neese,F.
     Software update: the ORCA program system, version 5.0
     WIRES Comput. Molec. Sci., 2022 12(1)e1606
     doi.org/10.1002/wcms.1606

List of papers to cite with high priority. The work reported in these papers was absolutely
necessary for this run to complete.
Our perspective: the developers of density functionals and basis sets usually get cited in chemistry papers
Good! But without the algorithms to do something with them, the functionals or basis sets would not do anything.
Hence, in our opinion, the algorithm design and method developments papers are equally worthy of getting cited

  1. Neese,F.; Olbrich,G.
     Efficient use of the resolution of the identity approximation in time-dependent density functional calculations with hybrid density functionals
     Chem. Phys. Lett., 2002 362 170-178
     doi.org/10.1016/s0009-2614(02)01053-9
  2. Neese,F.
     An improvement of the resolution of the identity approximation for the formation of the Coulomb matrix
     J. Comp. Chem., 2003 24(14)1740-1747
     doi.org/10.1002/jcc.10318
  3. Neese,F.; Wennmohs,F.; Hansen,A.; Becker,U.
     Efficient, approximate and parallel Hartree-Fock and hybrid DFT calculations. A 'chain-of-spheres' algorithm for the Hartree-Fock exchange
     Chem. Phys., 2009 356(1-3)98-109
     doi.org/10.1016/j.chemphys.2008.10.036
  4. Petrenko,T.; Kossmann,S.; Neese,F.
     Efficient time-dependent density functional theory approximations for hybrid density functionals: Analytical gradients and parallelization
     J. Chem. Phys., 2011 134 054116
     doi.org/10.1063/1.3533441
  5. Helmich-Paris,B.; de Souza,B.; Neese,F.; Izsák,R.
     An improved chain of spheres for exchange algorithm
     J. Chem. Phys., 2021 155 104109
     doi.org/doi: 10.1063/5.0058766.
  6. Neese,F.
     The SHARK Integral Generation and Digestion System
     J. Comp. Chem., 2022  1-16
     doi.org/10.1002/jcc.26942
  7. Lehtola,S.; Steigemann,C.; Oliveira,M.; Marques,M.
     Recent developments in Libxc - A comprehensive library of functionals for density functional theory
     Software X, 2018 7 
     doi.org/10.1016/j.softx.2017.11.002
  8. Grimme,S.; Antony,J.; Ehrlich,S.; Krieg,H.
     A consistent and accurate ab initio parametrization of density functional dispersion correction (DFT-D) for the 94 elements H-Pu
     J. Chem. Phys., 2010 132 154104-XXXX
     doi.org/10.1063/1.3382344
  9. Grimme,S.; Ehrlich,S.; Goerigk,L.
     Effect of the damping function in dispersion corrected density functional theory
     J. Comput. Chem., 2011 32(7)1456-1465
     doi.org/10.1002/jcc.21759

List of suggested additional citations. These are papers that are important in the 'surrounding' of 
of this run, or papers that preceded the highly important papers. If you like your results we are grateful for a citation.

  1. Izsak,R.; Neese,F.
     An overlap fitted chain of spheres exchange method
     J. Chem. Phys., 2011 135 144105
     doi.org/10.1063/1.3646921
  2. Izsak,R.; Hansen,A.; Neese,F.
     The resolution of identity and chain of spheres approximations for the LPNO-CCSD singles Fock term
     Molec. Phys., 2012 110 2413-2417
     doi.org/10.1080/00268976.2012.687466
  3. Neese,F.
     The ORCA program system
     WIRES Comput. Molec. Sci., 2012 2(1)73-78
     doi.org/10.1002/wcms.81
  4. Izsak,R.; Neese,F.; Klopper,W.
     Robust fitting techniques in the chain of spheres approximation to the Fock exchange: The role of the complementary space
     J. Chem. Phys., 2013 139 
     doi.org/10.1063/1.4819264
  5. Neese,F.
     Software update: the ORCA program system, version 4.0
     WIRES Comput. Molec. Sci., 2018 8(1)1-6
     doi.org/10.1002/wcms.1327
  6. Neese,F.; Wennmohs,F.; Becker,U.; Riplinger,C.
     The ORCA quantum chemistry program package
     J. Chem. Phys., 2020 152 Art. No. L224108
     doi.org/10.1063/5.0004608

List of optional additional citations

  1. Neese,F.
     Approximate second-order SCF convergence for spin unrestricted wavefunctions
     Chem. Phys. Lett., 2000 325(1-3)93-98
     doi.org/10.1016/s0009-2614(00)00662-x

Timings for individual modules:

Sum of individual times          ...     2124.418 sec (=  35.407 min)
Startup calculation              ...       45.951 sec (=   0.766 min)   2.2 %
SCF iterations                   ...     1532.475 sec (=  25.541 min)  72.1 %
Property integrals               ...       12.626 sec (=   0.210 min)   0.6 %
Property calculations            ...        6.477 sec (=   0.108 min)   0.3 %
CIS module                       ...      526.889 sec (=   8.781 min)  24.8 %
                             ****ORCA TERMINATED NORMALLY****
TOTAL RUN TIME: 0 days 0 hours 35 minutes 27 seconds 146 msec
