30
Properties=species:S:1:pos:R:3:momenta:R:3:forces:R:3 Coordinates=T from=T ORCA-job=T orca=T E=T -908.935713707619=T energy=-24729.356274948244 free_energy=-24729.356274948244 stress="1.789475073517908e-06 -3.399704147687625e-07 4.222440484225551e-07 -3.399704147687625e-07 2.5095566916079674e-06 -1.7675054790199664e-06 4.222440484225551e-07 -1.7675054790199664e-06 -1.1274461223346011e-06" pbc="F F F"
O        2.55117445       1.19720223      -0.50198425      -0.38497494      -0.00914198       0.06187851      -0.49611256      -0.60012387       0.45483130
O       -0.63336136       0.84914634      -2.29095963      -0.18508022       0.13308422      -0.06902085       0.11883358       0.07212957      -0.68028903
O        0.57668618      -2.75901851      -1.54130744       0.05718183       0.23835626      -0.06447591       0.10726489      -0.09143336      -0.36529620
O       -2.45938491      -1.62172942       1.06099335      -0.04713813      -0.06602040      -0.25812920      -0.00292032       0.30062816      -0.12823287
N        0.64267111      -2.11957749       0.63908658      -0.01206068      -0.21803873      -0.12120469      -0.11531208      -0.79513837      -0.19098811
N       -2.01830360       0.58275192       1.43567743      -0.37494605       0.02917714      -0.06815369       0.20724706       0.24168113      -0.29151104
N        1.67845031      -0.84890032      -0.97570976       0.46116286       0.08876022       0.37967242       0.33461863       1.02775556       0.46230831
N       -1.60365279      -0.33830003      -0.63218875       0.39239376       0.03096583      -0.12394462      -0.36793055      -0.23465998       0.25018363
C        1.50939888       0.02744645       1.25401954      -0.55100637      -0.62575099       0.49936352      -2.12264325      -2.83469563       2.32824545
C       -0.90240858       1.92793434      -0.19735187       0.26985352      -0.25557264      -0.33729614       0.97803588      -1.01406300      -1.54833843
C        0.86468156      -1.14178568       1.57819004       0.23828826       1.19461640      -0.41762116       1.05815961       3.41407610      -2.02388509
C       -1.43517230       1.76915851       1.03472896      -0.35579728       0.11129236       0.37896389      -0.29278748      -0.47037234       1.79427909
C        1.76938445       1.09240998       2.25344259       0.32737063      -0.15137518      -0.16826729       0.24880189       0.84856759      -0.15689882
C       -0.23192128       3.17032917      -0.64893324      -0.08769765      -0.12323620       0.14937030       0.01008088       0.01638762      -0.21596714
C        1.96461940       0.20660582      -0.09787390       0.12526098       0.21880221      -0.46065478       0.58637491       0.25174673      -2.27692579
C       -1.01884561       0.81934972      -1.14012861       0.05190676       0.00105018       0.40051921       0.19027484       0.69721187       0.66290265
C        0.94213047      -1.97544271      -0.69934576      -0.17518140      -0.29377969       0.44629256      -0.59866241      -0.54842638       1.00266368
C       -2.06177013      -0.54544361       0.64905373       0.08608608      -0.08855606      -0.15766905      -0.01667018      -0.41935976      -0.06583867
H        0.48774700      -1.35998261       2.56218442      -0.01996653      -0.03840822       0.07985799       0.01350326       0.12007561       0.18156854
H       -1.40833823       2.54684981       1.76407251       0.04504654       0.01097709       0.04108696       0.01946230       0.17846843       0.27790513
H        1.37189973       2.05433178       1.89149008       0.07942155      -0.01745703       0.02357098       0.11495708      -0.27629221       0.20106964
H        1.31199006       0.84540709       3.21370524      -0.08003562      -0.02889186      -0.06603833       0.10958286       0.11893171      -0.11057999
H        2.85191084       1.23923959       2.36583004       0.01173427      -0.06753597       0.02057348      -0.30436280      -0.00671905       0.16696295
H       -0.70684862       3.53556796      -1.57230703       0.00298790      -0.08191737      -0.02699353       0.14611028      -0.01052241       0.25088913
H       -0.26098719       3.93677159       0.12072529      -0.03079456       0.01103662      -0.03026124      -0.07247223       0.04278632      -0.02270811
H        0.81774085       2.97411816      -0.89525624       0.04724020      -0.00810186       0.06638538      -0.09697444      -0.10073692       0.02643353
H        0.00080183      -2.88129289       0.84749240       0.07236148      -0.00423385      -0.07091519       0.21148476       0.30910917      -0.17819584
H       -2.34381059       0.46102475       2.37281754       0.03909986      -0.06525102       0.03605487       0.04288785      -0.03019764       0.19144805
H        1.85600762      -0.68154061      -1.96183031      -0.01214762       0.00621348      -0.10178152      -0.00943335       0.03487206       0.19441374
H       -1.64386641      -1.12193415      -1.25160413       0.00943057       0.06893702      -0.04116288      -0.00139891      -0.24168668      -0.19044970
