30
Properties=species:S:1:pos:R:3:momenta:R:3:forces:R:3 Coordinates=T from=T ORCA-job=T orca=T E=T -908.777246831348=T energy=-24728.416483880595 free_energy=-24728.416483880595 stress="1.1198171552354992e-06 5.747737656155999e-07 -9.200879801877176e-07 5.747737656155999e-07 -3.4115165644205536e-07 2.5382816322388367e-08 -9.200879801877176e-07 2.5382816322388367e-08 -1.4204409095496613e-06" pbc="F F F"
O        3.68271354       0.62047588      -0.28456222       0.71173235      -0.13362132      -0.64651686       1.43031382       0.37667717      -0.44115489
O       -1.51535930       0.83835557      -2.34056620       0.23891031      -0.52257855       0.28021144       0.04325863       0.51639675      -1.62971936
O        0.75301903      -2.65983317      -1.50280075      -0.19608251       0.54083228      -0.70851416      -0.38939859      -1.28047804      -1.39146053
O       -3.92856185      -0.70448636       1.04394213      -0.84613491       0.76642481       0.37887555       0.63573208       0.18159102      -0.03384909
N        0.37827696      -1.49669619       0.42764244       0.90310242      -0.03070989      -0.90514795      -0.68356622      -0.38996254      -0.12356506
N       -1.84513210       0.02483333       1.58451510      -0.03355593      -0.48826078       1.14080481       1.30001616       0.31924687      -0.31592810
N        2.19516158      -0.96523420      -0.91952719      -0.54242660       0.30443923       0.08698553       0.52801626      -0.33615360      -1.34701692
N       -2.46007837      -0.22471097      -0.60380080       0.68121327       0.22048283       1.25296990      -1.77837050      -0.71052606      -0.89319304
C        1.85448066       0.35321412       1.02955699       0.67657282      -0.23854123      -0.30275397       0.28940883       0.34763328       2.22896961
C       -0.65162691       1.25731272      -0.18185097      -1.21790073      -0.20408997      -0.64634835       0.28400596       1.19909001      -0.42786895
C        0.59464826      -0.36078372       1.27570429       0.14985397      -0.36122263       0.62183429       0.47042851       0.21820661      -1.22096258
C       -0.55949088       0.64925157       1.16902282      -0.03680157      -0.21963919       0.10152842      -1.00634339       0.76739604       1.49384949
C        2.32760968       1.47656512       1.95758339       0.57872826      -0.41668889      -0.40113658      -1.89867012      -1.20975073       0.80101353
C        0.19039622       2.47505682      -0.65301815      -0.07580799      -0.49752332       0.22699363       1.13530835      -4.03743035       0.31837417
C        2.69014878      -0.00311875      -0.03680686      -0.81339698      -0.24270602       0.25871081      -0.89966999      -0.24852593      -1.13067741
C       -1.55152229       0.64281816      -1.17432494       0.10231966       0.12586153       0.17103892       0.59518712       0.02739138       1.95838548
C        1.06247950      -1.80939007      -0.77355718      -0.17444858       0.48606041      -0.38274205       0.05726530       2.07470706       2.50715544
C       -2.81174202      -0.31251981       0.72104104      -0.29250962       0.80056027       0.51299600      -1.10565927      -0.26227451       0.18903554
H        0.56313622      -0.72921024       2.25391273       0.18398029      -0.14863942      -0.32355435       0.06912377      -0.19057120       1.56054060
H       -0.31735848       1.36531200       2.01960590       0.33390347      -0.15861629      -0.00842961      -0.24258985      -0.19153936      -1.19847720
H        3.37571869       1.48216302       2.05302183      -0.13756075       0.07071103      -0.13258737       1.06781922      -0.08192025      -0.06412448
H        2.03874920       2.40967782       1.51239496      -0.01998488       0.15886612       0.25336800      -0.11105329       0.56071784       0.04921229
H        1.87848045       1.39980082       3.02685167      -0.00388525      -0.18671293      -0.17191148       0.40965357       0.07312998      -1.53413863
H        0.31691826       3.16980322       0.13124765      -0.09213582       0.14649246      -0.33125687      -0.04033247       0.78249189       0.43209654
H        1.26932599       1.97187408      -0.84904123       0.09902292       0.04991695      -0.01990806      -1.75093119       1.36568036      -0.04044595
H       -0.27929948       2.79965157      -1.54896878       0.15550601      -0.05611836       0.07749980       0.11446120       0.61503839      -0.50679706
H       -0.58955185      -1.81242022       0.68934912       0.10049476      -0.09490575       0.03569268       1.24709983      -0.36289424      -1.14942739
H       -2.15072299       0.14109443       2.51699902      -0.18955401       0.38558019      -0.08116175      -0.12042985       0.03324469       0.59373517
H        2.70785372      -0.96493419      -1.84487963      -0.13870794       0.04035651      -0.08781497      -0.75527793      -0.31758273       1.27216968
H       -3.32505678      -0.45288128      -1.14358714      -0.10444644      -0.09601009      -0.24972539       1.10519405       0.16097019       0.04426910
