7
Properties=species:S:1:pos:R:3:momenta:R:3:forces:R:3 Coordinates=T from=T ORCA-job=T orca=T E=T -153.876068333117=T energy=-4181.238494422686 free_energy=-4181.238494422686 stress="-1.774761356234643e-05 -2.5183738728869156e-05 1.183385432004664e-07 -2.5183738728869156e-05 -4.7327260028842306e-05 3.5754376761479044e-08 1.183385432004664e-07 3.5754376761479044e-08 1.8136253106830032e-07" pbc="F F F"
O        0.09837710       0.85844283      -0.00051294       0.63049816       1.69271658      -0.01431344       3.26711461       6.30145999       0.01122757
C        0.68671219      -0.39418655       0.00017371      -0.05533275      -0.46729992      -0.09056935      -0.23225819      -1.42307548      -0.07975111
C       -0.73379626      -0.54702800       0.00075817      -0.62319322      -1.45592837       0.10971967      -3.08464740      -5.62403079      -0.03421420
H        1.23975750      -0.64267614       0.90496941       0.01312600       0.10195753       0.01923170       0.18205095       0.36081715      -0.01142468
H        1.23782248      -0.63203463      -0.91094071       0.02664981       0.12130807      -0.02833997       0.15835803       0.33158614       0.06611188
H       -1.26297275      -0.67293268      -0.92662940       0.00645329      -0.03363188      -0.01199570      -0.12509335       0.03916066       0.00370427
H       -1.25975404      -0.66138654       0.92907126       0.00179871       0.04087799       0.01626709      -0.16552465       0.01408232       0.04434627
