
                                 *****************
                                 * O   R   C   A *
                                 *****************

                                            #,                                       
                                            ###                                      
                                            ####                                     
                                            #####                                    
                                            ######                                   
                                           ########,                                 
                                     ,,################,,,,,                         
                               ,,#################################,,                 
                          ,,##########################################,,             
                       ,#########################################, ''#####,          
                    ,#############################################,,   '####,        
                  ,##################################################,,,,####,       
                ,###########''''           ''''###############################       
              ,#####''   ,,,,##########,,,,          '''####'''          '####       
            ,##' ,,,,###########################,,,                        '##       
           ' ,,###''''                  '''############,,,                           
         ,,##''                                '''############,,,,        ,,,,,,###''
      ,#''                                            '''#######################'''  
     '                                                          ''''####''''         
             ,#######,   #######,   ,#######,      ##                                
            ,#'     '#,  ##    ##  ,#'     '#,    #''#        ,####,   ,####,        
            ##       ##  ##   ,#'  ##            #'  '#       #'       #'  '#        
            ##       ##  #######   ##           ,######,      #####,   #    #        
            '#,     ,#'  ##    ##  '#,     ,#' ,#      #,     #,   #   #,  ,#        
             '#######'   ##     ##  '#######'  #'      '#     '####' # '####'        



                #########################################################
                #                        -***-                          #
                #          Department of theory and spectroscopy        #
                #                                                       #
                #                      Frank Neese                      #
                #                                                       #
                #     Directorship, Architecture, Infrastructure        #
                #                    SHARK, DRIVERS                     #
                #        Core code/Algorithms in most modules           #
                #                                                       #
                #        Max Planck Institute fuer Kohlenforschung      #
                #                Kaiser Wilhelm Platz 1                 #
                #                 D-45470 Muelheim/Ruhr                 #
                #                      Germany                          #
                #                                                       #
                #                  All rights reserved                  #
                #                        -***-                          #
                #########################################################


                         Program Version 6.0.0  -   RELEASE  -


 With contributions from (in alphabetic order):
   Daniel Aravena         : Magnetic Suceptibility
   Michael Atanasov       : Ab Initio Ligand Field Theory (pilot matlab implementation)
   Alexander A. Auer      : GIAO ZORA, VPT2 properties, NMR spectrum
   Ute Becker             : All parallelization in ORCA, NUMFREQ, NUMCALC
   Giovanni Bistoni       : ED, misc. LED, open-shell LED, HFLD
   Martin Brehm           : Molecular dynamics
   Dmytro Bykov           : pre 5.0 version of the SCF Hessian
   Marcos Casanova-Páez   : Triplet and SCS-CIS(D). UHF-(DLPNO)-IP/EA/STEOM-CCSD. UHF-CVS-IP/STEOM-CCSD
   Vijay G. Chilkuri      : MRCI spin determinant printing, contributions to CSF-ICE
   Pauline Colinet        : FMM embedding
   Dipayan Datta          : RHF DLPNO-CCSD density
   Achintya Kumar Dutta   : EOM-CC, STEOM-CC
   Nicolas Foglia         : Exact transition moments, OPA infrastructure, MCD improvements
   Dmitry Ganyushin       : Spin-Orbit,Spin-Spin,Magnetic field MRCI
   Miquel Garcia          : C-PCM and meta-GGA Hessian, CCSD/C-PCM, Gaussian charge scheme
   Tiago L. C. Gouveia    : GS-ROHF, GS-ROCIS
   Yang Guo               : DLPNO-NEVPT2, F12-NEVPT2, CIM, IAO-localization
   Andreas Hansen         : Spin unrestricted coupled pair/coupled cluster methods
   Ingolf Harden          : AUTO-CI MPn and infrastructure 
   Benjamin Helmich-Paris : MC-RPA, TRAH-(SCF,CASSCF), AVAS, COSX integrals, SCF dyn. polar.
   Lee Huntington         : MR-EOM, pCC
   Robert Izsak           : Overlap fitted RIJCOSX, COSX-SCS-MP3, EOM
   Riya Kayal             : Wick's Theorem for AUTO-CI, AUTO-CI UHF-CCSDT
   Emily Kempfer          : AUTO-CI, RHF CISDT and CCSDT
   Christian Kollmar      : KDIIS, OOCD, Brueckner-CCSD(T), CCSD density, CASPT2, CASPT2-K, improved NEVPT2
   Axel Koslowski         : Symmetry handling
   Simone Kossmann        : Meta GGA functionals, TD-DFT gradient, OOMP2, (MP2 Hessian; deprecated post 5.0)
   Lucas Lang             : DCDCAS
   Marvin Lechner         : AUTO-CI (C++ implementation), FIC-MRCC
   Spencer Leger          : CASSCF response
   Dagmar Lenk            : GEPOL surface, SMD, ORCA-2-JSON
   Dimitrios Liakos       : Extrapolation schemes; Compound Job, initial MDCI parallelization
   Dimitrios Manganas     : Further ROCIS development; embedding schemes. LFT, Crystal Embedding
   Dimitrios Pantazis     : SARC Basis sets
   Anastasios Papadopoulos: AUTO-CI, single reference methods and gradients
   Taras Petrenko         : pre 6.0 DFT Hessian and TD-DFT gradient, (ASA, deprecated), ECA, 1-Electron XAS/XES, NRVS
   Peter Pinski           : DLPNO-MP2, DLPNO-MP2 Gradient
   Christoph Reimann      : Effective Core Potentials
   Marius Retegan         : Local ZFS, SOC
   Christoph Riplinger    : Optimizer, TS searches, QM/MM, DLPNO-CCSD(T), (RO)-DLPNO pert. Triples
   Michael Roemelt        : Original ROCIS implementation
   Masaaki Saitow         : Open-shell DLPNO-CCSD energy and density
   Barbara Sandhoefer     : DKH picture change effects
   Kantharuban Sivalingam : CASSCF convergence/infrastructure, NEVPT2 and variants, FIC-MRCI
   Bernardo de Souza      : ESD, SOC TD-DFT
   Georgi Stoychev        : AutoAux, RI-MP2 NMR, DLPNO-MP2 response, X2C
   Van Anh Tran           : RI-MP2 g-tensors
   Willem Van den Heuvel  : Paramagnetic NMR
   Zikuan Wang            : NOTCH, Electric field optimization 
   Frank Wennmohs         : Technical directorship and infrastructure
   Hang Xu                : AUTO-CI-Response properties 


 We gratefully acknowledge several colleagues who have allowed us to
 interface, adapt or use parts of their codes:
   Stefan Grimme, W. Hujo, H. Kruse, P. Pracht,  : VdW corrections, initial TS optimization,
                  C. Bannwarth, S. Ehlert,         DFT functionals, gCP, sTDA/sTD-DF
                  L. Wittmann, M. Mueller
   Ed Valeev, F. Pavosevic, A. Kumar             : LibInt (2-el integral package), F12 methods
   Garnet Chan, S. Sharma, J. Yang, R. Olivares  : DMRG
   Ulf Ekstrom                                   : XCFun DFT Library
   Mihaly Kallay                                 : mrcc  (arbitrary order and MRCC methods)
   Frank Weinhold                                : gennbo (NPA and NBO analysis)
   Simon Mueller                                 : openCOSMO-RS
   Christopher J. Cramer and Donald G. Truhlar   : smd solvation model
   Lars Goerigk                                  : TD-DFT with DH, B97 family of functionals
   V. Asgeirsson, H. Jonsson                     : NEB implementation
   FAccTs GmbH                                   : IRC, NEB, NEB-TS, DLPNO-Multilevel, CI-OPT
                                                   MM, QMMM, 2- and 3-layer-ONIOM, Crystal-QMMM,
                                                   LR-CPCM, SF, NACMEs, symmetry and pop. for TD-DFT,
                                                   nearIR, NL-DFT gradient (VV10), updates on ESD,
                                                   ML-optimized integration grids, MBIS, APM,
                                                   GOAT, DOCKER, SOLVATOR, interface openCOSMO-RS
   S Lehtola, MJT Oliveira, MAL Marques          : LibXC Library
   Liviu Ungur et al                             : ANISO software


 Your calculation uses the libint2 library for the computation of 2-el integrals
 For citations please refer to: http://libint.valeyev.net

 Your ORCA version has been built with support for libXC version: 6.2.2
 For citations please refer to: https://libxc.gitlab.io

 This ORCA versions uses:
   CBLAS   interface :  Fast vector & matrix operations
   LAPACKE interface :  Fast linear algebra routines
   SCALAPACK package :  Parallel linear algebra routines
   Shared memory     :  Shared parallel matrices
   BLAS/LAPACK       :  OpenBLAS 0.3.27  USE64BITINT DYNAMIC_ARCH NO_AFFINITY Zen SINGLE_THREADED
        Core in use  :  Zen
   Copyright (c) 2011-2014, The OpenBLAS Project


Your calculation utilizes the atom-pairwise dispersion correction
with the Becke-Johnson damping scheme (D3BJ)


Warning: RI is on but no J-basis has been assigned. Assigning Def2/J (nothing to worry about!)
================================================================================

----- Orbital basis set information -----
Your calculation utilizes the basis: def2-TZVPPD
   F. Weigend and R. Ahlrichs, Phys. Chem. Chem. Phys. 7, 3297 (2005).
   D. Rappoport and F. Furche, J. Chem. Phys. 133, 134105 (2010)
   D. Rappoport, J. Chem. Phys. 155, 124102 (2021).

----- AuxJ basis set information -----
Your calculation utilizes the auxiliary basis: def2/J
   F. Weigend, Phys. Chem. Chem. Phys. 8, 1057 (2006).

================================================================================
                                        WARNINGS
                       Please study these warnings very carefully!
================================================================================

Using LibXC functional ID 531 : wB97M-V exchange-correlation functional
[ 1]  N. Mardirossian and M. Head-Gordon.,  J. Chem. Phys. 144, 214110 (2016)
Using LibXC functional ID 531 : wB97M-V exchange-correlation functional
[ 1]  N. Mardirossian and M. Head-Gordon.,  J. Chem. Phys. 144, 214110 (2016)

WARNING: B97M-V or wB97M-V functional requested.
  ===> : libXC variant has now been activated.
         Any manually given DFX/HFX/RangeSep scaling parameters are IGNORED!

Your calculation utilizes LibXC
 by S Lehtola, C Steigemann, MJT Oliveira & MAL Marques
Please cite in your paper:
 S Lehtola, C Steigemann, MJT Oliveira & MAL Marques, SoftwareX, 7, (2018), 1.
   


WARNING: your system is open-shell and RHF/RKS was chosen
  ===> : WILL SWITCH to UHF/UKS

INFO   : Checking CIS options ...

WARNING: CIS/ROCIS methods need fully converged wavefunctions
  ===> : Setting SCFConvForced true
         You can overwrite this default with %scf ConvForced false 


================================================================================
                                       INPUT FILE
================================================================================
NAME = orca.inp
|  1> ! Engrad wB97M-D3BJ def2-TZVPPD 
|  2> %pal nprocs 8 end%pal nprocs 16 end 
|  3> %tddft nroots 2 Iroot 1
|  4>  sf true 
|  5> end 
|  6> *xyz 0 3 
|  7> O   1.68980018673932 0.92651620460589 0.03453870748625
|  8> C   0.97269106430694 -0.01975908023354 0.20126745722167
|  9> C   -0.30213799702798 -0.6701195482967 -0.25155575370317
| 10> H   1.35569976754475 -0.72332365775621 0.98961403560017
| 11> H   -0.02717912989727 -1.66968703786582 -0.58468277648387
| 12> H   -0.86198448240563 -0.15544329864305 -1.03043245517306
| 13> H   -0.91552391352969 -0.78171977827174 0.64125078505201
| 14> *
| 15> 
| 16>                          ****END OF INPUT****
================================================================================

                     *******************************
                     * Energy+Gradient Calculation *
                     *******************************

---------------------------------
CARTESIAN COORDINATES (ANGSTROEM)
---------------------------------
  O      1.689800    0.926516    0.034539
  C      0.972691   -0.019759    0.201267
  C     -0.302138   -0.670120   -0.251556
  H      1.355700   -0.723324    0.989614
  H     -0.027179   -1.669687   -0.584683
  H     -0.861984   -0.155443   -1.030432
  H     -0.915524   -0.781720    0.641251

----------------------------
CARTESIAN COORDINATES (A.U.)
----------------------------
  NO LB      ZA    FRAG     MASS         X           Y           Z
   0 O     8.0000    0    15.999    3.193260    1.750862    0.065269
   1 C     6.0000    0    12.011    1.838120   -0.037339    0.380340
   2 C     6.0000    0    12.011   -0.570958   -1.266342   -0.475371
   3 H     1.0000    0     1.008    2.561901   -1.366884    1.870100
   4 H     1.0000    0     1.008   -0.051361   -3.155251   -1.104890
   5 H     1.0000    0     1.008   -1.628915   -0.293745   -1.947235
   6 H     1.0000    0     1.008   -1.730089   -1.477236    1.211788

--------------------------------
INTERNAL COORDINATES (ANGSTROEM)
--------------------------------
 O      0   0   0     0.000000000000     0.00000000     0.00000000
 C      1   0   0     1.198949908946     0.00000000     0.00000000
 C      2   1   0     1.501068530879   143.89830956     0.00000000
 H      2   1   3     1.123916860422   112.81668686   179.98378255
 H      3   2   1     1.088903649605   105.99514197   122.97570504
 H      3   2   1     1.088562651040   116.60138766   359.95654570
 H      3   2   1     1.088944631070   105.98933776   236.90951483

---------------------------
INTERNAL COORDINATES (A.U.)
---------------------------
 O      0   0   0     0.000000000000     0.00000000     0.00000000
 C      1   0   0     2.265686976198     0.00000000     0.00000000
 C      2   1   0     2.836608431609   143.89830956     0.00000000
 H      2   1   3     2.123895063495   112.81668686   179.98378255
 H      3   2   1     2.057729683982   105.99514197   122.97570504
 H      3   2   1     2.057085290081   116.60138766   359.95654570
 H      3   2   1     2.057807127727   105.98933776   236.90951483

---------------------
BASIS SET INFORMATION
---------------------
There are 3 groups of distinct atoms

 Group   1 Type O   : 12s7p3d1f contracted to 6s4p3d1f pattern {621111/4111/111/1}
 Group   2 Type C   : 12s6p3d1f contracted to 6s3p3d1f pattern {621111/411/111/1}
 Group   3 Type H   : 5s3p1d contracted to 3s3p1d pattern {311/111/1}

Atom   0O    basis set group =>   1
Atom   1C    basis set group =>   2
Atom   2C    basis set group =>   2
Atom   3H    basis set group =>   3
Atom   4H    basis set group =>   3
Atom   5H    basis set group =>   3
Atom   6H    basis set group =>   3
---------------------------------
AUXILIARY/J BASIS SET INFORMATION
---------------------------------
There are 3 groups of distinct atoms

 Group   1 Type O   : 12s5p4d2f1g contracted to 6s4p3d1f1g pattern {711111/2111/211/2/1}
 Group   2 Type C   : 12s5p4d2f1g contracted to 6s4p3d1f1g pattern {711111/2111/211/2/1}
 Group   3 Type H   : 5s2p1d contracted to 3s1p1d pattern {311/2/1}

Atom   0O    basis set group =>   1
Atom   1C    basis set group =>   2
Atom   2C    basis set group =>   2
Atom   3H    basis set group =>   3
Atom   4H    basis set group =>   3
Atom   5H    basis set group =>   3
Atom   6H    basis set group =>   3
[1739830758.131009] [ohm:3859994:0]        ib_iface.c:1059 UCX  ERROR ibv_create_cq(cqe=256) failed: Connection timed out
[1739830758.131018] [ohm:3859996:0]        ib_iface.c:1059 UCX  ERROR ibv_create_cq(cqe=256) failed: Connection timed out
[1739830758.131002] [ohm:3859998:0]        ib_iface.c:1059 UCX  ERROR ibv_create_cq(cqe=256) failed: Connection timed out
[1739830758.135209] [ohm:3859995:0]        ib_iface.c:1059 UCX  ERROR ibv_create_cq(cqe=256) failed: Connection timed out
[1739830758.140066] [ohm:3859993:0]        ib_iface.c:1059 UCX  ERROR ibv_create_cq(cqe=256) failed: Connection timed out
[1739830758.140509] [ohm:3859992:0]        ib_iface.c:1059 UCX  ERROR ibv_create_cq(cqe=256) failed: Connection timed out
[1739830758.144972] [ohm:3859991:0]        ib_iface.c:1059 UCX  ERROR ibv_create_cq(cqe=256) failed: Connection timed out
[1739830758.151697] [ohm:3860001:0]        ib_iface.c:1059 UCX  ERROR ibv_create_cq(cqe=256) failed: Connection timed out
[1739830758.155907] [ohm:3859997:0]        ib_iface.c:1059 UCX  ERROR ibv_create_cq(cqe=256) failed: Connection timed out
[1739830758.155908] [ohm:3859999:0]        ib_iface.c:1059 UCX  ERROR ibv_create_cq(cqe=256) failed: Connection timed out
[1739830758.169253] [ohm:3860016:0]        ib_iface.c:1059 UCX  ERROR ibv_create_cq(cqe=256) failed: Connection timed out
[1739830758.171097] [ohm:3860006:0]        ib_iface.c:1059 UCX  ERROR ibv_create_cq(cqe=256) failed: Connection timed out
[1739830758.174432] [ohm:3860004:0]        ib_iface.c:1059 UCX  ERROR ibv_create_cq(cqe=256) failed: Connection timed out
[1739830758.174431] [ohm:3860011:0]        ib_iface.c:1059 UCX  ERROR ibv_create_cq(cqe=256) failed: Connection timed out
[1739830758.175166] [ohm:3860003:0]        ib_iface.c:1059 UCX  ERROR ibv_create_cq(cqe=256) failed: Connection timed out
[1739830758.175151] [ohm:3860020:0]        ib_iface.c:1059 UCX  ERROR ibv_create_cq(cqe=256) failed: Connection timed out


           ************************************************************
           *        Program running with 16 parallel MPI-processes    *
           *              working on a common directory               *
           ************************************************************
------------------------------------------------------------------------------
                             ORCA STARTUP CALCULATIONS
                           -- RI-GTO INTEGRALS CHOSEN --
------------------------------------------------------------------------------
------------------------------------------------------------------------------
                   ___                                                        
                  /   \      - P O W E R E D   B Y -                         
                 /     \                                                     
                 |  |  |   _    _      __       _____    __    __             
                 |  |  |  | |  | |    /  \     |  _  \  |  |  /  |          
                  \  \/   | |  | |   /    \    | | | |  |  | /  /          
                 / \  \   | |__| |  /  /\  \   | |_| |  |  |/  /          
                |  |  |   |  __  | /  /__\  \  |    /   |      \           
                |  |  |   | |  | | |   __   |  |    \   |  |\   \          
                \     /   | |  | | |  |  |  |  | |\  \  |  | \   \       
                 \___/    |_|  |_| |__|  |__|  |_| \__\ |__|  \__/        
                                                                              
                      - O R C A' S   B I G   F R I E N D -                    
                                      &                                       
                       - I N T E G R A L  F E E D E R -                       
                                                                              
 v1 FN, 2020, v2 2021, v3 2022-2024                                           
------------------------------------------------------------------------------


----------------------
SHARK INTEGRAL PACKAGE
----------------------

Number of atoms                             ...      7
Number of basis functions                   ...    182
Number of shells                            ...     68
Maximum angular momentum                    ...      3
Integral batch strategy                     ... SHARK/LIBINT Hybrid
RI-J (if used) integral strategy            ... SPLIT-RIJ (Revised 2003 algorithm where possible)
Printlevel                                  ...      1
Contraction scheme used                     ... SEGMENTED contraction
Prescreening option                         ... SCHWARTZ
   Thresh                                   ... 2.500e-11
   Tcut                                     ... 2.500e-12
   Tpresel                                  ... 2.500e-12 
Coulomb Range Separation                    ... NOT USED
Exchange Range Separation                   ... Long Range
   Mu parameter                             ... 3.000e-01
   Scaling (regular/separated)              ... 1.500e-01 8.500e-01
Multipole approximations                    ... NOT USED
Finite Nucleus Model                        ... NOT USED
CABS basis                                  ... NOT available
Auxiliary Coulomb fitting basis             ... AVAILABLE
   # of basis functions in Aux-J            ...    191
   # of shells in Aux-J                     ...     65
   Maximum angular momentum in Aux-J        ...      4
Auxiliary J/K fitting basis                 ... NOT available
Auxiliary Correlation fitting basis         ... NOT available
Auxiliary 'external' fitting basis          ... NOT available

Checking pre-screening integrals            ... done (  0.0 sec) Dimension = 68
Check shell pair data                       ... done (  0.0 sec)
Shell pair information
Shell pair cut-off parameter TPreSel        ...   2.5e-12
Total number of shell pairs                 ...      2346
Shell pairs after pre-screening             ...      2321
Total number of primitive shell pairs       ...      5434
Primitive shell pairs kept                  ...      4792
          la=0 lb=0:    453 shell pairs
          la=1 lb=0:    653 shell pairs
          la=1 lb=1:    253 shell pairs
          la=2 lb=0:    384 shell pairs
          la=2 lb=1:    286 shell pairs
          la=2 lb=2:     91 shell pairs
          la=3 lb=0:     90 shell pairs
          la=3 lb=1:     66 shell pairs
          la=3 lb=2:     39 shell pairs
          la=3 lb=3:      6 shell pairs

Calculating one electron integrals          ... done (  0.0 sec)
Calculating RI/J V-Matrix + Cholesky decomp.... done (  0.0 sec)
Calculating Nuclear repulsion               ... done (  0.0 sec) ENN=     69.161861528715 Eh

Diagonalization of the overlap matrix:
Smallest eigenvalue                        ... 1.301e-05
Time for diagonalization                   ...    0.003 sec
Threshold for overlap eigenvalues          ... 1.000e-07
Number of eigenvalues below threshold      ... 0
Time for construction of square roots      ...    0.001 sec
Total time needed                          ...    0.005 sec

-------------------
DFT GRID GENERATION
-------------------

General Integration Accuracy     IntAcc      ... 4.388
Radial Grid Type                 RadialGrid  ... OptM3 with GC (2021)
Angular Grid (max. ang.)         AngularGrid ... 4 (Lebedev-302)
Angular grid pruning method      GridPruning ... 4 (adaptive)
Weight generation scheme         WeightScheme... mBecke (2022)
Basis function cutoff            BFCut       ... 1.0000e-11
Integration weight cutoff        WCut        ... 1.0000e-14
Partially contracted basis set               ... off
Rotationally invariant grid construction     ... off
Angular grids for H and He will be reduced by one unit
Diffuse basis detected: some atoms will have their outermost
                        angular grid increased by 1.

Total number of grid points                  ...    33139
Total number of batches                      ...      521
Average number of points per batch           ...       63
Average number of grid points per atom       ...     4734

--------------------
COSX GRID GENERATION
--------------------

GRIDX 1
-------
General Integration Accuracy     IntAcc      ... 3.816
Radial Grid Type                 RadialGrid  ... OptM3 with GC (2021)
Angular Grid (max. ang.)         AngularGrid ... 1 (Lebedev-50)
Angular grid pruning method      GridPruning ... 4 (adaptive)
Weight generation scheme         WeightScheme... mBecke (2022)
Basis function cutoff            BFCut       ... 1.0000e-11
Integration weight cutoff        WCut        ... 1.0000e-14
Partially contracted basis set               ... on
Rotationally invariant grid construction     ... off
Angular grids for H and He will be reduced by one unit
Diffuse basis detected: some atoms will have their outermost
                        angular grid increased by 1.

Total number of grid points                  ...     4166
Total number of batches                      ...       36
Average number of points per batch           ...      115
Average number of grid points per atom       ...      595
UseSFitting                                  ... on

GRIDX 2
-------
General Integration Accuracy     IntAcc      ... 4.020
Radial Grid Type                 RadialGrid  ... OptM3 with GC (2021)
Angular Grid (max. ang.)         AngularGrid ... 2 (Lebedev-110)
Angular grid pruning method      GridPruning ... 4 (adaptive)
Weight generation scheme         WeightScheme... mBecke (2022)
Basis function cutoff            BFCut       ... 1.0000e-11
Integration weight cutoff        WCut        ... 1.0000e-14
Partially contracted basis set               ... on
Rotationally invariant grid construction     ... off
Angular grids for H and He will be reduced by one unit
Diffuse basis detected: some atoms will have their outermost
                        angular grid increased by 1.

Total number of grid points                  ...    10293
Total number of batches                      ...       84
Average number of points per batch           ...      122
Average number of grid points per atom       ...     1470
UseSFitting                                  ... on

GRIDX 3
-------
General Integration Accuracy     IntAcc      ... 4.338
Radial Grid Type                 RadialGrid  ... OptM3 with GC (2021)
Angular Grid (max. ang.)         AngularGrid ... 3 (Lebedev-194)
Angular grid pruning method      GridPruning ... 4 (adaptive)
Weight generation scheme         WeightScheme... mBecke (2022)
Basis function cutoff            BFCut       ... 1.0000e-11
Integration weight cutoff        WCut        ... 1.0000e-14
Partially contracted basis set               ... on
Rotationally invariant grid construction     ... off
Angular grids for H and He will be reduced by one unit
Diffuse basis detected: some atoms will have their outermost
                        angular grid increased by 1.

Total number of grid points                  ...    23108
Total number of batches                      ...      184
Average number of points per batch           ...      125
Average number of grid points per atom       ...     3301
UseSFitting                                  ... on
Initializing property integral containers    ... done (  0.0 sec)

SHARK setup successfully completed in   0.3 seconds

Maximum memory used throughout the entire STARTUP-calculation: 13.8 MB
[1739830759.116189] [ohm:3860086:0]        ib_iface.c:1059 UCX  ERROR ibv_create_cq(cqe=256) failed: Connection timed out
[1739830759.116189] [ohm:3860090:0]        ib_iface.c:1059 UCX  ERROR ibv_create_cq(cqe=256) failed: Connection timed out
[1739830759.127515] [ohm:3860088:0]        ib_iface.c:1059 UCX  ERROR ibv_create_cq(cqe=256) failed: Connection timed out
[1739830759.128970] [ohm:3860089:0]        ib_iface.c:1059 UCX  ERROR ibv_create_cq(cqe=256) failed: Connection timed out
[1739830759.128975] [ohm:3860091:0]        ib_iface.c:1059 UCX  ERROR ibv_create_cq(cqe=256) failed: Connection timed out
[1739830759.129067] [ohm:3860087:0]        ib_iface.c:1059 UCX  ERROR ibv_create_cq(cqe=256) failed: Connection timed out
[1739830759.130306] [ohm:3860092:0]        ib_iface.c:1059 UCX  ERROR ibv_create_cq(cqe=256) failed: Connection timed out
[1739830759.130296] [ohm:3860095:0]        ib_iface.c:1059 UCX  ERROR ibv_create_cq(cqe=256) failed: Connection timed out
[1739830759.130481] [ohm:3860098:0]        ib_iface.c:1059 UCX  ERROR ibv_create_cq(cqe=256) failed: Connection timed out
[1739830759.130607] [ohm:3860085:0]        ib_iface.c:1059 UCX  ERROR ibv_create_cq(cqe=256) failed: Connection timed out
[1739830759.131334] [ohm:3860093:0]        ib_iface.c:1059 UCX  ERROR ibv_create_cq(cqe=256) failed: Connection timed out
[1739830759.131335] [ohm:3860097:0]        ib_iface.c:1059 UCX  ERROR ibv_create_cq(cqe=256) failed: Connection timed out
[1739830759.159343] [ohm:3860103:0]        ib_iface.c:1059 UCX  ERROR ibv_create_cq(cqe=256) failed: Connection timed out
[1739830759.159587] [ohm:3860099:0]        ib_iface.c:1059 UCX  ERROR ibv_create_cq(cqe=256) failed: Connection timed out
[1739830759.159571] [ohm:3860109:0]        ib_iface.c:1059 UCX  ERROR ibv_create_cq(cqe=256) failed: Connection timed out
[1739830759.159959] [ohm:3860117:0]        ib_iface.c:1059 UCX  ERROR ibv_create_cq(cqe=256) failed: Connection timed out


           ************************************************************
           *        Program running with 16 parallel MPI-processes    *
           *              working on a common directory               *
           ************************************************************
-------------------------------------------------------------------------------
                                 ORCA GUESS
                   Start orbitals & Density for SCF / CASSCF
-------------------------------------------------------------------------------

------------
SCF SETTINGS
------------
Hamiltonian:
 Density Functional     Method          .... DFT(GTOs)
  Functional kind                       .... Exchange-Correlation
  Functional name                       .... wB97M-V exchange-correlation functional
  Functional family                     .... Hybrid MGGA
  Functional refs                              
    [ 0] N. Mardirossian and M. Head-Gordon.,  J. Chem. Phys. 144, 214110 (2016), doi: 10.1063/1.4952647
  Fraction of HF Exchange (short range) .... 0.1500
  Fraction of HF Exchange (long range)  .... 1.0000
  Range separation parameter mu         .... 0.3000
  Functional external parameters        .... 17
    Parameter  0 _cx00      =  8.500000e-01 : u^00 coefficient for exchange
    Parameter  1 _cx01      =  1.007000e+00 : u^01 coefficient for exchange
    Parameter  2 _cx10      =  2.590000e-01 : u^10 coefficient for exchange
    Parameter  3 _css00     =  4.430000e-01 : u^00 coefficient for same-spin correlation
    Parameter  4 _css04     = -1.437000e+00 : u^04 coefficient for same-spin correlation
    Parameter  5 _css10     = -4.535000e+00 : u^10 coefficient for same-spin correlation
    Parameter  6 _css20     = -3.390000e+00 : u^20 coefficient for same-spin correlation
    Parameter  7 _css43     =  4.278000e+00 : u^43 coefficient for same-spin correlation
    Parameter  8 _cos00     =  1.000000e+00 : u^00 coefficient for opposite-spin correlation
    Parameter  9 _cos10     =  1.358000e+00 : u^10 coefficient for opposite-spin correlation
    Parameter 10 _cos20     =  2.924000e+00 : u^20 coefficient for opposite-spin correlation
    Parameter 11 _cos21     = -8.812000e+00 : u^21 coefficient for opposite-spin correlation
    Parameter 12 _cos60     = -1.390000e+00 : u^60 coefficient for opposite-spin correlation
    Parameter 13 _cos61     =  9.142000e+00 : u^61 coefficient for opposite-spin correlation
    Parameter 14 _alpha     =  1.000000e+00 : fraction of HF exchange
    Parameter 15 _beta      = -8.500000e-01 : fraction of short-range exchange
    Parameter 16 _omega     =  3.000000e-01 : range-separation constant
 Long-range corrected/Screened/Range-Separated Hybrid DFT is turned on
   Amount of maximum screened exact exchange              ....  0.850000
   Range separation parameter mu (erf(mu*r12)/r12)        ....  0.300000
 RI-approximation to the Coulomb term is turned on
   Number of AuxJ basis functions       .... 191
   RIJ-COSX (HFX calculated with COS-X)).... on


General Settings:
 Integral files         IntName         .... orca
 Hartree-Fock type      HFTyp           .... UHF
 Total Charge           Charge          ....    0
 Multiplicity           Mult            ....    3
 Number of Electrons    NEL             ....   24
 Basis Dimension        Dim             ....  182
 Nuclear Repulsion      ENuc            ....     69.1618615287 Eh

Convergence Acceleration:
 AO-DIIS                CNVDIIS         .... on
   Start iteration      DIISMaxIt       ....    12
   Startup error        DIISStart       ....  0.200000
   # of expansion vecs  DIISMaxEq       ....     5
   Bias factor          DIISBfac        ....   1.050
   Max. coefficient     DIISMaxC        ....  10.000
 MO-DIIS                CNVKDIIS        .... off
 Trust-Rad. Augm. Hess. CNVTRAH         .... auto
   Auto Start mean grad. ratio tolernc. ....  1.125000
   Auto Start start iteration           ....    50
   Auto Start num. interpolation iter.  ....    10
   Max. Number of Micro iterations      ....    24
   Max. Number of Macro iterations      .... Maxiter - #DIIS iter
   Number of Davidson start vectors     ....     2
   Converg. threshold    (grad. norm)   ....   1.000e-05
   Grad. Scal. Fac. for Micro threshold ....   0.100
   Minimum threshold for Micro iter.    ....   1.000e-02
   NR start threshold (gradient norm)   ....   1.000e-04
   Initial trust radius                 ....   0.400
   Minimum AH scaling param. (alpha)    ....   1.000
   Maximum AH scaling param. (alpha)    .... 1000.000
   Quad. conv. algorithm                .... NR
   White noise on init. David. guess    .... on
   Maximum white noise                  ....   0.010
   Pseudo random numbers                .... off
   Inactive MOs                         .... canonical
   Orbital update algorithm             .... Taylor
   Preconditioner                       .... Diag
   Full preconditioner red. dimension   ....   250
 SOSCF                  CNVSOSCF        .... on
   Start iteration      SOSCFMaxIt      ....   150
   Startup grad/error   SOSCFStart      ....  0.003300
   Hessian update       SOSCFHessUp     .... L-BFGS
 Level Shifting         CNVShift        .... on
   Level shift para.    LevelShift      ....    0.2500
   Turn off err/grad.   ShiftErr        ....    0.0010
 Zerner damping         CNVZerner       .... off
 Static damping         CNVDamp         .... on
   Fraction old density DampFac         ....    0.7000
   Max. Damping (<1)    DampMax         ....    0.9800
   Min. Damping (>=0)   DampMin         ....    0.0000
   Turn off err/grad.   DampErr         ....    0.1000

SCF Procedure:
 Maximum # iterations   MaxIter         ....   125
 SCF integral mode      SCFMode         .... Direct
   Integral package                     .... SHARK and LIBINT hybrid scheme
 Reset frequency        DirectResetFreq ....    20
 Integral Threshold     Thresh          ....  2.500e-11 Eh
 Primitive CutOff       TCut            ....  2.500e-12 Eh

Convergence Tolerance:
 Convergence Check Mode ConvCheckMode   .... Total+1el-Energy
 Convergence forced     ConvForced      .... 1
 Energy Change          TolE            ....  1.000e-08 Eh
 1-El. energy change                    ....  1.000e-05 Eh
 Orbital Gradient       TolG            ....  1.000e-05
 Orbital Rotation angle TolX            ....  1.000e-05
 DIIS Error             TolErr          ....  5.000e-07

------------------------------
INITIAL GUESS: MODEL POTENTIAL
------------------------------
Loading Hartree-Fock densities                     ... done
Calculating cut-offs                               ... done
Initializing the effective Hamiltonian             ... done
Setting up the integral package (SHARK)            ... done
Starting the Coulomb interaction                   ... done (   0.0 sec)
Making the grid                                    ... done (   0.0 sec)
Mapping shells                                     ... done
Starting the XC term evaluation                    ... done (   0.0 sec)
  promolecular density results
     # of electrons  =     23.997872019
     EX              =    -19.521564651
     EC              =     -0.772016849
     EX+EC           =    -20.293581500
Transforming the Hamiltonian                       ... done (   0.0 sec)
Diagonalizing the Hamiltonian                      ... done (   0.0 sec)
Back transforming the eigenvectors                 ... done (   0.0 sec)
Now organizing SCF variables                       ... done
                      ------------------
                      INITIAL GUESS DONE (   0.1 sec)
                      ------------------
             **** ENERGY FILE WAS UPDATED (orca.en.tmp) ****
Finished Guess after   0.5 sec
Maximum memory used throughout the entire GUESS-calculation: 9.7 MB
[1739830759.891570] [ohm:3860173:0]        ib_iface.c:1059 UCX  ERROR ibv_create_cq(cqe=256) failed: Connection timed out
[1739830759.891800] [ohm:3860171:0]        ib_iface.c:1059 UCX  ERROR ibv_create_cq(cqe=256) failed: Connection timed out
[1739830759.905409] [ohm:3860169:0]        ib_iface.c:1059 UCX  ERROR ibv_create_cq(cqe=256) failed: Connection timed out
[1739830759.907843] [ohm:3860174:0]        ib_iface.c:1059 UCX  ERROR ibv_create_cq(cqe=256) failed: Connection timed out
[1739830759.909722] [ohm:3860168:0]        ib_iface.c:1059 UCX  ERROR ibv_create_cq(cqe=256) failed: Connection timed out
[1739830759.909986] [ohm:3860172:0]        ib_iface.c:1059 UCX  ERROR ibv_create_cq(cqe=256) failed: Connection timed out
[1739830759.910946] [ohm:3860170:0]        ib_iface.c:1059 UCX  ERROR ibv_create_cq(cqe=256) failed: Connection timed out
[1739830759.913308] [ohm:3860178:0]        ib_iface.c:1059 UCX  ERROR ibv_create_cq(cqe=256) failed: Connection timed out
[1739830759.913307] [ohm:3860182:0]        ib_iface.c:1059 UCX  ERROR ibv_create_cq(cqe=256) failed: Connection timed out
[1739830759.914566] [ohm:3860175:0]        ib_iface.c:1059 UCX  ERROR ibv_create_cq(cqe=256) failed: Connection timed out
[1739830759.915942] [ohm:3860190:0]        ib_iface.c:1059 UCX  ERROR ibv_create_cq(cqe=256) failed: Connection timed out
[1739830759.918197] [ohm:3860176:0]        ib_iface.c:1059 UCX  ERROR ibv_create_cq(cqe=256) failed: Connection timed out
[1739830759.918393] [ohm:3860180:0]        ib_iface.c:1059 UCX  ERROR ibv_create_cq(cqe=256) failed: Connection timed out
[1739830759.922511] [ohm:3860196:0]        ib_iface.c:1059 UCX  ERROR ibv_create_cq(cqe=256) failed: Connection timed out
[1739830759.924454] [ohm:3860185:0]        ib_iface.c:1059 UCX  ERROR ibv_create_cq(cqe=256) failed: Connection timed out
[1739830759.924611] [ohm:3860194:0]        ib_iface.c:1059 UCX  ERROR ibv_create_cq(cqe=256) failed: Connection timed out


           ************************************************************
           *        Program running with 16 parallel MPI-processes    *
           *              working on a common directory               *
           ************************************************************

-------------------------------------------------------------------------------------------
                                      ORCA LEAN-SCF
                              memory conserving SCF solver
-------------------------------------------------------------------------------------------

----------------------------------------D-I-I-S--------------------------------------------
Iteration    Energy (Eh)           Delta-E    RMSDP     MaxDP     DIISErr   Damp  Time(sec)
-------------------------------------------------------------------------------------------
               ***  Starting incremental Fock matrix formation  ***
    1    -153.6844238506982663     0.00e+00  1.05e-03  2.79e-02  8.25e-02  0.700   0.4
    2    -153.7177564158501184    -3.33e-02  9.63e-04  2.91e-02  4.84e-02  0.700   0.3
                               ***Turning on AO-DIIS***
    3    -153.7354478618722169    -1.77e-02  7.30e-04  2.26e-02  2.60e-02  0.700   0.3
    4    -153.7461707603225989    -1.07e-02  1.73e-03  5.13e-02  1.95e-02  0.000   0.3
    5    -153.7703875129402320    -2.42e-02  1.25e-04  4.29e-03  4.64e-03  0.000   0.3
                              *** Initializing SOSCF ***
---------------------------------------S-O-S-C-F--------------------------------------
Iteration    Energy (Eh)           Delta-E    RMSDP     MaxDP     MaxGrad    Time(sec)
--------------------------------------------------------------------------------------
    6    -153.7708003166034985    -4.13e-04  7.83e-05  2.10e-03  2.74e-03     0.3
               *** Restarting incremental Fock matrix formation ***
    7    -153.7710177303505361    -2.17e-04  6.65e-05  1.59e-03  4.64e-03     0.4
    8    -153.7711320920128060    -1.14e-04  9.63e-05  1.88e-03  2.01e-03     0.3
    9    -153.7712243870675763    -9.23e-05  2.21e-05  7.23e-04  3.10e-04     0.3
   10    -153.7712266195038922    -2.23e-06  1.89e-05  7.18e-04  1.65e-04     0.3
   11    -153.7712271908744697    -5.71e-07  4.32e-06  2.46e-04  5.36e-05     0.3
   12    -153.7712272572375696    -6.64e-08  1.90e-06  1.29e-04  1.40e-05     0.3
   13    -153.7712272651356216    -7.90e-09  5.43e-07  2.00e-05  7.24e-06     0.3
                 **** Energy Check signals convergence ****

               *****************************************************
               *                     SUCCESS                       *
               *           SCF CONVERGED AFTER  13 CYCLES          *
               *****************************************************

Recomputing exchange energy using gridx3       ... done (    0.415 sec)
Old exchange energy                            :     -6.199976553 Eh
New exchange energy                            :     -6.199981221 Eh
Exchange energy change after final integration :     -0.000004668 Eh
Total energy after final integration           :   -153.771231934 Eh
             **** ENERGY FILE WAS UPDATED (orca.en.tmp) ****

----------------
TOTAL SCF ENERGY
----------------

Total Energy       :       -153.77123193350866 Eh           -4184.32795 eV

Components:
Nuclear Repulsion  :         69.16186152871535 Eh            1881.98993 eV
Electronic Energy  :       -222.93308879385097 Eh           -6066.31775 eV
One Electron Energy:       -344.62538481764585 Eh           -9377.73348 eV
Two Electron Energy:        121.69229602379488 Eh            3311.41572 eV

Virial components:
Potential Energy   :       -307.34437387353432 Eh           -8363.26559 eV
Kinetic Energy     :        153.57314194002564 Eh            4178.93765 eV
Virial Ratio       :          2.00128987393877

DFT components:
N(Alpha)           :       13.000007111766 electrons
N(Beta)            :       11.000005232626 electrons
N(Total)           :       24.000012344392 electrons
E(XC)              :      -14.751235929652 Eh       

---------------
SCF CONVERGENCE
---------------

  Last Energy change         ...    7.8981e-09  Tolerance :   1.0000e-08
  Last MAX-Density change    ...    2.0008e-05  Tolerance :   1.0000e-07
  Last RMS-Density change    ...    5.4329e-07  Tolerance :   5.0000e-09
  Last DIIS Error            ...    2.7365e-03  Tolerance :   5.0000e-07
  Last Orbital Gradient      ...    7.2406e-06  Tolerance :   1.0000e-05
  Last Orbital Rotation      ...    2.6727e-05  Tolerance :   1.0000e-05


----------------------
UHF SPIN CONTAMINATION
----------------------

Warning: in a DFT calculation there is little theoretical justification to 
         calculate <S**2> as in Hartree-Fock theory. We will do it anyways
         but you should keep in mind that the values have only limited relevance

Expectation value of <S**2>     :     2.006441
Ideal value S*(S+1) for S=1.0   :     2.000000
Deviation                       :     0.006441

----------------
ORBITAL ENERGIES
----------------
                 SPIN UP ORBITALS
  NO   OCC          E(Eh)            E(eV) 
   0   1.0000     -19.403441      -527.9945 
   1   1.0000     -10.382325      -282.5174 
   2   1.0000     -10.373377      -282.2739 
   3   1.0000      -1.240118       -33.7453 
   4   1.0000      -0.891570       -24.2608 
   5   1.0000      -0.714452       -19.4412 
   6   1.0000      -0.626244       -17.0410 
   7   1.0000      -0.589413       -16.0387 
   8   1.0000      -0.579588       -15.7714 
   9   1.0000      -0.518531       -14.1099 
  10   1.0000      -0.518000       -14.0955 
  11   1.0000      -0.418314       -11.3829 
  12   1.0000      -0.216324        -5.8865 
  13   0.0000       0.036335         0.9887 
  14   0.0000       0.059489         1.6188 
  15   0.0000       0.077302         2.1035 
  16   0.0000       0.087193         2.3726 
  17   0.0000       0.105331         2.8662 
  18   0.0000       0.127347         3.4653 
  19   0.0000       0.127821         3.4782 
  20   0.0000       0.132670         3.6101 
  21   0.0000       0.165415         4.5012 
  22   0.0000       0.181297         4.9333 
  23   0.0000       0.201317         5.4781 

                 SPIN DOWN ORBITALS
  NO   OCC          E(Eh)            E(eV) 
   0   1.0000     -19.376696      -527.2667 
   1   1.0000     -10.372050      -282.2378 
   2   1.0000     -10.371532      -282.2237 
   3   1.0000      -1.185200       -32.2509 
   4   1.0000      -0.872564       -23.7437 
   5   1.0000      -0.668186       -18.1823 
   6   1.0000      -0.584321       -15.9002 
   7   1.0000      -0.542768       -14.7695 
   8   1.0000      -0.535317       -14.5667 
   9   1.0000      -0.496326       -13.5057 
  10   1.0000      -0.471048       -12.8179 
  11   0.0000      -0.079351        -2.1593 
  12   0.0000       0.037788         1.0283 
  13   0.0000       0.059158         1.6098 
  14   0.0000       0.076791         2.0896 
  15   0.0000       0.084978         2.3124 
  16   0.0000       0.096023         2.6129 
  17   0.0000       0.105712         2.8766 
  18   0.0000       0.127404         3.4668 
  19   0.0000       0.127434         3.4677 
  20   0.0000       0.133497         3.6326 
  21   0.0000       0.164809         4.4847 
*Only the first 10 virtual orbitals were printed.

                    ********************************
                    * MULLIKEN POPULATION ANALYSIS *
                    ********************************

--------------------------------------------
MULLIKEN ATOMIC CHARGES AND SPIN POPULATIONS
--------------------------------------------
   0 O :   -0.333262    0.919724
   1 C :    0.031883    0.773782
   2 C :   -0.577348    0.098517
   3 H :    0.180575    0.135511
   4 H :    0.223934    0.030747
   5 H :    0.250097    0.011011
   6 H :    0.224121    0.030709
Sum of atomic charges         :   -0.0000000
Sum of atomic spin populations:    2.0000000

-----------------------------------------------------
MULLIKEN REDUCED ORBITAL CHARGES AND SPIN POPULATIONS
-----------------------------------------------------
CHARGE
  0 O s       :     4.015581  s :     4.015581
      pz      :     1.439342  p :     4.260886
      px      :     1.409670
      py      :     1.411874
      dz2     :     0.003924  d :     0.054889
      dxz     :     0.008346
      dyz     :     0.012716
      dx2y2   :     0.020215
      dxy     :     0.009687
      f0      :     0.000233  f :     0.001906
      f+1     :     0.000110
      f-1     :     0.000185
      f+2     :     0.000063
      f-2     :     0.000375
      f+3     :     0.000373
      f-3     :     0.000567

  1 C s       :     3.235395  s :     3.235395
      pz      :     1.002615  p :     2.623270
      px      :     0.822152
      py      :     0.798503
      dz2     :     0.005094  d :     0.092839
      dxz     :     0.007230
      dyz     :     0.039131
      dx2y2   :     0.041582
      dxy     :    -0.000198
      f0      :     0.001899  f :     0.016613
      f+1     :     0.001335
      f-1     :     0.001524
      f+2     :     0.000645
      f-2     :     0.003235
      f+3     :     0.003169
      f-3     :     0.004805

  2 C s       :     3.354284  s :     3.354284
      pz      :     1.161965  p :     3.141894
      px      :     0.876864
      py      :     1.103066
      dz2     :    -0.003587  d :     0.078674
      dxz     :     0.026640
      dyz     :     0.024159
      dx2y2   :     0.028284
      dxy     :     0.003178
      f0      :     0.000123  f :     0.002496
      f+1     :     0.000579
      f-1     :     0.000081
      f+2     :     0.000256
      f-2     :     0.000550
      f+3     :     0.000505
      f-3     :     0.000403

  3 H s       :     0.759621  s :     0.759621
      pz      :     0.019855  p :     0.056634
      px      :     0.015507
      py      :     0.021272
      dz2     :     0.000867  d :     0.003170
      dxz     :     0.000463
      dyz     :     0.000774
      dx2y2   :     0.000578
      dxy     :     0.000489

  4 H s       :     0.725151  s :     0.725151
      pz      :     0.012866  p :     0.048714
      px      :     0.007607
      py      :     0.028241
      dz2     :     0.000242  d :     0.002201
      dxz     :     0.000175
      dyz     :     0.000569
      dx2y2   :     0.000487
      dxy     :     0.000727

  5 H s       :     0.708684  s :     0.708684
      pz      :     0.019671  p :     0.039077
      px      :     0.012026
      py      :     0.007380
      dz2     :     0.000569  d :     0.002143
      dxz     :     0.000448
      dyz     :     0.000435
      dx2y2   :     0.000396
      dxy     :     0.000294

  6 H s       :     0.724943  s :     0.724943
      pz      :     0.014497  p :     0.048736
      px      :     0.017571
      py      :     0.016668
      dz2     :     0.000687  d :     0.002200
      dxz     :     0.000488
      dyz     :     0.000522
      dx2y2   :     0.000212
      dxy     :     0.000291


SPIN
  0 O s       :     0.000850  s :     0.000850
      pz      :     0.451355  p :     0.909601
      px      :     0.285633
      py      :     0.172612
      dz2     :     0.000526  d :     0.009448
      dxz     :     0.002973
      dyz     :     0.000835
      dx2y2   :     0.004623
      dxy     :     0.000490
      f0      :     0.000012  f :    -0.000176
      f+1     :    -0.000034
      f-1     :    -0.000025
      f+2     :    -0.000006
      f-2     :    -0.000014
      f+3     :    -0.000080
      f-3     :    -0.000029

  1 C s       :    -0.009101  s :    -0.009101
      pz      :     0.354304  p :     0.708198
      px      :     0.181955
      py      :     0.171939
      dz2     :     0.008530  d :     0.074327
      dxz     :     0.001918
      dyz     :     0.029003
      dx2y2   :     0.021997
      dxy     :     0.012878
      f0      :     0.000129  f :     0.000359
      f+1     :     0.000155
      f-1     :    -0.000256
      f+2     :     0.000012
      f-2     :     0.000106
      f+3     :    -0.000210
      f-3     :     0.000423

  2 C s       :     0.063103  s :     0.063103
      pz      :    -0.010752  p :     0.019117
      px      :     0.035338
      py      :    -0.005470
      dz2     :    -0.014801  d :     0.015243
      dxz     :     0.006613
      dyz     :     0.009303
      dx2y2   :     0.019175
      dxy     :    -0.005048
      f0      :     0.000037  f :     0.001054
      f+1     :     0.000382
      f-1     :     0.000025
      f+2     :    -0.000010
      f-2     :     0.000215
      f+3     :     0.000340
      f-3     :     0.000065

  3 H s       :     0.105832  s :     0.105832
      pz      :     0.014731  p :     0.028728
      px      :     0.005610
      py      :     0.008387
      dz2     :     0.000611  d :     0.000951
      dxz     :     0.000029
      dyz     :     0.000002
      dx2y2   :     0.000046
      dxy     :     0.000263

  4 H s       :     0.021860  s :     0.021860
      pz      :     0.001319  p :     0.008716
      px      :     0.004702
      py      :     0.002694
      dz2     :     0.000001  d :     0.000170
      dxz     :     0.000001
      dyz     :     0.000031
      dx2y2   :     0.000038
      dxy     :     0.000098

  5 H s       :     0.011202  s :     0.011202
      pz      :    -0.000793  p :    -0.000306
      px      :     0.000148
      py      :     0.000338
      dz2     :     0.000019  d :     0.000115
      dxz     :     0.000031
      dyz     :     0.000018
      dx2y2   :     0.000043
      dxy     :     0.000006

  6 H s       :     0.021779  s :     0.021779
      pz      :    -0.000202  p :     0.008759
      px      :     0.009278
      py      :    -0.000316
      dz2     :     0.000074  d :     0.000170
      dxz     :     0.000034
      dyz     :     0.000018
      dx2y2   :     0.000017
      dxy     :     0.000027



                     *******************************
                     * LOEWDIN POPULATION ANALYSIS *
                     *******************************

-------------------------------------------
LOEWDIN ATOMIC CHARGES AND SPIN POPULATIONS
-------------------------------------------
   0 O :    0.153476    0.930324
   1 C :   -0.286858    0.657772
   2 C :    0.141937    0.179390
   3 H :    0.042093    0.164250
   4 H :   -0.021593    0.030153
   5 H :   -0.007520    0.008017
   6 H :   -0.021534    0.030093

----------------------------------------------------
LOEWDIN REDUCED ORBITAL CHARGES AND SPIN POPULATIONS
----------------------------------------------------
CHARGE
  0 O s       :     3.378987  s :     3.378987
      pz      :     1.312305  p :     4.168363
      px      :     1.386421
      py      :     1.469637
      dz2     :     0.025119  d :     0.290838
      dxz     :     0.036493
      dyz     :     0.066688
      dx2y2   :     0.097527
      dxy     :     0.065011
      f0      :     0.000966  f :     0.008336
      f+1     :     0.000464
      f-1     :     0.000855
      f+2     :     0.000251
      f-2     :     0.001683
      f+3     :     0.001655
      f-3     :     0.002462

  1 C s       :     2.673107  s :     2.673107
      pz      :     0.864840  p :     2.645088
      px      :     0.900291
      py      :     0.879957
      dz2     :     0.096720  d :     0.862780
      dxz     :     0.144519
      dyz     :     0.146659
      dx2y2   :     0.233695
      dxy     :     0.241187
      f0      :     0.011272  f :     0.105883
      f+1     :     0.008466
      f-1     :     0.010302
      f+2     :     0.005076
      f-2     :     0.020664
      f+3     :     0.020839
      f-3     :     0.029262

  2 C s       :     2.643080  s :     2.643080
      pz      :     0.925065  p :     2.689048
      px      :     0.858583
      py      :     0.905400
      dz2     :     0.052455  d :     0.492639
      dxz     :     0.156673
      dyz     :     0.069243
      dx2y2   :     0.133604
      dxy     :     0.080664
      f0      :     0.003230  f :     0.033296
      f+1     :     0.007270
      f-1     :     0.003062
      f+2     :     0.003564
      f-2     :     0.004685
      f+3     :     0.006336
      f-3     :     0.005149

  3 H s       :     0.640599  s :     0.640599
      pz      :     0.111130  p :     0.287343
      px      :     0.082736
      py      :     0.093477
      dz2     :     0.008486  d :     0.029965
      dxz     :     0.004924
      dyz     :     0.007352
      dx2y2   :     0.004455
      dxy     :     0.004749

  4 H s       :     0.700108  s :     0.700108
      pz      :     0.084494  p :     0.290966
      px      :     0.079026
      py      :     0.127447
      dz2     :     0.003865  d :     0.030518
      dxz     :     0.001819
      dyz     :     0.008767
      dx2y2   :     0.007843
      dxy     :     0.008224

  5 H s       :     0.704258  s :     0.704258
      pz      :     0.104565  p :     0.273575
      px      :     0.082316
      py      :     0.086695
      dz2     :     0.008251  d :     0.029687
      dxz     :     0.006809
      dyz     :     0.005904
      dx2y2   :     0.004247
      dxy     :     0.004476

  6 H s       :     0.700086  s :     0.700086
      pz      :     0.113918  p :     0.290935
      px      :     0.098423
      py      :     0.078594
      dz2     :     0.008717  d :     0.030513
      dxz     :     0.008547
      dyz     :     0.006894
      dx2y2   :     0.002911
      dxy     :     0.003445


SPIN
  0 O s       :     0.010082  s :     0.010082
      pz      :     0.399303  p :     0.799217
      px      :     0.246278
      py      :     0.153635
      dz2     :     0.004195  d :     0.117796
      dxz     :     0.024190
      dyz     :     0.030813
      dx2y2   :     0.055241
      dxy     :     0.003357
      f0      :     0.000499  f :     0.003230
      f+1     :     0.000024
      f-1     :     0.000265
      f+2     :     0.000048
      f-2     :     0.000945
      f+3     :     0.000233
      f-3     :     0.001216

  1 C s       :     0.007737  s :     0.007737
      pz      :     0.214049  p :     0.434138
      px      :     0.113399
      py      :     0.106690
      dz2     :     0.017154  d :     0.186575
      dxz     :     0.007698
      dyz     :     0.072145
      dx2y2   :     0.057663
      dxy     :     0.031915
      f0      :     0.003083  f :     0.029323
      f+1     :     0.001909
      f-1     :     0.001411
      f+2     :     0.001105
      f-2     :     0.009337
      f+3     :     0.002694
      f-3     :     0.009784

  2 C s       :     0.008704  s :     0.008704
      pz      :     0.006008  p :     0.052503
      px      :     0.037623
      py      :     0.008871
      dz2     :     0.004539  d :     0.110385
      dxz     :     0.027639
      dyz     :     0.025442
      dx2y2   :     0.050847
      dxy     :     0.001919
      f0      :     0.000170  f :     0.007799
      f+1     :     0.002816
      f-1     :     0.000417
      f+2     :     0.000111
      f-2     :     0.001471
      f+3     :     0.002536
      f-3     :     0.000278

  3 H s       :     0.097967  s :     0.097967
      pz      :     0.029739  p :     0.059260
      px      :     0.013568
      py      :     0.015953
      dz2     :     0.005112  d :     0.007024
      dxz     :     0.000101
      dyz     :    -0.000117
      dx2y2   :     0.000027
      dxy     :     0.001901

  4 H s       :     0.018850  s :     0.018850
      pz      :     0.001311  p :     0.010383
      px      :     0.004256
      py      :     0.004816
      dz2     :    -0.000010  d :     0.000920
      dxz     :     0.000004
      dyz     :     0.000140
      dx2y2   :     0.000264
      dxy     :     0.000521

  5 H s       :     0.005092  s :     0.005092
      pz      :     0.000142  p :     0.002080
      px      :     0.001670
      py      :     0.000267
      dz2     :     0.000077  d :     0.000846
      dxz     :     0.000211
      dyz     :     0.000178
      dx2y2   :     0.000364
      dxy     :     0.000016

  6 H s       :     0.018808  s :     0.018808
      pz      :    -0.000074  p :     0.010365
      px      :     0.008986
      py      :     0.001453
      dz2     :     0.000397  d :     0.000920
      dxz     :     0.000180
      dyz     :     0.000110
      dx2y2   :     0.000110
      dxy     :     0.000122



                      *****************************
                      * MAYER POPULATION ANALYSIS *
                      *****************************

  NA   - Mulliken gross atomic population
  ZA   - Total nuclear charge
  QA   - Mulliken gross atomic charge
  VA   - Mayer's total valence
  BVA  - Mayer's bonded valence
  FA   - Mayer's free valence

  ATOM       NA         ZA         QA         VA         BVA        FA
  0 O      8.3333     8.0000    -0.3333     2.0481     1.4933     0.5548
  1 C      5.9681     6.0000     0.0319     3.3624     2.8119     0.5504
  2 C      6.5773     6.0000    -0.5773     3.5971     3.5840     0.0131
  3 H      0.8194     1.0000     0.1806     0.9905     0.9751     0.0154
  4 H      0.7761     1.0000     0.2239     1.0180     1.0171     0.0009
  5 H      0.7499     1.0000     0.2501     1.0010     1.0008     0.0002
  6 H      0.7759     1.0000     0.2241     1.0174     1.0166     0.0009

  Mayer bond orders larger than 0.100000
B(  0-O ,  1-C ) :   1.3303 B(  1-C ,  2-C ) :   0.6189 B(  1-C ,  3-H ) :   0.9301 
B(  2-C ,  4-H ) :   1.0106 B(  2-C ,  5-H ) :   0.9271 B(  2-C ,  6-H ) :   1.0100 


-------
TIMINGS
-------

Total SCF time: 0 days 0 hours 0 min 4 sec 

Total time                  ....       4.891 sec
Sum of individual times     ....       4.887 sec  ( 99.9%)

SCF preparation             ....       0.407 sec  (  8.3%)
Fock matrix formation       ....       3.982 sec  ( 81.4%)
  Startup                   ....       0.027 sec  (  0.7% of F)
  Split-RI-J                ....       0.177 sec  (  4.4% of F)
  Chain of spheres X        ....       2.595 sec  ( 65.2% of F)
  XC integration            ....       1.099 sec  ( 27.6% of F)
    XC Preparation          ....       0.000 sec  (  0.0% of XC)
    Basis function eval.    ....       0.079 sec  (  7.1% of XC)
    Density eval.           ....       0.350 sec  ( 31.8% of XC)
    XC-Functional eval.     ....       0.032 sec  (  3.0% of XC)
    XC-Potential eval.      ....       0.565 sec  ( 51.4% of XC)
Diagonalization             ....       0.000 sec  (  0.0%)
Density matrix formation    ....       0.059 sec  (  1.2%)
Total Energy calculation    ....       0.039 sec  (  0.8%)
Population analysis         ....       0.019 sec  (  0.4%)
Orbital Transformation      ....       0.048 sec  (  1.0%)
Orbital Orthonormalization  ....       0.000 sec  (  0.0%)
DIIS solution               ....       0.220 sec  (  4.5%)
SOSCF solution              ....       0.111 sec  (  2.3%)
Finished LeanSCF after   4.9 sec

Maximum memory used throughout the entire LEANSCF-calculation: 14.7 MB
[1739830765.090256] [ohm:3860281:0]        ib_iface.c:1059 UCX  ERROR ibv_create_cq(cqe=256) failed: Connection timed out
[1739830765.090661] [ohm:3860277:0]        ib_iface.c:1059 UCX  ERROR ibv_create_cq(cqe=256) failed: Connection timed out
[1739830765.094287] [ohm:3860283:0]        ib_iface.c:1059 UCX  ERROR ibv_create_cq(cqe=256) failed: Connection timed out
[1739830765.104616] [ohm:3860278:0]        ib_iface.c:1059 UCX  ERROR ibv_create_cq(cqe=256) failed: Connection timed out
[1739830765.105143] [ohm:3860289:0]        ib_iface.c:1059 UCX  ERROR ibv_create_cq(cqe=256) failed: Connection timed out
[1739830765.105475] [ohm:3860282:0]        ib_iface.c:1059 UCX  ERROR ibv_create_cq(cqe=256) failed: Connection timed out
[1739830765.107242] [ohm:3860298:0]        ib_iface.c:1059 UCX  ERROR ibv_create_cq(cqe=256) failed: Connection timed out
[1739830765.107504] [ohm:3860276:0]        ib_iface.c:1059 UCX  ERROR ibv_create_cq(cqe=256) failed: Connection timed out
[1739830765.107735] [ohm:3860279:0]        ib_iface.c:1059 UCX  ERROR ibv_create_cq(cqe=256) failed: Connection timed out
[1739830765.108184] [ohm:3860280:0]        ib_iface.c:1059 UCX  ERROR ibv_create_cq(cqe=256) failed: Connection timed out
[1739830765.110147] [ohm:3860286:0]        ib_iface.c:1059 UCX  ERROR ibv_create_cq(cqe=256) failed: Connection timed out
[1739830765.113080] [ohm:3860288:0]        ib_iface.c:1059 UCX  ERROR ibv_create_cq(cqe=256) failed: Connection timed out
[1739830765.113063] [ohm:3860291:0]        ib_iface.c:1059 UCX  ERROR ibv_create_cq(cqe=256) failed: Connection timed out
[1739830765.113201] [ohm:3860284:0]        ib_iface.c:1059 UCX  ERROR ibv_create_cq(cqe=256) failed: Connection timed out
[1739830765.116866] [ohm:3860302:0]        ib_iface.c:1059 UCX  ERROR ibv_create_cq(cqe=256) failed: Connection timed out
[1739830765.120550] [ohm:3860304:0]        ib_iface.c:1059 UCX  ERROR ibv_create_cq(cqe=256) failed: Connection timed out


           ************************************************************
           *        Program running with 16 parallel MPI-processes    *
           *              working on a common directory               *
           ************************************************************

------------------------------------------------------------------------------
                         ORCA PROPERTY INTEGRAL CALCULATIONS
------------------------------------------------------------------------------

GBWName                                   ... orca.gbw
Number of atoms                           ...      7
Number of basis functions                 ...    182
Max core memory                           ...   1024 MB

Dipole integrals                          ... YES
Quadrupole integrals                      ...  NO
Linear momentum integrals                 ... YES
Angular momentum integrals                ... YES
Higher moments length integrals           ...  NO
Higher moments velocity integrals         ...  NO
Kinetic energy integrals                  ...  NO
GIAO right hand sides                     ...  NO
GIAO dipole derivative integrals          ...  NO
SOC integrals                             ...  NO
EPR diamagnetic integrals (GIAO)          ...  NO
EPR gauge integrals                       ...  NO
Field gradient integrals                  ...  NO (   0 nuclei)
Spin-dipole/Fermi contact integrals       ...  NO (   0 nuclei)
Contact density integrals                 ...  NO (   0 nuclei)
Nucleus-orbit integrals                   ...  NO (   0 nuclei)
Geometric perturbations                   ...  NO (   7 nuclei)

Choice of electric origin   ... Center of mass
Position of electric origin ... (  1.4858,  0.1364, -0.0015) 
Choice of magnetic origin   ... GIAO
Position of magnetic origin ... (  0.0000,  0.0000,  0.0000) 

Calculating integrals                     ... Electric Dipole (Length)     done (  0.0 sec)
Calculating integrals                     ... Linear Momentum              done (  0.0 sec)
Calculating integrals                     ... Angular Momentum  (ElOri)    done (  0.0 sec)

Property integrals calculated in   0.0 sec

Maximum memory used throughout the entire PROPINT-calculation: 10.3 MB
[1739830765.755549] [ohm:3860360:0]        ib_iface.c:1059 UCX  ERROR ibv_create_cq(cqe=256) failed: Connection timed out
[1739830765.755550] [ohm:3860364:0]        ib_iface.c:1059 UCX  ERROR ibv_create_cq(cqe=256) failed: Connection timed out
[1739830765.758023] [ohm:3860359:0]        ib_iface.c:1059 UCX  ERROR ibv_create_cq(cqe=256) failed: Connection timed out
[1739830765.758158] [ohm:3860363:0]        ib_iface.c:1059 UCX  ERROR ibv_create_cq(cqe=256) failed: Connection timed out
[1739830765.768935] [ohm:3860361:0]        ib_iface.c:1059 UCX  ERROR ibv_create_cq(cqe=256) failed: Connection timed out
[1739830765.771034] [ohm:3860362:0]        ib_iface.c:1059 UCX  ERROR ibv_create_cq(cqe=256) failed: Connection timed out
[1739830765.778577] [ohm:3860371:0]        ib_iface.c:1059 UCX  ERROR ibv_create_cq(cqe=256) failed: Connection timed out
[1739830765.779016] [ohm:3860369:0]        ib_iface.c:1059 UCX  ERROR ibv_create_cq(cqe=256) failed: Connection timed out
[1739830765.779114] [ohm:3860372:0]        ib_iface.c:1059 UCX  ERROR ibv_create_cq(cqe=256) failed: Connection timed out
[1739830765.780354] [ohm:3860367:0]        ib_iface.c:1059 UCX  ERROR ibv_create_cq(cqe=256) failed: Connection timed out
[1739830765.782610] [ohm:3860365:0]        ib_iface.c:1059 UCX  ERROR ibv_create_cq(cqe=256) failed: Connection timed out
[1739830765.784445] [ohm:3860366:0]        ib_iface.c:1059 UCX  ERROR ibv_create_cq(cqe=256) failed: Connection timed out
[1739830765.798849] [ohm:3860388:0]        ib_iface.c:1059 UCX  ERROR ibv_create_cq(cqe=256) failed: Connection timed out
[1739830765.800408] [ohm:3860380:0]        ib_iface.c:1059 UCX  ERROR ibv_create_cq(cqe=256) failed: Connection timed out
[1739830765.800906] [ohm:3860374:0]        ib_iface.c:1059 UCX  ERROR ibv_create_cq(cqe=256) failed: Connection timed out
[1739830765.800900] [ohm:3860385:0]        ib_iface.c:1059 UCX  ERROR ibv_create_cq(cqe=256) failed: Connection timed out


           ************************************************************
           *        Program running with 16 parallel MPI-processes    *
           *              working on a common directory               *
           ************************************************************
------------------------------------------------------------------------------
                        ORCA TD-DFT/TDA CALCULATION
------------------------------------------------------------------------------

Input orbitals are from        ... orca.gbw
CI-vector output               ... orca.cis
Solver                         ... FN-2001
Tamm-Dancoff approximation     ... operative
CIS-Integral strategy          ... AO-integrals
Integral handling              ... AO integral Direct
Max. core memory used          ... 512 MB
Reference state                ... UHF
Follow IRoot                   ... off
Number of operators            ... 2
Orbital ranges used for CIS calculation:
 Operator 0:  Orbitals   3... 12  to  11...181

-------------------
XC-INTEGRATION GRID
-------------------

General Integration Accuracy     IntAcc      ... 3.467
Radial Grid Type                 RadialGrid  ... OptM3 with GC (2021)
Angular Grid (max. ang.)         AngularGrid ... 1 (Lebedev-50)
Angular grid pruning method      GridPruning ... 4 (adaptive)
Weight generation scheme         WeightScheme... mBecke (2022)
Basis function cutoff            BFCut       ... 1.0000e-11
Integration weight cutoff        WCut        ... 1.0000e-14
Partially contracted basis set               ... off
Rotationally invariant grid construction     ... off
Angular grids for H and He will be reduced by one unit
Diffuse basis detected: some atoms will have their outermost
                        angular grid increased by 1.

Total number of grid points                  ...     4736
Total number of batches                      ...       77
Average number of points per batch           ...       61
Average number of grid points per atom       ...      677

---------------------
COSX-INTEGRATION GRID
---------------------

General Integration Accuracy     IntAcc      ... 3.067
Radial Grid Type                 RadialGrid  ... OptM3 with GC (2021)
Angular Grid (max. ang.)         AngularGrid ... 1 (Lebedev-50)
Angular grid pruning method      GridPruning ... 4 (adaptive)
Weight generation scheme         WeightScheme... mBecke (2022)
Basis function cutoff            BFCut       ... 1.0000e-11
Integration weight cutoff        WCut        ... 1.0000e-14
Partially contracted basis set               ... on
Rotationally invariant grid construction     ... off
Angular grids for H and He will be reduced by one unit
Diffuse basis detected: some atoms will have their outermost
                        angular grid increased by 1.

Total number of grid points                  ...     2152
Total number of batches                      ...       22
Average number of points per batch           ...       97
Average number of grid points per atom       ...      307

---------------
TD-DFT XC SETUP
---------------

DFT calculation                         ... on
Name of the grid file                   ... orca.grid_cis.tmp
RI-approximation                        ... on
Aux-basis dimension                     ... 0
Functional (TD-DFT)
  Functional kind                       .... Exchange-Correlation
  Functional name                       .... wB97M-V exchange-correlation functional
  Functional family                     .... Hybrid MGGA
  Functional refs                              
    [ 0] N. Mardirossian and M. Head-Gordon.,  J. Chem. Phys. 144, 214110 (2016), doi: 10.1063/1.4952647
  Fraction of HF Exchange (short range) .... 0.1500
  Fraction of HF Exchange (long range)  .... 1.0000
  Range separation parameter mu         .... 0.3000
  Functional external parameters        .... 17
    Parameter  0 _cx00      =  8.500000e-01 : u^00 coefficient for exchange
    Parameter  1 _cx01      =  1.007000e+00 : u^01 coefficient for exchange
    Parameter  2 _cx10      =  2.590000e-01 : u^10 coefficient for exchange
    Parameter  3 _css00     =  4.430000e-01 : u^00 coefficient for same-spin correlation
    Parameter  4 _css04     = -1.437000e+00 : u^04 coefficient for same-spin correlation
    Parameter  5 _css10     = -4.535000e+00 : u^10 coefficient for same-spin correlation
    Parameter  6 _css20     = -3.390000e+00 : u^20 coefficient for same-spin correlation
    Parameter  7 _css43     =  4.278000e+00 : u^43 coefficient for same-spin correlation
    Parameter  8 _cos00     =  1.000000e+00 : u^00 coefficient for opposite-spin correlation
    Parameter  9 _cos10     =  1.358000e+00 : u^10 coefficient for opposite-spin correlation
    Parameter 10 _cos20     =  2.924000e+00 : u^20 coefficient for opposite-spin correlation
    Parameter 11 _cos21     = -8.812000e+00 : u^21 coefficient for opposite-spin correlation
    Parameter 12 _cos60     = -1.390000e+00 : u^60 coefficient for opposite-spin correlation
    Parameter 13 _cos61     =  9.142000e+00 : u^61 coefficient for opposite-spin correlation
    Parameter 14 _alpha     =  1.000000e+00 : fraction of HF exchange
    Parameter 15 _beta      = -8.500000e-01 : fraction of short-range exchange
    Parameter 16 _omega     =  3.000000e-01 : range-separation constant
Hybrid DFT                              ... on
   Exchange mixing (TD-DFT)             ...  0.150
   GGA exch. scaling (TD-DFT)           ...  0.000
   GGA corr. scaling (TD-DFT)           ...  1.000
Range-Separated Exchange                ... on
   Range Range separation parameter mu  .... 0.300
   Max. amount of RS exchange (TD-DFT)  ...  0.850

Building densities             ... done
Calculating rho(r) on the grid ... done
Building xc-kernel on the grid ... done
                    *** TD-DFT CALCULATION INITIALIZED ***

------------------------
DAVIDSON-DIAGONALIZATION
------------------------

Dimension of the eigenvalue problem            ...   1710
Number of roots to be determined               ...      2
Maximum size of the expansion space            ...     20
Maximum number of iterations                   ...    100
Convergence tolerance for the residual         ...    2.500e-07
Convergence tolerance for the energies         ...    2.500e-07
Orthogonality tolerance                        ...    1.000e-14
Level Shift                                    ...    0.000e+00
Constructing the preconditioner                ... o.k.
Building the initial guess                     ... o.k.
Number of trial vectors determined             ...     20


                       ****Iteration    0****
   Time for iteration     :  TOTAL=0.2 TRAFO=0.0 COSX=0.2
   Size of expansion space: 6
   Lowest Energy          :    -0.131064506726
   Maximum Energy change  :     0.131064506726 (vector 0)
   Maximum residual norm  :     0.004269933018

                       ****Iteration    1****
   Time for iteration     :  TOTAL=0.1 TRAFO=0.0 COSX=0.1
   Size of expansion space: 8
   Lowest Energy          :    -0.134367051221
   Maximum Energy change  :     0.011758947917 (vector 1)
   Maximum residual norm  :     0.000399108474

                       ****Iteration    2****
   Time for iteration     :  TOTAL=0.1 TRAFO=0.0 COSX=0.1
   Size of expansion space: 10
   Lowest Energy          :    -0.134401906300
   Maximum Energy change  :     0.001005861340 (vector 1)
   Maximum residual norm  :     0.000037676738

                       ****Iteration    3****
   Time for iteration     :  TOTAL=0.1 TRAFO=0.0 RIJ=0.0 COSX=0.1
   Size of expansion space: 12
   Lowest Energy          :    -0.134402488532
   Maximum Energy change  :     0.000111220182 (vector 1)
   Maximum residual norm  :     0.000043637070

                       ****Iteration    4****
   Time for iteration     :  TOTAL=0.1 TRAFO=0.0 COSX=0.1
   Size of expansion space: 14
   Lowest Energy          :    -0.134402500635
   Maximum Energy change  :     0.012817522005 (vector 1)
   Maximum residual norm  :     0.007718821820

                       ****Iteration    5****
   Time for iteration     :  TOTAL=0.1 TRAFO=0.0 COSX=0.1
   Size of expansion space: 16
   Lowest Energy          :    -0.134402500919
   Maximum Energy change  :     0.006566936272 (vector 1)
   Maximum residual norm  :     0.000373759492

                       ****Iteration    6****
   Time for iteration     :  TOTAL=0.1 TRAFO=0.0 COSX=0.1
   Size of expansion space: 18
   Lowest Energy          :    -0.134402500924
   Maximum Energy change  :     0.000268896220 (vector 1)
   Maximum residual norm  :     0.000020340807

                       ****Iteration    7****
   Time for iteration     :  TOTAL=0.1 TRAFO=0.0 COSX=0.1
   Size of expansion space: 20
   Lowest Energy          :    -0.134402500924
   Maximum Energy change  :     0.000020927626 (vector 1)
   Maximum residual norm  :     0.000002033978
   Rebuilding the expansion space

                       ****Iteration    8****
   Time for iteration     :  TOTAL=0.2 TRAFO=0.0 COSX=0.1
   Size of expansion space: 4
   Lowest Energy          :    -0.134402835125
   Maximum Energy change  :     0.000000334201 (vector 0)
   Maximum residual norm  :     0.000000200535

      *** CONVERGENCE OF RESIDUAL NORM REACHED ***

Storing the converged CI vectors               ... orca.cis3

                 *** DAVIDSON DONE ***

Total time for solving the CIS problem:     1.338sec

---------------------
SF-TDA EXCITED STATES
---------------------

the weight of the individual excitations are printed if larger than 1.0e-02

UHF/UKS reference: multiplicity estimated based on rounded <S**2> value, RELEVANCE IS LIMITED!

(SPIN-FLIP GROUND STATE)
STATE  1:  E=  -0.134403 au     -3.657 eV   -29498.0 cm**-1 <S**2> =   0.019198 Mult 1
    12a ->  11b  :     0.976920 (c=  0.98839281)

STATE  2:  E=   0.033395 au      0.909 eV     7329.4 cm**-1 <S**2> =   1.166173 Mult 3
    12a ->  15b  :     0.159760 (c=  0.39970045)
    12a ->  16b  :     0.768333 (c= -0.87654601)
    12a ->  18b  :     0.020395 (c=  0.14281139)
    12a ->  26b  :     0.021140 (c= -0.14539445)


-----------------------------
TD-DFT/TDA-EXCITATION SPECTRA
-----------------------------

Center of mass = (  1.4858,  0.1364, -0.0015)
Generating CIS-Spin-flip transition densities           ... done

UHF/UKS reference: multiplicity estimated based on rounded <S**2> value, use it judiciously!

----------------------------------------------------------------------------------------------------
          SPIN FLIP ABSORPTION SPECTRUM VIA TRANSITION ELECTRIC DIPOLE MOMENTS    
----------------------------------------------------------------------------------------------------
     Transition      Energy     Energy  Wavelength fosc(D2)      D2        DX        DY        DZ   
                      (eV)      (cm-1)    (nm)                 (au**2)    (au)      (au)      (au)  
----------------------------------------------------------------------------------------------------
  1-3A  ->  2-3A    4.566015   36827.4   271.5   0.000445403   0.00398   0.03198  -0.03194  -0.04403

----------------------------------------------------------------------------------------------------
          SPIN FLIP ABSORPTION SPECTRUM VIA TRANSITION VELOCITY DIPOLE MOMENTS    
----------------------------------------------------------------------------------------------------
     Transition      Energy     Energy  Wavelength fosc(P2)      P2        PX        PY        PZ   
                      (eV)      (cm-1)    (nm)                 (au**2)    (au)      (au)      (au)  
[...]
      f-1     :     0.000185
      f+2     :    -0.000091
      f-2     :     0.000655
      f+3     :     0.000234
      f-3     :     0.000437
  2 C s       :    -0.002031  s :    -0.002031
      pz      :     0.000820  p :     0.003558
      px      :     0.003196
      py      :    -0.000457
      dz2     :    -0.000100  d :    -0.003838
      dxz     :    -0.000315
      dyz     :    -0.001366
      dx2y2   :    -0.002354
      dxy     :     0.000297
      f0      :     0.000004  f :     0.000202
      f+1     :     0.000040
      f-1     :     0.000035
      f+2     :     0.000015
      f-2     :     0.000017
      f+3     :     0.000041
      f-3     :     0.000051
  3 H s       :     0.006678  s :     0.006678
      pz      :    -0.004020  p :    -0.009486
      px      :    -0.001568
      py      :    -0.003898
      dz2     :     0.000047  d :     0.000096
      dxz     :    -0.000008
      dyz     :     0.000026
      dx2y2   :    -0.000024
      dxy     :     0.000054
  4 H s       :    -0.000619  s :    -0.000619
      pz      :    -0.000072  p :    -0.000615
      px      :    -0.000195
      py      :    -0.000348
      dz2     :    -0.000001  d :     0.000023
      dxz     :     0.000000
      dyz     :     0.000007
      dx2y2   :    -0.000020
      dxy     :     0.000037
  5 H s       :     0.001448  s :     0.001448
      pz      :    -0.000018  p :     0.000309
      px      :     0.000091
      py      :     0.000236
      dz2     :     0.000001  d :     0.000006
      dxz     :    -0.000033
      dyz     :     0.000031
      dx2y2   :     0.000007
      dxy     :    -0.000001
  6 H s       :    -0.000602  s :    -0.000602
      pz      :     0.000110  p :    -0.000627
      px      :    -0.000373
      py      :    -0.000365
      dz2     :     0.000042  d :     0.000023
      dxz     :    -0.000007
      dyz     :    -0.000011
      dx2y2   :     0.000005
      dxy     :    -0.000006


                      *****************************
                      * MAYER POPULATION ANALYSIS *
                      *****************************

  NA   - Mulliken gross atomic population
  ZA   - Total nuclear charge
  QA   - Mulliken gross atomic charge
  VA   - Mayer's total valence
  BVA  - Mayer's bonded valence
  FA   - Mayer's free valence

  ATOM       NA         ZA         QA         VA         BVA        FA
  0 O      8.4970     8.0000    -0.4970     1.7258     1.8564    -0.1306
  1 C      5.7865     6.0000     0.2135     3.4580     3.4288     0.0292
  2 C      6.6997     6.0000    -0.6997     3.7775     3.7658     0.0117
  3 H      0.7493     1.0000     0.2507     0.9498     0.9392     0.0107
  4 H      0.7511     1.0000     0.2489     0.9662     0.9670    -0.0008
  5 H      0.7663     1.0000     0.2337     1.0362     1.0333     0.0029
  6 H      0.7502     1.0000     0.2498     0.9654     0.9664    -0.0009

  Mayer bond orders larger than 0.100000
B(  0-O ,  1-C ) :   1.7975 B(  1-C ,  2-C ) :   0.7526 B(  1-C ,  3-H ) :   0.9582 
B(  2-C ,  4-H ) :   0.9810 B(  2-C ,  5-H ) :   0.9737 B(  2-C ,  6-H ) :   0.9807 



-------
TIMINGS
-------

Total TD-DFT gradient time  ....        5.059 sec

Fock matrix formation       ....       1.043 sec  ( 20.6%)
  Coulomb formation         ....       0.818 sec  ( 78.4% of F)
  XC integration            ....       0.225 sec  ( 21.6% of F)
Z-vector equation           ....       1.464 sec  ( 28.9%)
Densities                   ....       0.000 sec  (  0.0%)
One electron gradient       ....       0.009 sec  (  0.2%)
Two electron gradient       ....       0.000 sec  (  0.0%)
RI-J Coulomb gradient       ....       0.095 sec  (  1.9%)
COSX gradient               ....       0.382 sec  (  7.5%)
XC gradient                 ....       1.830 sec  ( 36.2%)

Maximum memory used throughout the entire CIS-calculation: 35.8 MB
=> NOW LEAVING ORCA_CIS


-------------------------------------------------------------------------------
                          DFT DISPERSION CORRECTION                            
                                                                               
                              DFTD3 V3.1  Rev 1                                
                          USING Becke-Johnson damping                          
-------------------------------------------------------------------------------
The WB97M functional is recognized
Active option DFTDOPT                   ...         4   

molecular C6(AA) [au] = 395.119641 


            DFT-D V3
 parameters
 s6 scaling factor         :     1.0000 
 a1 scaling factor         :     0.5660 
 s8 scaling factor         :     0.3908 
 a2 scaling factor         :     3.1280 
 ad hoc parameters k1-k3   :    16.0000     1.3333    -4.0000 

 Edisp/kcal,au: -3.447354869436  -0.005493709090 
 E6   /kcal   :  -2.782039491 
 E8   /kcal   :  -0.665315379 
 % E8         :  19.299300590 

-------------------------   ----------------
Dispersion correction           -0.005493709
-------------------------   ----------------


-------------------------   --------------------
FINAL SINGLE POINT ENERGY      -153.911128477724
-------------------------   --------------------

[1739830772.937763] [ohm:3860487:0]        ib_iface.c:1059 UCX  ERROR ibv_create_cq(cqe=256) failed: Connection timed out
[1739830772.937770] [ohm:3860489:0]        ib_iface.c:1059 UCX  ERROR ibv_create_cq(cqe=256) failed: Connection timed out
[1739830772.942928] [ohm:3860485:0]        ib_iface.c:1059 UCX  ERROR ibv_create_cq(cqe=256) failed: Connection timed out
[1739830772.958762] [ohm:3860488:0]        ib_iface.c:1059 UCX  ERROR ibv_create_cq(cqe=256) failed: Connection timed out
[1739830772.958832] [ohm:3860484:0]        ib_iface.c:1059 UCX  ERROR ibv_create_cq(cqe=256) failed: Connection timed out
[1739830772.978803] [ohm:3860492:0]        ib_iface.c:1059 UCX  ERROR ibv_create_cq(cqe=256) failed: Connection timed out
[1739830772.978821] [ohm:3860490:0]        ib_iface.c:1059 UCX  ERROR ibv_create_cq(cqe=256) failed: Connection timed out
[1739830772.978865] [ohm:3860496:0]        ib_iface.c:1059 UCX  ERROR ibv_create_cq(cqe=256) failed: Connection timed out
[1739830772.982618] [ohm:3860486:0]        ib_iface.c:1059 UCX  ERROR ibv_create_cq(cqe=256) failed: Connection timed out
[1739830772.988086] [ohm:3860491:0]        ib_iface.c:1059 UCX  ERROR ibv_create_cq(cqe=256) failed: Connection timed out
[1739830772.988082] [ohm:3860494:0]        ib_iface.c:1059 UCX  ERROR ibv_create_cq(cqe=256) failed: Connection timed out
[1739830772.988094] [ohm:3860497:0]        ib_iface.c:1059 UCX  ERROR ibv_create_cq(cqe=256) failed: Connection timed out
[1739830772.990742] [ohm:3860499:0]        ib_iface.c:1059 UCX  ERROR ibv_create_cq(cqe=256) failed: Connection timed out
[1739830772.991803] [ohm:3860504:0]        ib_iface.c:1059 UCX  ERROR ibv_create_cq(cqe=256) failed: Connection timed out
[1739830772.993991] [ohm:3860512:0]        ib_iface.c:1059 UCX  ERROR ibv_create_cq(cqe=256) failed: Connection timed out
[1739830772.994781] [ohm:3860510:0]        ib_iface.c:1059 UCX  ERROR ibv_create_cq(cqe=256) failed: Connection timed out


           ************************************************************
           *        Program running with 16 parallel MPI-processes    *
           *              working on a common directory               *
           ************************************************************

------------------------------------------------------------------------------
                              ORCA PROPERTY CALCULATIONS
------------------------------------------------------------------------------

GBWName                                 ... orca.gbw
Number of atoms                         ...      7
Number of basis functions               ...    182
Max core memory                         ...   1024 MB

Electric properties:
Dipole moment                           ... YES
Quadrupole moment                       ...  NO
Static polarizability (Dipole/Dipole)   ...  NO
Static polarizability (Dipole/Quad.)    ...  NO
Static polarizability (Quad./Quad.)     ...  NO
Static polarizability (Velocity)        ...  NO

Atomic electric properties:
Dipole moment                           ...  NO
Quadrupole moment                       ...  NO
Static polarizability                   ...  NO

Choice of electric origin               ... Center of mass
Position of electric origin             ...     1.485792     0.136428    -0.001525

General magnetic properties:
Magnetizability                         ...  NO

EPR properties:
g-Tensor (aka g-matrix)                 ...  NO
Zero-Field splitting spin-orbit         ...  NO
Zero-field splitting spin-spin          ...  NO
Hyperfine couplings                     ...  NO (   0 nuclei)
Quadrupole couplings                    ...  NO (   0 nuclei)
Contact density                         ...  NO (   0 nuclei)

NMR properties:
Chemical shifts                         ...  NO (   0 nuclei)
Spin-rotation constants                 ...  NO (   0 nuclei)
Spin-spin couplings                     ...  NO (   0 nuclei,    0 pairs)

Choice of magnetic origin               ... GIAO
Position of magnetic origin             ...     0.000000     0.000000     0.000000

Properties with geometric perturbations:
SCF Hessian                             ...  NO
IR spectrum                             ...  NO
VCD spectrum                            ...  NO
X-ray spectroscopy properties:
SCF XES/XAS/RIXS spectra                ...  NO


-------------
DIPOLE MOMENT
-------------

Method             : SCF
Type of density    : Electron Density
Multiplicity       :   3
Irrep              :   0
Energy             :  -153.7712319335086590 Eh
Relativity type    : 
Basis              : AO
                                X                 Y                 Z
Electronic contribution:      2.856006235       2.806057986       0.035404870
Nuclear contribution   :     -3.358421007      -3.382580479       0.018327201
                        -----------------------------------------
Total Dipole Moment    :     -0.502414772      -0.576522493       0.053732070
                        -----------------------------------------
Magnitude (a.u.)       :      0.766606759
Magnitude (Debye)      :      1.948559528



--------------------
Rotational spectrum 
--------------------
 
Rotational constants in cm-1:             2.538907             0.299775             0.282047 
Rotational constants in MHz :         76114.521059          8987.013429          8455.552960 

Dipole components along the rotational axes: 
x,y,z [a.u.] :     0.739475     0.202146    -0.000204 
x,y,z [Debye]:     1.879595     0.513814    -0.000519 

 

-------------
DIPOLE MOMENT
-------------

Method             : TDA/CIS
Type of density    : Electron Density
Level              : Relaxed density
State              :   1
Multiplicity       :   3
Irrep              :   0
Energy             :     0.0000000000000000 Eh
Relativity type    : 
Basis              : AO
                                X                 Y                 Z
Electronic contribution:      2.456171311       2.401443275       0.039661386
Nuclear contribution   :     -3.358421007      -3.382580479       0.018327201
                        -----------------------------------------
Total Dipole Moment    :     -0.902249696      -0.981137204       0.057988587
                        -----------------------------------------
Magnitude (a.u.)       :      1.334184171
Magnitude (Debye)      :      3.391226658



--------------------
Rotational spectrum 
--------------------
 
Rotational constants in cm-1:             2.538907             0.299775             0.282047 
Rotational constants in MHz :         76114.521059          8987.013429          8455.552960 

Dipole components along the rotational axes: 
x,y,z [a.u.] :     1.299315     0.303031     0.000222 
x,y,z [Debye]:     3.302597     0.770243     0.000565 

 

Dipole moment calculation done in   0.0 sec 

Maximum memory used throughout the entire PROP-calculation: 7.5 MB
[1739830773.637700] [ohm:3860570:0]        ib_iface.c:1059 UCX  ERROR ibv_create_cq(cqe=256) failed: Connection timed out
[1739830773.637773] [ohm:3860574:0]        ib_iface.c:1059 UCX  ERROR ibv_create_cq(cqe=256) failed: Connection timed out
[1739830773.637921] [ohm:3860572:0]        ib_iface.c:1059 UCX  ERROR ibv_create_cq(cqe=256) failed: Connection timed out
[1739830773.661622] [ohm:3860573:0]        ib_iface.c:1059 UCX  ERROR ibv_create_cq(cqe=256) failed: Connection timed out
[1739830773.661649] [ohm:3860571:0]        ib_iface.c:1059 UCX  ERROR ibv_create_cq(cqe=256) failed: Connection timed out
[1739830773.661810] [ohm:3860569:0]        ib_iface.c:1059 UCX  ERROR ibv_create_cq(cqe=256) failed: Connection timed out
[1739830773.662097] [ohm:3860567:0]        ib_iface.c:1059 UCX  ERROR ibv_create_cq(cqe=256) failed: Connection timed out
[1739830773.663185] [ohm:3860568:0]        ib_iface.c:1059 UCX  ERROR ibv_create_cq(cqe=256) failed: Connection timed out
[1739830773.667415] [ohm:3860576:0]        ib_iface.c:1059 UCX  ERROR ibv_create_cq(cqe=256) failed: Connection timed out
[1739830773.670063] [ohm:3860579:0]        ib_iface.c:1059 UCX  ERROR ibv_create_cq(cqe=256) failed: Connection timed out
[1739830773.670364] [ohm:3860575:0]        ib_iface.c:1059 UCX  ERROR ibv_create_cq(cqe=256) failed: Connection timed out
[1739830773.682091] [ohm:3860592:0]        ib_iface.c:1059 UCX  ERROR ibv_create_cq(cqe=256) failed: Connection timed out
[1739830773.682123] [ohm:3860580:0]        ib_iface.c:1059 UCX  ERROR ibv_create_cq(cqe=256) failed: Connection timed out
[1739830773.682117] [ohm:3860595:0]        ib_iface.c:1059 UCX  ERROR ibv_create_cq(cqe=256) failed: Connection timed out
[1739830773.682217] [ohm:3860583:0]        ib_iface.c:1059 UCX  ERROR ibv_create_cq(cqe=256) failed: Connection timed out
[1739830773.682252] [ohm:3860588:0]        ib_iface.c:1059 UCX  ERROR ibv_create_cq(cqe=256) failed: Connection timed out

--------------------------------
SUGGESTED CITATIONS FOR THIS RUN
--------------------------------

Below you find a list of papers that are relevant to this ORCA run
We neither can nor want to force you to cite these papers, but we appreciate if you do
You receive ORCA, which is the product of decades of hard work by many enthusiastic individuals, for free
The only thing we kindly ask in return is that you cite our papers,
We deeply appreciate it, if you show your appreciation for ORCA by not just citing the generic ORCA reference.

Please note that relegating all ORCA citations to the supporting information does *not* help us.
SI sections are not indexed - citations you put there will not count into any citation statistics
But we need these citations in order to attract the funding resources that allow us to do what we are doing

Therefore, if you are a happy ORCA user, please consider citing a few of the papers listed below in the main body of your paper

In addition to the list printed below, the program has created the file orca.bibtex that contains the list in bibtex format
You can import this file easily into all common literature databanks and citation aid programs


List of essential papers. We consider these as the minimum necessary citations

  1. Neese,F.
     Software update: the ORCA program system, version 5.0
     WIRES Comput. Molec. Sci., 2022 12(1)e1606
     doi.org/10.1002/wcms.1606

List of papers to cite with high priority. The work reported in these papers was absolutely
necessary for this run to complete.
Our perspective: the developers of density functionals and basis sets usually get cited in chemistry papers
Good! But without the algorithms to do something with them, the functionals or basis sets would not do anything.
Hence, in our opinion, the algorithm design and method developments papers are equally worthy of getting cited

  1. Neese,F.; Olbrich,G.
     Efficient use of the resolution of the identity approximation in time-dependent density functional calculations with hybrid density functionals
     Chem. Phys. Lett., 2002 362 170-178
     doi.org/10.1016/s0009-2614(02)01053-9
  2. Neese,F.
     An improvement of the resolution of the identity approximation for the formation of the Coulomb matrix
     J. Comp. Chem., 2003 24(14)1740-1747
     doi.org/10.1002/jcc.10318
  3. Neese,F.; Wennmohs,F.; Hansen,A.; Becker,U.
     Efficient, approximate and parallel Hartree-Fock and hybrid DFT calculations. A 'chain-of-spheres' algorithm for the Hartree-Fock exchange
     Chem. Phys., 2009 356(1-3)98-109
     doi.org/10.1016/j.chemphys.2008.10.036
  4. Petrenko,T.; Kossmann,S.; Neese,F.
     Efficient time-dependent density functional theory approximations for hybrid density functionals: Analytical gradients and parallelization
     J. Chem. Phys., 2011 134 054116
     doi.org/10.1063/1.3533441
  5. Helmich-Paris,B.; de Souza,B.; Neese,F.; Izsák,R.
     An improved chain of spheres for exchange algorithm
     J. Chem. Phys., 2021 155 104109
     doi.org/doi: 10.1063/5.0058766.
  6. Neese,F.
     The SHARK Integral Generation and Digestion System
     J. Comp. Chem., 2022  1-16
     doi.org/10.1002/jcc.26942
  7. Lehtola,S.; Steigemann,C.; Oliveira,M.; Marques,M.
     Recent developments in Libxc - A comprehensive library of functionals for density functional theory
     Software X, 2018 7 
     doi.org/10.1016/j.softx.2017.11.002
  8. Grimme,S.; Antony,J.; Ehrlich,S.; Krieg,H.
     A consistent and accurate ab initio parametrization of density functional dispersion correction (DFT-D) for the 94 elements H-Pu
     J. Chem. Phys., 2010 132 154104-XXXX
     doi.org/10.1063/1.3382344
  9. Grimme,S.; Ehrlich,S.; Goerigk,L.
     Effect of the damping function in dispersion corrected density functional theory
     J. Comput. Chem., 2011 32(7)1456-1465
     doi.org/10.1002/jcc.21759

List of suggested additional citations. These are papers that are important in the 'surrounding' of 
of this run, or papers that preceded the highly important papers. If you like your results we are grateful for a citation.

  1. Izsak,R.; Neese,F.
     An overlap fitted chain of spheres exchange method
     J. Chem. Phys., 2011 135 144105
     doi.org/10.1063/1.3646921
  2. Izsak,R.; Hansen,A.; Neese,F.
     The resolution of identity and chain of spheres approximations for the LPNO-CCSD singles Fock term
     Molec. Phys., 2012 110 2413-2417
     doi.org/10.1080/00268976.2012.687466
  3. Neese,F.
     The ORCA program system
     WIRES Comput. Molec. Sci., 2012 2(1)73-78
     doi.org/10.1002/wcms.81
  4. Izsak,R.; Neese,F.; Klopper,W.
     Robust fitting techniques in the chain of spheres approximation to the Fock exchange: The role of the complementary space
     J. Chem. Phys., 2013 139 
     doi.org/10.1063/1.4819264
  5. Neese,F.
     Software update: the ORCA program system, version 4.0
     WIRES Comput. Molec. Sci., 2018 8(1)1-6
     doi.org/10.1002/wcms.1327
  6. Neese,F.; Wennmohs,F.; Becker,U.; Riplinger,C.
     The ORCA quantum chemistry program package
     J. Chem. Phys., 2020 152 Art. No. L224108
     doi.org/10.1063/5.0004608

List of optional additional citations

  1. Neese,F.
     Approximate second-order SCF convergence for spin unrestricted wavefunctions
     Chem. Phys. Lett., 2000 325(1-3)93-98
     doi.org/10.1016/s0009-2614(00)00662-x

Timings for individual modules:

Sum of individual times          ...       15.446 sec (=   0.257 min)
Startup calculation              ...        0.969 sec (=   0.016 min)   6.3 %
SCF iterations                   ...        5.972 sec (=   0.100 min)  38.7 %
Property integrals               ...        0.687 sec (=   0.011 min)   4.4 %
Property calculations            ...        0.670 sec (=   0.011 min)   4.3 %
CIS module                       ...        7.147 sec (=   0.119 min)  46.3 %
                             ****ORCA TERMINATED NORMALLY****
TOTAL RUN TIME: 0 days 0 hours 0 minutes 16 seconds 187 msec
