7
Properties=species:S:1:pos:R:3:REF_forces:R:3 REF_energy=-4183.996682436074 pbc="F F F"
O        0.70713198       1.35728732       0.07306435       0.26172720       3.83660910       1.24568724
C        0.55509930       0.18586305      -0.25364947       0.14682962      -3.90629440      -1.63871554
C       -0.45068502      -0.80885567       0.22552738      -0.45003239      -0.24176477      -0.51801066
H        0.07711289      -1.65917619       0.64250903      -0.09884362      -0.26337453       0.25376865
H        1.23435616      -0.23025271      -1.01266345       0.16083449       0.36366667       0.00577408
H       -1.03251260      -1.17288865      -0.64324899       0.06848146       0.07260787       0.44971198
H       -1.13165147      -0.39654596       0.95272897      -0.08523529       0.15104414       0.20471578
7
Properties=species:S:1:pos:R:3:REF_forces:R:3 REF_energy=-4182.512748488525 pbc="F F F"
O        0.44559883       1.31965713       0.00172126      -0.96168773      -4.25062869      -0.05593655
C        0.41954825      -0.29170894      -0.02277354       0.04161029       1.29219598      -1.74567580
C       -0.85029190      -1.20047109       0.02450141      -0.06490389       3.60695561      -0.70645654
H        0.89120937      -0.58946511       0.86172968       1.23672254       0.11745105       1.36098332
H        1.04304011      -0.56921778      -0.91134178      -0.58316147       0.47899770       0.76093886
H       -1.44708018      -1.24873289      -0.88389945       0.34324954      -0.60945794      -0.05890751
H       -1.46496165      -0.94647406       0.87542052      -0.00840811      -0.63203629       0.44454742
7
Properties=species:S:1:pos:R:3:REF_forces:R:3 REF_energy=-4183.557174974078 pbc="F F F"
O        0.41408490       1.06391977      -0.01310988       0.95277329       1.63047800       0.01094916
C        0.61188311      -0.28163453       0.00138500      -0.11069919      -0.05873852       0.14530258
C       -0.75652623      -0.75622882       0.00819875      -0.64632504      -1.30030185       0.11742999
H        1.20880391      -0.54911861       0.87600438       0.13197315       0.01846741       0.21583161
H        1.23333744      -0.54999431      -0.85114885       0.11800354      -0.10375396      -0.32427043
H       -1.30236316      -0.71313296      -0.91159776      -0.27321587      -0.08527239      -0.18968660
H       -1.28762723      -0.72627003       0.94307816      -0.17122594      -0.09707860       0.02317989
7
Properties=species:S:1:pos:R:3:REF_forces:R:3 REF_energy=-4183.625027545394 pbc="F F F"
O        0.52029823       1.20787082      -0.04338143       0.31404022      -2.37784934       0.30246875
C        0.56667786      -0.26910500       0.03551353      -1.97350200       1.07559332      -0.27594462
C       -0.82313414      -0.90362445       0.01348193       1.55717103       0.95421259      -0.09017778
H        1.12553697      -0.56280839       0.92935532       0.08477084       0.40598330      -0.06839959
H        1.11041041      -0.61780956      -0.84152222       0.37081133       0.18963913      -0.01650460
H       -1.37542415      -0.87858582      -0.89309549      -0.22972127      -0.00364277      -0.65265722
H       -1.36889114      -1.18304570       0.87623403      -0.12448220      -0.23966559       0.80122645
7
Properties=species:S:1:pos:R:3:REF_forces:R:3 REF_energy=-4182.626721010491 pbc="F F F"
O        0.20481300       0.94886467       0.00196572       2.64707597       3.28396352      -0.06896639
C        0.65463209      -0.37161049      -0.00651952      -0.86456548       0.15244001       0.19736784
C       -0.75501081      -0.65931390       0.00178521      -1.26973933      -3.85740530       0.77044136
H        1.23883217      -0.58932807       0.89661579      -0.00964810       0.14294002      -0.16377846
H        1.24358222      -0.60669602      -0.89948691      -0.03789722       0.20728259       0.08105664
H       -1.28433835      -0.66975739      -0.90939728      -0.47829434       0.03670965      -0.68917031
H       -1.28755126      -0.65670409       0.93938878       0.01304793       0.03404430      -0.12753772
7
Properties=species:S:1:pos:R:3:REF_forces:R:3 REF_energy=-4183.551512649851 pbc="F F F"
O       -0.24128692       0.94827611      -0.50270615      -0.27889480       1.28705606      -1.21843065
C        0.46035594      -1.15685199       0.05279824       1.06300903      -2.77545608      -0.61114214
C       -0.23006396       0.03095169       0.47941525      -1.49435976       0.16816374       0.06927033
H        1.57262024      -1.25659205       0.05674326      -1.26090146       0.16494374      -0.02112429
H       -0.15247089      -1.95601538      -0.47614956       1.12441000       1.17356000       0.82007163
H       -1.29180924      -0.20590775       0.71024937       0.06546142       0.11367600      -0.07664691
H        0.03990567       0.60391233       1.34748696       0.78112438      -0.13192941       1.04413937
7
Properties=species:S:1:pos:R:3:REF_forces:R:3 REF_energy=-4183.755392130544 pbc="F F F"
O        0.55767619       1.10696917       0.27675883       0.58066330       1.08023488       0.62426615
C        0.58294946      -0.21953779       0.01520749       0.16506973      -0.41964661      -0.23787065
C       -0.77350495      -0.73701747       0.02074626      -0.67338129      -0.24315519       0.39648918
H        1.24766662      -0.73818046       0.74647593      -0.03872391       0.40309660      -0.05271668
H        1.08780310      -0.35322341      -0.93846145       0.27145097      -0.34833070      -0.36203494
H       -1.19659652      -1.29803259      -0.77689403      -0.14556565      -0.36141636      -0.41691297
H       -1.42514650      -0.31988453       0.76999638      -0.15729620      -0.10845408       0.04946072
7
Properties=species:S:1:pos:R:3:REF_forces:R:3 REF_energy=-4183.489354095158 pbc="F F F"
O       -0.21269535       0.91047059      -0.61133757       1.02993132       0.57210609       0.10916342
C        0.64215791       0.06700615       0.11221319      -3.13633375      -1.15144864       0.33604887
C       -0.28390903      -1.03837276       0.58425812       1.98554306      -0.64987015      -0.81241441
H        1.20474893       0.60595506       0.86262316      -0.01767699       0.47548600       0.28144857
H        1.32989753      -0.39866615      -0.53236740       1.32844700      -0.18185229      -1.12995214
H       -1.20783372      -0.81601938       0.99189375      -1.50500173       0.72129166       0.98819985
H       -0.25196755      -2.01144013       0.09574221       0.32212519       0.20759483       0.22425761
7
Properties=species:S:1:pos:R:3:REF_forces:R:3 REF_energy=-4183.655527906448 pbc="F F F"
O        0.55428876       1.09863009       0.27921040       0.88480109       1.66403802       0.78099466
C        0.58069148      -0.20350455       0.02239025       0.25815491      -1.74363058      -0.79943385
C       -0.76113314      -0.73199970       0.01754870      -1.59876731      -0.56279707       0.21493863
H        1.21963774      -0.81634765       0.71703067       0.08539222       0.87368518      -0.06167865
H        1.04829631      -0.39716834      -0.95540950       0.37780886       0.04484404      -0.02670361
H       -1.18732126      -1.27947419      -0.80405706       0.05944706      -0.14448217      -0.08519716
H       -1.43331035      -0.33458661       0.76501187      -0.06496617      -0.13029917      -0.02224892
7
Properties=species:S:1:pos:R:3:REF_forces:R:3 REF_energy=-4182.762013480968 pbc="F F F"
O       -0.16513580       0.97852900      -0.23925181      -1.87125541       1.36013270       0.69345192
C        0.77646556      -0.84654497       0.03604854      -2.92117383      -1.68468711      -0.13654732
C       -0.60322546      -0.28235779       0.23057917       1.47010817       0.84796314       0.12263735
H        1.27813864      -1.30222428       0.83571385       1.00464339      -0.41853142       0.65814777
H        0.86139363      -1.05271725      -1.00072216       1.19501428      -0.25706538      -0.49198934
H       -1.42834463      -0.50119329      -0.50131525       0.56945542      -0.38852297       0.58538759
H       -1.04096598      -0.33221436       1.28996614       0.55465649       0.53454196      -1.42414949
7
Properties=species:S:1:pos:R:3:REF_forces:R:3 REF_energy=-4184.166878009319 pbc="F F F"
O        0.64287210       1.39800827      -0.14515320      -0.41610932      -1.52519105       1.12537569
C        0.28733653       0.27844699       0.53851589       0.62070092       1.03967678      -1.38629618
C       -0.06841594      -0.88562873      -0.34986369      -0.64667669       0.18858354       0.26474828
H        0.52093878       0.27091627       1.60864672      -0.05965949      -0.07637162      -0.47207551
H        0.68545853      -1.42755712      -0.89691508       1.25220672       0.14838427      -0.00850859
H       -0.70952419      -0.55039067      -1.17495479      -0.36082068      -0.02334303       0.45032989
H       -0.53313886      -1.66575770       0.24916591      -0.39505264       0.25073810       0.02559802
7
Properties=species:S:1:pos:R:3:REF_forces:R:3 REF_energy=-4184.216777649761 pbc="F F F"
O        0.50858649       1.36847923       0.08700918       0.03240781       0.43443063       0.11020238
C        0.58106364       0.13042043      -0.30247494      -0.53445740       0.15613127       0.43479179
C       -0.43520003      -0.82993130       0.21155743       0.52745664      -0.64151460      -0.51192210
H        0.07531070      -1.65959997       0.72810957      -0.38626313       0.21172984       0.01179801
H        1.36654773      -0.13985290      -0.95698320       0.80079988      -0.17128724      -0.58922956
H       -0.97729892      -1.24438533      -0.64179249      -0.15952735      -0.14827368       0.13542052
H       -1.13550382      -0.33948992       0.85654236      -0.27347870       0.15418895       0.41339970
7
Properties=species:S:1:pos:R:3:REF_forces:R:3 REF_energy=-4182.2588343887655 pbc="F F F"
O        0.18942711       0.92064988       0.00064435       2.89660278       4.81331642      -0.02335348
C        0.65998951      -0.35909048      -0.00216171      -0.44012952      -1.03812135      -0.16431126
C       -0.73903383      -0.62530428       0.00117426      -2.39530527      -4.67404920       0.14232202
H        1.22356977      -0.63025121       0.89244797       0.22593017       0.32694742       0.02535904
H        1.23011019      -0.63623742      -0.90086649       0.05659544       0.41775378       0.17230513
H       -1.27489064      -0.68061625      -0.91916220      -0.21206786       0.08275079      -0.26136234
H       -1.26884888      -0.67377609       0.93068215      -0.13430077       0.06258472       0.10889751
7
Properties=species:S:1:pos:R:3:REF_forces:R:3 REF_energy=-4180.34764168923 pbc="F F F"
O        0.01052629       0.79389862       0.00039332       0.90934592       2.37507027      -0.01171228
C        0.72487673      -0.44245325      -0.00180894      -0.22365303      -1.15181676       0.20001316
C       -0.72889499      -0.45130557      -0.00073130      -0.92699693      -2.78614871       0.14423687
H        1.24396678      -0.64606607       0.93654582       0.06117842       0.38311010       0.19772147
H        1.26259129      -0.64461486      -0.92209685       0.11760327       0.35932375      -0.33508445
H       -1.26822872      -0.64469804      -0.92637326      -0.05468310       0.40710788      -0.26561288
H       -1.27349976      -0.64918613       0.93123815       0.11661671       0.42810361       0.07043537
7
Properties=species:S:1:pos:R:3:REF_forces:R:3 REF_energy=-4183.411627702299 pbc="F F F"
O        0.55950332       0.50209878      -0.79654125       0.71106113       1.74011521      -1.63566558
C        0.32030410       0.08978806       0.42709204       2.55406592      -1.75405856      -0.46924890
C       -0.90885642      -0.62869041       0.40927493      -2.15676835      -1.15321549       0.05306391
H        0.37233744       0.82610823       1.21183098       0.10537721       0.94303044       0.41525568
H        1.24391078      -0.62100061       0.67092585      -1.24832181       0.67444470       0.29959758
H       -1.56189373      -0.71838621      -0.48708423       0.82181058       0.10614873       1.05135248
H       -1.08387445      -1.11989442       1.33890846      -0.78444320      -0.55881950       0.27924673
7
Properties=species:S:1:pos:R:3:REF_forces:R:3 REF_energy=-4183.978378709537 pbc="F F F"
O        0.81558726       1.41666861      -0.00513547      -0.41169625       0.74170366      -0.72286946
C        0.51733771       0.19065971       0.23426124       0.21536043      -0.37844254       0.47525767
C       -0.45545567      -0.80828428      -0.24343448      -0.84763154      -0.16183333      -0.73440665
H        1.19409219      -0.21537477       0.95251040       0.86349507      -0.22295541       0.79200004
H        0.09612493      -1.66433358      -0.66105784      -0.27706062       0.03567798       0.01582645
H       -1.17483779      -0.46566202      -1.00947150       0.50190096       0.07313426       0.43861555
H       -1.02728515      -1.17222980       0.62133186      -0.04687295      -0.09227047      -0.26836232
7
Properties=species:S:1:pos:R:3:REF_forces:R:3 REF_energy=-4183.865524630204 pbc="F F F"
O        0.69771923       1.44347206      -0.08318823       0.09537541      -3.32103390       1.44440724
C        0.61147669       0.15140824       0.43911488      -2.38379635       1.46414813      -2.46422076
C       -0.41438590      -0.81382750      -0.31650929       0.23815572       2.13755612       0.58871135
H        1.31401157      -0.33064376       1.07151389       0.97943163       0.41302005       0.43187006
H        0.16026320      -1.60232074      -0.75721235       0.24342766      -0.48661501      -0.41398353
H       -0.94765276      -0.22913084      -1.10109489       0.42539735      -0.56823139       0.58536613
H       -1.15832888      -1.25343088       0.36977223       0.40057217       0.36124875      -0.16450937
7
Properties=species:S:1:pos:R:3:REF_forces:R:3 REF_energy=-4183.449750395199 pbc="F F F"
O        0.52177002       0.89364749       0.67527455      -0.97583086       0.52390777       0.21341601
C        0.45472237      -0.31897014       0.12768648       1.08249187      -0.03389266      -2.42533544
C       -0.71094742      -0.49893460      -0.88464702       0.23564205       0.16482796       1.34155358
H        0.58596701      -1.11173738       0.80263914      -0.84110709      -1.51243105       1.61166190
H        1.48311805      -0.46481176      -0.32755055      -0.49915855       0.15141040      -0.77134114
H       -1.19344667       0.43052338      -1.13114320       0.06660707       0.19365286      -0.34151535
H       -1.36012939      -1.39300613      -0.98724035       0.93045944       0.51236002       0.36717020
7
Properties=species:S:1:pos:R:3:REF_forces:R:3 REF_energy=-4183.129549322185 pbc="F F F"
O        0.19898713       1.08646712       0.00322677       1.21865218      -0.64078003      -0.38427400
C        0.63422062      -0.24731424      -0.10734284      -1.48150390      -0.01796484       1.02061473
C       -0.76000506      -0.98097083       0.10859470       3.55089045       1.35638079      -0.46398426
H        1.41577957      -0.42669007       0.67235744      -0.66844846       0.16299666      -0.09896409
H        1.24959863      -0.39578715      -1.01750996      -0.80003261       0.06352088      -0.01404824
H       -1.28613699      -0.97475077      -0.81303198      -1.00365752      -0.40479375      -0.28474160
H       -1.11891758      -0.57555437       1.03513017      -0.81755196      -0.51806560       0.21876875
7
Properties=species:S:1:pos:R:3:REF_forces:R:3 REF_energy=-4183.901033360655 pbc="F F F"
O        0.28420379       1.41972834       0.03197654       0.91723383      -1.54635544      -0.07204599
C        0.75347825       0.17895921      -0.05791497      -1.08937932      -0.42744429       0.44817346
C       -0.35048123      -0.94817051       0.04040195      -1.26265184       3.87269147       1.19903110
H        0.10020493      -1.81894099      -0.35472383      -0.08805686      -0.92960125      -0.35966880
H        1.81843365      -0.07733557      -0.20712240      -0.69186510       0.61133742       0.10497300
H       -1.20488817      -0.44696652      -0.54656883       1.01595145      -1.53743807       0.40250856
H       -0.81967149      -1.05409468       1.11007428       1.20289210      -0.04645665      -1.72904570
7
Properties=species:S:1:pos:R:3:REF_forces:R:3 REF_energy=-4184.076332958529 pbc="F F F"
O        0.06458649       1.34366141       0.25436267       0.31092322      -0.12464917      -0.26039114
C        0.69073244       0.32639513      -0.28539261      -0.87982027      -0.25700670      -0.07948940
C       -0.08846746      -1.00202522      -0.00063474       3.36554237       1.55962555       2.04875385
H        0.64981702      -1.80962980      -0.04091220      -0.44772915       0.05164387      -0.30356487
H        1.67054717       0.54543151      -0.73816285      -0.51763227      -0.49481027       0.23211764
H       -0.95432673      -1.14685338      -0.54424796      -1.60483300      -0.27901944      -1.40231322
H       -0.35204012      -0.86558628       1.06121657      -0.21976946      -0.46257821      -0.23366636
7
Properties=species:S:1:pos:R:3:REF_forces:R:3 REF_energy=-4184.152428816048 pbc="F F F"
O        0.71203177       1.38522179       0.08188602      -0.18647411       0.54041159       0.33237457
C        0.55989539       0.15350692      -0.26617171       0.04542724      -0.59441091      -0.17745208
C       -0.45347346      -0.81259295       0.22625184      -0.84871637      -0.21957317      -0.41534187
H        0.04568386      -1.68104395       0.66052160      -0.16380245      -0.04022385       0.14650250
H        1.21719138      -0.21357410      -1.02961001       0.58237722       0.13007761      -0.49413992
H       -1.06373502      -1.18057790      -0.63471079       0.33757682       0.13203705       0.54889305
H       -1.15748433      -0.38663938       0.93925547       0.23482932       0.05292448       0.06012941
7
Properties=species:S:1:pos:R:3:REF_forces:R:3 REF_energy=-4182.053962638704 pbc="F F F"
O        0.06185604       1.09010500       0.06107319       1.64287552       0.22965104      -0.10013250
C        0.62841440      -0.49868735      -0.12806277       0.16786437       2.86798031      -0.88340062
C       -0.69163323      -0.77397562       0.07720936      -4.87954165      -3.09881034      -0.44149180
H        1.36329674      -0.65678217       0.61424078       0.73848582       0.01800228       0.61748482
H        0.95557252      -0.41805831      -1.16333544       0.27495373      -0.37803376       0.27258053
H       -1.34825518      -0.88985138      -0.91158105       1.21782874       0.36191030       2.82986079
H       -1.15435640      -0.82637964       1.13728487       0.83655249       0.00136934      -2.29326069
7
Properties=species:S:1:pos:R:3:REF_forces:R:3 REF_energy=-4183.229263110474 pbc="F F F"
O        0.30931838       1.00706122      -0.00381168       1.75123792       2.22353876      -0.07952239
C        0.63407328      -0.32883331       0.00192444      -0.86303411      -0.07560318      -0.25292864
C       -0.76159895      -0.71561178      -0.00186420      -0.85082485      -2.56936668      -0.02268479
H        1.20870348      -0.57268505       0.89628272       0.18841640       0.03717673       0.04985220
H        1.21978871      -0.60775965      -0.88668296       0.04559311       0.25630565       0.15561996
H       -1.31846462      -0.69552384      -0.92257560      -0.01503279       0.07239600       0.00859224
H       -1.27949298      -0.71230337       0.93499743      -0.26238723       0.05499254       0.14161951
7
Properties=species:S:1:pos:R:3:REF_forces:R:3 REF_energy=-4181.211202247894 pbc="F F F"
O        0.09837710       0.85844283      -0.00051294       3.33070472       6.15270274       0.01203014
C        0.68671219      -0.39418655       0.00017371      -0.46702636      -1.25755217      -0.06776678
C       -0.73379626      -0.54702800       0.00075817      -2.89619055      -5.67771902      -0.06646766
H        1.23975750      -0.64267614       0.90496941       0.18250503       0.36570528      -0.01704330
H        1.23782248      -0.63203463      -0.91094071       0.15027014       0.34050085       0.07298761
H       -1.26297275      -0.67293268      -0.92662940      -0.12924853       0.05003989      -0.02197865
H       -1.25975404      -0.66138654       0.92907126      -0.16643768       0.03079148       0.08858503
7
Properties=species:S:1:pos:R:3:REF_forces:R:3 REF_energy=-4183.939769130191 pbc="F F F"
O        0.72770055       1.34326751       0.30083300       0.13239570      -2.33392626      -1.27663352
C        0.69344290       0.11040857      -0.27484725       0.09192190       0.10176271      -0.53414549
C       -0.57379066      -0.74928946       0.00899493       0.09044653       2.13092552       1.57074735
H       -0.42933869      -1.41350712       0.88082955      -0.00455164       0.16815876      -0.47089314
H        1.43079829      -0.21774451      -1.13334613      -1.43233811       1.22424495       1.88848086
H       -0.88726084      -1.27927406      -0.84645292       0.07377323      -0.80696527      -0.99412971
H       -1.45579352      -0.08908005       0.26986909       1.05031652      -0.48289594      -0.18962221
7
Properties=species:S:1:pos:R:3:REF_forces:R:3 REF_energy=-4180.3943793883855 pbc="F F F"
O       -0.08961976       0.76997174       0.00096894      -2.48717987       8.32844699      -0.05886221
C        0.78407554      -0.52240044      -0.00295693       1.13687520      -5.48432876       0.25658738
C       -0.74019757      -0.38055363      -0.00005437       1.98089794      -3.81015983      -0.06347828
H        1.31139457      -0.63650043       0.94752383      -0.21926487       0.08437753      -0.47950870
H        1.31646076      -0.63462625      -0.94479421      -0.14577561       0.11945817       0.31554399
H       -1.27805094      -0.64345092      -0.91993325      -0.17799093       0.42335104       0.23833460
H       -1.28188925      -0.63352606       0.92009338      -0.08684825       0.34034238      -0.20878048
7
Properties=species:S:1:pos:R:3:REF_forces:R:3 REF_energy=-4182.718484839669 pbc="F F F"
O        0.04047124       1.01548233      -0.26186451       2.14412996       0.27928893       0.01911727
C        0.65450664      -0.19207969       0.15951669      -3.46075890       0.96575930       2.55756982
C       -0.67493396      -0.96563049       0.10636381       1.90531525      -0.42934026       1.06614411
H        1.14736959      -0.00801134       1.17343483      -1.05277440       0.00952189      -0.68507260
H        1.52399376      -0.53682417      -0.31129028       0.96011162      -0.28275931      -1.86260664
H       -0.91172829      -0.94241550      -0.97486597      -1.04721673      -0.56499082       1.26424879
H       -1.26065291      -1.02494267       1.09388414       0.54923377       0.02599794      -2.36299530
7
Properties=species:S:1:pos:R:3:REF_forces:R:3 REF_energy=-4183.4837926356195 pbc="F F F"
O        0.41151252       1.05536827      -0.00577382       1.24501496       2.17566992      -0.00681536
C        0.61463716      -0.27430975       0.00031121      -0.20913514      -0.97956042       0.19947083
C       -0.74795491      -0.73929734       0.00187055      -1.56864888      -1.71761925       0.18094381
H        1.17728321      -0.60510270       0.88491853       0.25687581       0.32112840      -0.02260650
H        1.19014234      -0.60411554      -0.86805547       0.31209105       0.23207210      -0.15223769
H       -1.30932222      -0.74569045      -0.91568145      -0.06615940      -0.00886051      -0.08829092
H       -1.30164604      -0.74100676       0.93135773       0.03176586      -0.01845499      -0.11112891
7
Properties=species:S:1:pos:R:3:REF_forces:R:3 REF_energy=-4181.778644557456 pbc="F F F"
O        0.11567004       0.89428153      -0.00156514       3.28885411       4.62749973      -0.00868652
C        0.68378396      -0.40420510      -0.00031214      -1.49122918       0.02130569      -0.01332463
C       -0.75413190      -0.59145866       0.00146585      -1.23633880      -4.96677257       0.17519378
H        1.25419177      -0.59933776       0.91040502       0.02600508       0.16797589      -0.16200906
H        1.24010403      -0.59594212      -0.91953595       0.06724856       0.13729195       0.15282542
H       -1.26710915      -0.68727505      -0.92398800      -0.36669489       0.01929609      -0.35597099
H       -1.26824902      -0.64398252       0.93439171      -0.28314789      -0.00121566       0.21233655
7
Properties=species:S:1:pos:R:3:REF_forces:R:3 REF_energy=-4183.419236301619 pbc="F F F"
O        0.56129594       1.18586029       0.05995269      -0.55055487      -2.34954852      -0.82494767
C        0.49896241      -0.26695260       0.12812430      -0.44639813       2.50603323       0.97085617
C       -0.82513711      -0.87518597      -0.17374284      -0.20954895       0.63893863      -0.75502277
H        0.83199138      -0.42020140       1.12348412       0.10053053      -0.82064575       1.40140666
H        1.22022457      -0.74182037      -0.47634831       1.14356055      -0.27754630      -1.32306257
H       -1.50895996      -0.17416854      -0.63495703      -0.34742663      -0.21106607       0.20922234
H       -0.92310456      -1.92543058      -0.47253812       0.30858152       0.51518102       0.32168329
7
Properties=species:S:1:pos:R:3:REF_forces:R:3 REF_energy=-4184.080036655763 pbc="F F F"
O        0.50785223       1.41372946       0.11848055      -0.14315746      -0.14310408       0.08896787
C        0.58190788       0.19174500      -0.29284583      -1.06999048      -1.62473245      -0.11686214
C       -0.44539241      -0.93388573       0.15995289       1.06806844       1.02492014      -0.23343484
H        0.12559789      -1.74517387       0.65945107      -0.46651769       0.51833171      -0.19627135
H        1.43420959      -0.10734813      -0.88319928       0.38488704       0.16439484      -0.11340316
H       -1.04600486      -1.37693831      -0.66759978       0.48815112       0.56306749       0.46183182
H       -1.08206774      -0.39854304       0.85951260      -0.25137744      -0.50216998       0.11032625
7
Properties=species:S:1:pos:R:3:REF_forces:R:3 REF_energy=-4182.167559582127 pbc="F F F"
O        0.15099747       1.19156642       0.00264354       0.88195750      -1.38583335       0.10754674
C        0.58472905      -0.59789686       0.03129613       0.82303495       3.16763471      -0.20054525
C       -0.74988350      -0.84291041      -0.02431682      -2.52802837       0.32076097       0.32459382
H        1.12275933      -0.61331692       0.95529200       0.39423146      -0.25599288       0.17695821
H        1.09611080      -0.54922810      -0.90527959       0.74294412      -0.53057173      -0.14276199
H       -1.23958770      -0.70558974      -0.96186782      -0.25745632      -0.52997010      -0.56281501
H       -1.35192715      -0.51295878       0.81063756      -0.06204494      -0.79054720       0.29870890
7
Properties=species:S:1:pos:R:3:REF_forces:R:3 REF_energy=-4184.047477046077 pbc="F F F"
O        0.75880175       1.37081039      -0.48598050      -0.84863103      -2.03209338       0.98402659
C        0.35993002       0.40803100       0.38720787       0.24964580      -0.00606371      -1.32933179
C       -0.22908760      -0.97765957       0.11430266       0.65995736      -0.51117309      -0.19050451
H        0.39956950       0.77418280       1.38899362       0.04747375       0.28429034       0.67661852
H        0.39028460      -1.71500331      -0.48710488      -0.11323184       1.06813397       0.65663888
H       -1.15660584      -0.96519621      -0.44378087      -0.43888520       0.40839233      -0.25282559
H       -0.47731722      -1.50187671       1.06665944       0.44637859       0.78083990      -0.54244083
7
Properties=species:S:1:pos:R:3:REF_forces:R:3 REF_energy=-4183.311935361644 pbc="F F F"
O        0.64842543       1.15586883       0.12056197       0.12341077      -2.63713392      -0.42908797
C        0.55120613      -0.27837717       0.03855996       1.33437164      -0.51047548       0.19814728
C       -0.85085762      -0.70748552       0.12117215      -0.81332813       1.39015340       0.73452863
H        1.21187315      -0.84764779       0.76828148      -0.74974133       0.97893010       0.41560811
H        1.11761975      -0.82102833      -0.79268465      -0.68439276       1.58597206      -0.31725909
H       -1.20412733      -1.58293950       0.63759835       0.43322822      -0.45606772      -0.10992676
H       -1.58830968       0.10503151       0.16132043       0.35758246      -0.35470858      -0.49219993
7
Properties=species:S:1:pos:R:3:REF_forces:R:3 REF_energy=-4183.865699646954 pbc="F F F"
O        0.42622166       1.41313651      -0.03310847       0.85577189      -1.67737752      -0.49202433
C        0.79309923       0.14308468      -0.15672196      -2.72143299       0.98966371       1.82274819
C       -0.37212705      -0.85800638       0.23993707       1.22930534       3.79713574       0.03520094
H       -0.89474212      -0.51121960       1.11739281       0.08047280       0.00378014       0.51517850
H        1.65684237      -0.26584204      -0.58329684       1.28766583       0.13585035      -0.69482608
H        0.15775056      -1.72315062       0.40700830       0.42840179      -2.31196573       0.00072998
H       -1.03733001      -0.71624755      -0.55956114      -1.15749069      -0.93383310      -1.19080458
7
Properties=species:S:1:pos:R:3:REF_forces:R:3 REF_energy=-4180.99436640744 pbc="F F F"
O       -0.09587380       0.81258604       0.00547136      -3.20862811       6.10873728       0.03198713