7
Properties=species:S:1:pos:R:3:REF_forces:R:3 REF_energy=-4185.968228582465 pbc="F F F"
O        0.18942711       0.92064988       0.00064435      -2.53099699      -2.36683370      -0.03821060
C        0.65998951      -0.35909048      -0.00216171       2.44226963      -0.41545831      -0.15631495
C       -0.73903383      -0.62530428       0.00117426       0.41189138       3.34202825       0.15691268
H        1.22356977      -0.63025121       0.89244797       0.09757879      -0.20096761       0.06321258
H        1.23011019      -0.63623742      -0.90086649      -0.06138739      -0.10856254       0.12914747
H       -1.27489064      -0.68061625      -0.91916220      -0.21829370      -0.12117566      -0.28356306
H       -1.26884888      -0.67377609       0.93068215      -0.13784195      -0.13493469       0.12858726
7
Properties=species:S:1:pos:R:3:REF_forces:R:3 REF_energy=-4183.553245271672 pbc="F F F"
O        0.64842543       1.15586883       0.12056197       0.28608075      -4.50983462      -0.19922234
C        0.55120613      -0.27837717       0.03855996       0.32514271       2.63393589      -0.14309388
C       -0.85085762      -0.70748552       0.12117215       0.16568646       0.99913985       0.93683937
H        1.21187315      -0.84764779       0.76828148      -0.81606328       0.83410648       0.31595544
H        1.11761975      -0.82102833      -0.79268465      -0.68527557       0.90538295      -0.17966096
H       -1.20412733      -1.58293950       0.63759835       0.35345898      -0.55820251      -0.15142423
H       -1.58830968       0.10503151       0.16132043       0.37140125      -0.30724781      -0.57999828
7
Properties=species:S:1:pos:R:3:REF_forces:R:3 REF_energy=-4183.6462449952805 pbc="F F F"
O        0.56129594       1.18586029       0.05995269       0.09834694      -3.03129186      -0.11385965
C        0.49896241      -0.26695260       0.12812430      -2.53301819       3.32121115      -0.27962301
C       -0.82513711      -0.87518597      -0.17374284       0.90194937       0.31457996      -0.90716377
H        0.83199138      -0.42020140       1.12348412       0.44386159      -0.42984599       1.44568486
H        1.22022457      -0.74182037      -0.47634831       1.35088923      -0.42972571      -1.00288787
H       -1.50895996      -0.17416854      -0.63495703      -0.37584765      -0.14804752       0.33070106
H       -0.92310456      -1.92543058      -0.47253812       0.11249874       0.40435511       0.52804581
7
Properties=species:S:1:pos:R:3:REF_forces:R:3 REF_energy=-4183.861941737891 pbc="F F F"
O       -0.33500610       0.99547582      -0.47749570       1.27436389      -0.92862134       1.95297722
C        0.28786033       0.10835727       0.38727323      -1.11961729       3.08120660      -3.70323869
C        0.08119417      -1.25028252       0.08424712      -0.73874877       0.61602551      -1.79385851
H       -0.24467532       0.24628642       1.34678486      -0.30340079      -0.09416941       0.44913775
H        1.33239087       0.43501341       0.65198294      -0.45906730      -0.51943014       0.04973865
H       -0.46224445      -1.64963216      -0.78864126       0.45358744       0.62219791       0.58782007
H        0.31738295      -1.85706221       0.84356174       0.89492059      -2.77419312       2.45419374
7
Properties=species:S:1:pos:R:3:REF_forces:R:3 REF_energy=-4183.735870829695 pbc="F F F"
O        0.55950332       0.50209878      -0.79654125       1.34419601       1.00450075      -0.40075360
C        0.32030410       0.08978806       0.42709204       0.93006536      -0.61933388      -3.18403319
C       -0.90885642      -0.62869041       0.40927493      -0.29274085      -0.89497383       1.07223093
H        0.37233744       0.82610823       1.21183098      -0.17655711       0.63672322       1.06285473
H        1.24391078      -0.62100061       0.67092585      -1.73191237       0.34117730       0.11464131
H       -1.56189373      -0.71838621      -0.48708423       0.73196243       0.20607815       1.01809056
H       -1.08387445      -1.11989442       1.33890846      -0.80127687      -0.67590958       0.30871731
7
Properties=species:S:1:pos:R:3:REF_forces:R:3 REF_energy=-4183.205091881804 pbc="F F F"
O        0.51644379       1.25123578      -0.02533060      -0.81279690      -3.29028149       0.14400072
C        0.42816198      -0.26269282      -0.01174138      -0.24502982       0.38595049      -0.09403487
C       -0.87758918      -1.09574214       0.03936058      -0.06378428       2.99856172      -0.19804578
H        1.02427845      -0.64617022       0.80801711       0.39456170       0.53006110       0.39989322
H        0.99126536      -0.57014137      -0.89593979      -0.00602259       0.32252756      -0.19533454
H       -1.50034641      -1.07830934      -0.86265377       0.32069587      -0.50932766       0.30361118
H       -1.42040026      -1.12832916       0.99238593       0.41562023      -0.42956987      -0.36080011
7
Properties=species:S:1:pos:R:3:REF_forces:R:3 REF_energy=-4187.484524526723 pbc="F F F"
O        0.06458649       1.34366141       0.25436267       3.94967028      -4.80481556      -3.33380047
C        0.69073244       0.32639513      -0.28539261      -5.66956558       5.45133052       4.14497216
C       -0.08846746      -1.00202522      -0.00063474       3.97957180       0.74948424       1.68872834
H        0.64981702      -1.80962980      -0.04091220      -0.56011628      -0.30976950      -0.31808269
H        1.67054717       0.54543151      -0.73816285      -0.20314710      -0.79368767      -0.19124327
H       -0.95432673      -1.14685338      -0.54424796      -1.45204474      -0.16117944      -1.43785355
H       -0.35204012      -0.86558628       1.06121657      -0.04065524      -0.13366862      -0.54790755
7
Properties=species:S:1:pos:R:3:REF_forces:R:3 REF_energy=-4185.271440813726 pbc="F F F"
O        0.29468636       0.98627719      -0.00378681      -2.63288703      -1.74951344      -0.00119227
C        0.63689944      -0.31834509       0.00052508       2.95363554      -0.61784307       0.04051485
C       -0.74451571      -0.69271180      -0.00062880      -0.16579882       2.96886448       0.42187096
H        1.19972736      -0.62180684       0.89736999       0.01691687      -0.19054886      -0.09654354
H        1.20169249      -0.62883758      -0.88978775       0.06122954      -0.19368479       0.03822273
H       -1.28941427      -0.70443566      -0.91928866      -0.21962955      -0.11446157      -0.28137293
H       -1.28748045      -0.70536084       0.93348721      -0.01455057      -0.10472802      -0.12144417
7
Properties=species:S:1:pos:R:3:REF_forces:R:3 REF_energy=-4186.851716539423 pbc="F F F"
O        0.69771923       1.44347206      -0.08318823      -0.22361077      -9.24494805       4.63127668
C        0.61147669       0.15140824       0.43911488      -1.89315673       7.91982241      -7.22997500
C       -0.41438590      -0.81382750      -0.31650929      -0.07121858       1.93550050       1.10833552
H        1.31401157      -0.33064376       1.07151389       0.77244547       0.15082023       1.13145213
H        0.16026320      -1.60232074      -0.75721235       0.36705493      -0.50921869      -0.23443552
H       -0.94765276      -0.22913084      -1.10109489       0.60212692      -0.41491156       0.74279296
H       -1.15832888      -1.25343088       0.36977223       0.44428342       0.16102022      -0.14412684
7
Properties=species:S:1:pos:R:3:REF_forces:R:3 REF_energy=-4187.980791518949 pbc="F F F"
O        0.50858649       1.36847923       0.08700918       0.70386193      -6.20516454      -2.25175783
C        0.58106364       0.13042043      -0.30247494      -1.83174954       7.54693064       3.58001605
C       -0.43520003      -0.82993130       0.21155743       0.49754057      -1.02398150      -0.57850807
H        0.07531070      -1.65959997       0.72810957      -0.25693075       0.22987794      -0.20464912
H        1.36654773      -0.13985290      -0.95698320       0.91228178      -0.69866905      -0.90092172
H       -0.97729892      -1.24438533      -0.64179249       0.07131006      -0.16571315       0.03771892
H       -1.13550382      -0.33948992       0.85654236      -0.09179813       0.31568597       0.32345374
7
Properties=species:S:1:pos:R:3:REF_forces:R:3 REF_energy=-4187.9441104618245 pbc="F F F"
O        0.50785223       1.41372946       0.11848055       0.20333929      -6.68931963      -2.28248156
C        0.58190788       0.19174500      -0.29284583      -1.70638541       5.35467176       3.11325051
C       -0.44539241      -0.93388573       0.15995289       0.93136517       0.92700949      -0.45346080
H        0.12559789      -1.74517387       0.65945107      -0.35085723       0.54045625      -0.31145831
H        1.43420959      -0.10734813      -0.88319928       0.43376631      -0.28264149      -0.55513504
H       -1.04600486      -1.37693831      -0.66759978       0.64247466       0.50240533       0.45395621
H       -1.08206774      -0.39854304       0.85951260      -0.14528393      -0.34905407       0.03806052
7
Properties=species:S:1:pos:R:3:REF_forces:R:3 REF_energy=-4186.650443958166 pbc="F F F"
O        0.09837710       0.85844283      -0.00051294      -2.06904992      -2.50992393       0.02142972
C        0.68671219      -0.39418655       0.00017371       1.59210445      -0.12595356      -0.08153552
C       -0.73379626      -0.54702800       0.00075817       0.54889845       3.06900212      -0.06149387
H        1.23975750      -0.64267614       0.90496941       0.08319623      -0.10386713      -0.02576231
H        1.23782248      -0.63203463      -0.91094071       0.05354267      -0.14498295       0.08712098
H       -1.26297275      -0.67293268      -0.92662940      -0.08018585      -0.07198402      -0.01352629
H       -1.25975404      -0.66138654       0.92907126      -0.12031910      -0.11029857       0.07398870
7
Properties=species:S:1:pos:R:3:REF_forces:R:3 REF_energy=-4188.231311863379 pbc="F F F"
O        0.81327338       1.38951878      -0.00041788      -1.80937550      -2.41276633      -0.54663036
C        0.52211397       0.22269398       0.21592016       2.18669044       2.29775253       0.79726704
C       -0.46015738      -0.80236879      -0.23992649      -0.80575507       0.18824190      -0.60011418
H        1.17847554      -0.25877339       0.96298809       0.19820372      -0.45312590       0.40701654
H        0.11253427      -1.65600180      -0.61861709      -0.04725002       0.18273597       0.07560392
H       -1.17785539      -0.47652898      -0.99369917       0.12167990       0.08319107       0.08702288
H       -0.99229294      -1.15539026       0.65458613       0.15336534       0.12227914      -0.22722504
7
Properties=species:S:1:pos:R:3:REF_forces:R:3 REF_energy=-4183.806035149209 pbc="F F F"
O        0.57805865       1.19318274       0.22862811      -0.78868658      -3.75063916      -0.58557557
C        0.57931584      -0.25139546       0.00741572       1.08797586       1.95631690       0.33228655
C       -0.79704413      -0.77481486       0.08157733       0.98973055       0.55415183      -0.01242007
H        1.26833582      -0.81712455       0.68253067      -0.54201325       0.35693418       0.46211200
H        1.03003908      -0.54663576      -0.94460319      -0.26465078       0.42255232      -0.50022487
H       -1.12054799      -1.54764823      -0.60484737      -0.05308297       0.29384281      -0.00061785
H       -1.46483744      -0.35102776       0.79244775      -0.43110568       0.17141530       0.30406175
7
Properties=species:S:1:pos:R:3:REF_forces:R:3 REF_energy=-4186.74806507952 pbc="F F F"
O       -0.08961976       0.76997174       0.00096894       3.21882724       0.09394768      -0.02174516
C        0.78407554      -0.52240044      -0.00295693      -3.01259495       2.68858935       0.21965098
C       -0.74019757      -0.38055363      -0.00005437       0.22255869      -2.58095671      -0.00365609
H        1.31139457      -0.63650043       0.94752383      -0.24775595       0.01077068      -0.51614145
H        1.31646076      -0.63462625      -0.94479421      -0.21605061      -0.02126812       0.34106272
H       -1.27805094      -0.64345092      -0.91993325       0.02138266      -0.07604699       0.20719630
H       -1.28188925      -0.63352606       0.92009338       0.01390895      -0.10943937      -0.22656700
7
Properties=species:S:1:pos:R:3:REF_forces:R:3 REF_energy=-4183.718426800069 pbc="F F F"
O        0.52029823       1.20787082      -0.04338143      -1.19090476      -3.19134075      -0.02839432
C        0.56667786      -0.26910500       0.03551353       0.43551845       1.56384217       0.63100915
C       -0.82313414      -0.90362445       0.01348193       1.32125501       1.73863924      -0.48916544
H        1.12553697      -0.56280839       0.92935532      -0.24779971      -0.08762537      -0.07808517
H        1.11041041      -0.61780956      -0.84152222      -0.01335326      -0.02132353      -0.25729030
H       -1.37542415      -0.87858582      -0.89309549      -0.25436824       0.09537376      -0.63734594
H       -1.36889114      -1.18304570       0.87623403      -0.04982063      -0.09481679       0.85812961
7
Properties=species:S:1:pos:R:3:REF_forces:R:3 REF_energy=-4185.091122169634 pbc="F F F"
O        0.30931838       1.00706122      -0.00381168      -2.46963689      -2.34614176      -0.05281315
C        0.63407328      -0.32883331       0.00192444       2.38020998       0.51447412      -0.32229670
C       -0.76159895      -0.71561178      -0.00186420       0.56498482       3.03349652      -0.00313847
H        1.20870348      -0.57268505       0.89628272      -0.01072171      -0.54775289       0.12935813
H        1.21978871      -0.60775965      -0.88668296      -0.12056070      -0.32613556       0.10622377
H       -1.31846462      -0.69552384      -0.92257560      -0.05313485      -0.17082414      -0.02359326
H       -1.27949298      -0.71230337       0.93499743      -0.29272720      -0.15754585       0.16676228
7
Properties=species:S:1:pos:R:3:REF_forces:R:3 REF_energy=-4183.720818106278 pbc="F F F"
O        0.52177002       0.89364749       0.67527455       0.00727227      -0.59792224       0.17148283
C        0.45472237      -0.31897014       0.12768648      -1.15622263       2.16296110      -2.65952996
C       -0.71094742      -0.49893460      -0.88464702       0.95622110      -0.60289079       1.82726283
H        0.58596701      -1.11173738       0.80263914      -0.36059037      -1.53140931       1.50623609
H        1.48311805      -0.46481176      -0.32755055      -0.51927159      -0.09360259      -0.60969699
H       -1.19344667       0.43052338      -1.13114320       0.08290432       0.22867602      -0.28433347
H       -1.36012939      -1.39300613      -0.98724035       0.98863325       0.43561971       0.04382511
7
Properties=species:S:1:pos:R:3:REF_forces:R:3 REF_energy=-4185.685410609233 pbc="F F F"
O        0.20481300       0.94886467       0.00196572      -2.29471182      -3.21213303      -0.11547675
C        0.65463209      -0.37161049      -0.00651952       2.00317630       0.84436734       0.19919222
C       -0.75501081      -0.65931390       0.00178521       1.13350047       3.58559476       0.80972923
H        1.23883217      -0.58932807       0.89661579      -0.15038365      -0.42104028      -0.12923332
H        1.24358222      -0.60669602      -0.89948691      -0.16567770      -0.32643272       0.05189305
H       -1.28433835      -0.66975739      -0.90939728      -0.51003497      -0.22106665      -0.71536940
H       -1.28755126      -0.65670409       0.93938878      -0.01348985      -0.25358676      -0.10190754
7
Properties=species:S:1:pos:R:3:REF_forces:R:3 REF_energy=-4186.604938313833 pbc="F F F"
O       -0.09587380       0.81258604       0.00547136       2.18216740      -2.32022195      -0.01538045
C        0.78326160      -0.55433774      -0.00686899      -2.90774055       3.41359139      -0.31086052
C       -0.73269882      -0.41232101       0.00179669       0.92019140      -0.15844898      -0.29792058
H        1.32356388      -0.61643441       0.92915559      -0.11368036      -0.21993254      -0.19921306
H        1.33225480      -0.61032461      -0.95646864      -0.42950501      -0.19741577       0.62609689
H       -1.27872166      -0.61834054      -0.93675323       0.19366312      -0.23176266       0.54168470
H       -1.29184960      -0.62111751       0.92307181       0.15362978      -0.28489044      -0.34431631
7
Properties=species:S:1:pos:R:3:REF_forces:R:3 REF_energy=-4187.173080387234 pbc="F F F"
O        0.72770055       1.34326751       0.30083300       0.56673104      -8.63250620      -4.10381316
C        0.69344290       0.11040857      -0.27484725      -1.20959859       7.73142382       2.70226017
C       -0.57379066      -0.74928946       0.00899493       0.05337466       1.52630784       1.26834766
H       -0.42933869      -1.41350712       0.88082955       0.16013899       0.18363945      -0.58374611
H        1.43079829      -0.21774451      -1.13334613      -1.02616477       0.57668992       1.84670863
H       -0.88726084      -1.27927406      -0.84645292       0.04814037      -0.98968313      -0.98121361
H       -1.45579352      -0.08908005       0.26986909       1.40856819      -0.39383831      -0.15344880
7
Properties=species:S:1:pos:R:3:REF_forces:R:3 REF_energy=-4187.1644709234215 pbc="F F F"
O        0.74282463       1.41351389       0.13753148      -0.46588247      -9.62222341      -3.25729566
C        0.63541803       0.10568304      -0.30021618      -1.26183489       8.12364480       3.46866824
C       -0.55760704      -0.81269996       0.19716595       1.96063058       0.84343142      -1.00838124
H       -0.15407155      -1.61180988       0.82895946      -0.03720914       0.07914836      -0.23957163
H        1.27550015      -0.30562792      -1.09831736       0.15499500       0.29969806       0.35012145
H       -1.01483123      -1.24811619      -0.71528790       0.05572018       0.26263406       0.72037998
H       -1.19065391      -0.17093858       0.78425697      -0.41360820       0.01479648      -0.03290043
7
Properties=species:S:1:pos:R:3:REF_forces:R:3 REF_energy=-4187.909440796422 pbc="F F F"
O        0.81558726       1.41666861      -0.00513547      -2.60089423      -5.74957930       0.19293545
C        0.51733771       0.19065971       0.23426124       2.59101726       6.37981780      -0.69655027
C       -0.45545567      -0.80828428      -0.24343448      -1.32054594      -0.04068665      -1.09665830
H        1.19409219      -0.21537477       0.95251040       0.62387050      -1.01258146       1.05014611
H        0.09612493      -1.66433358      -0.66105784      -0.05360226       0.28256164       0.27882307
H       -1.17483779      -0.46566202      -1.00947150       0.48636367       0.08339222       0.42076441
H       -1.02728515      -1.17222980       0.62133186       0.27113992       0.05645595      -0.15473795
7
Properties=species:S:1:pos:R:3:REF_forces:R:3 REF_energy=-4186.303300608334 pbc="F F F"
O        0.11567004       0.89428153      -0.00156514      -1.93608744      -3.60189397      -0.03430709
C        0.68378396      -0.40420510      -0.00031214       0.69943346       1.13146374       0.01687520
C       -0.75413190      -0.59145866       0.00146585       1.94509988       3.59358878       0.17810993
H        1.25419177      -0.59933776       0.91040502      -0.04992964      -0.33365045      -0.18333519
H        1.24010403      -0.59594212      -0.91953595      -0.01315921      -0.37409785       0.16927642
H       -1.26710915      -0.68727505      -0.92398800      -0.35597097      -0.16909844      -0.35693078
H       -1.26824902      -0.64398252       0.93439171      -0.28101643      -0.24692518       0.21058450
7
Properties=species:S:1:pos:R:3:REF_forces:R:3 REF_energy=-4188.084980633227 pbc="F F F"
O        0.71203177       1.38522179       0.08188602      -1.06243201      -6.30226577      -1.44074483
C        0.55989539       0.15350692      -0.26617171       0.48620342       6.78648754       1.92106532
C       -0.45347346      -0.81259295       0.22625184      -1.05949149      -0.35787937      -0.23962105
H        0.04568386      -1.68104395       0.66052160       0.00819155       0.05287669      -0.06821736
H        1.21719138      -0.21357410      -1.02961001       0.66212520      -0.53551534      -0.69220442
H       -1.06373502      -1.18057790      -0.63471079       0.64919543       0.22099094       0.47515742
H       -1.15748433      -0.38663938       0.93925547       0.31675657       0.14088669       0.04599551
7
Properties=species:S:1:pos:R:3:REF_forces:R:3 REF_energy=-4187.219164311861 pbc="F F F"
O        0.01052629       0.79389862       0.00039332      -0.36949185      -2.82050273      -0.01101967
C        0.72487673      -0.44245325      -0.00180894       0.00990127       1.08897905       0.27921216
C       -0.72889499      -0.45130557      -0.00073130       0.00825358       1.27527257       0.16125145
H        1.24396678      -0.64606607       0.93654582      -0.00718618       0.05897776      -0.37472607
H        1.26259129      -0.64461486      -0.92209685       0.02414675       0.02817375       0.17158576
H       -1.26822872      -0.64469804      -0.92637326       0.08452672       0.15205109       0.26268138
H       -1.27349976      -0.64918613       0.93123815       0.25021908       0.20390810      -0.48902653
7
Properties=species:S:1:pos:R:3:REF_forces:R:3 REF_energy=-4184.186951056257 pbc="F F F"
O        0.55428876       1.09863009       0.27921040      -1.11312336      -0.30783928       0.15459228
C        0.58069148      -0.20350455       0.02239025       2.18085019      -0.01901227      -0.29654748
C       -0.76113314      -0.73199970       0.01754870      -0.82632315       0.82325849       0.54456347
H        1.21963774      -0.81634765       0.71703067      -0.23763753      -0.07944763       0.08203013
H        1.04829631      -0.39716834      -0.95540950       0.00003471      -0.22627594      -0.29931744
H       -1.18732126      -1.27947419      -0.80405706       0.03467773      -0.10916371      -0.18981414
H       -1.43331035      -0.33458661       0.76501187      -0.03556039      -0.07712478       0.00568146
7
Properties=species:S:1:pos:R:3:REF_forces:R:3 REF_energy=-4187.207735060443 pbc="F F F"
O        0.64287210       1.39800827      -0.14515320      -2.57126522      -6.66150110       4.91470554
C        0.28733653       0.27844699       0.53851589       4.04940351       7.00143420      -6.46796188
C       -0.06841594      -0.88562873      -0.34986369      -1.44087720      -0.51906004       0.74700465
H        0.52093878       0.27091627       1.60864672      -0.60872418      -0.35288076      -0.02618995
H        0.68545853      -1.42755712      -0.89691508       1.18941085       0.45554422       0.30532484
H       -0.70952419      -0.55039067      -1.17495479      -0.14543458       0.12631736       0.61740114
H       -0.53313886      -1.66575770       0.24916591      -0.47689600      -0.04728634      -0.09385804
7
Properties=species:S:1:pos:R:3:REF_forces:R:3 REF_energy=-4184.117735547407 pbc="F F F"
O        0.55767619       1.10696917       0.27675883      -1.23867527      -0.53673643      -0.05023389
C        0.58294946      -0.21953779       0.01520749       1.92774101       0.93159677       0.39593431
C       -0.77350495      -0.73701747       0.02074626      -0.03237003       0.96349315       0.74776658
H        1.24766662      -0.73818046       0.74647593      -0.33870295      -0.45748939       0.00075717
H        1.08780310      -0.35322341      -0.93846145      -0.01068141      -0.55718881      -0.62972533
H       -1.19659652      -1.29803259      -0.77689403      -0.17204277      -0.25936609      -0.54759044
H       -1.42514650      -0.31988453       0.76999638      -0.13254092      -0.08008147       0.08419918
7
Properties=species:S:1:pos:R:3:REF_forces:R:3 REF_energy=-4188.424911319583 pbc="F F F"
O        0.70713198       1.35728732       0.07306435      -0.75102050      -2.82042228      -0.43598150
C        0.55509930       0.18586305      -0.25364947       0.72184451       2.99872035       0.45170532
C       -0.45068502      -0.80885567       0.22552738      -0.60426083      -0.07975468      -0.34347089
H        0.07711289      -1.65917619       0.64250903       0.09256410      -0.16812948       0.03933202
H        1.23435616      -0.23025271      -1.01266345       0.24348366      -0.26136223      -0.28499259
H       -1.03251260      -1.17288865      -0.64324899       0.37224475       0.15107313       0.35996412
H       -1.13165147      -0.39654596       0.95272897      -0.07321342       0.19325745       0.21636525
7
Properties=species:S:1:pos:R:3:REF_forces:R:3 REF_energy=-4182.547222240004 pbc="F F F"
O        0.44559883       1.31965713       0.00172126      -0.76791505      -4.03699157      -0.05594844
C        0.41954825      -0.29170894      -0.02277354      -0.61671074       0.72420043      -1.72288343
C       -0.85029190      -1.20047109       0.02450141       0.08292091       4.11717027      -0.79812624
H        0.89120937      -0.58946511       0.86172968       1.46011039       0.20047223       1.31578850
H        1.04304011      -0.56921778      -0.91134178      -0.43048902       0.58254569       0.84684179
H       -1.44708018      -1.24873289      -0.88389945       0.30002704      -0.82143000      -0.12522802
H       -1.46496165      -0.94647406       0.87542052      -0.02471262      -0.76186614       0.53827698
7
Properties=species:S:1:pos:R:3:REF_forces:R:3 REF_energy=-4184.522258255659 pbc="F F F"
O        0.41408490       1.06391977      -0.01310988      -2.52989375      -1.23010909       0.06618955
C        0.61188311      -0.28163453       0.00138500       3.40413162       0.47158915       0.10994016
C       -0.75652623      -0.75622882       0.00819875      -0.04924342       2.47176626       0.08389970
H        1.20880391      -0.54911861       0.87600438      -0.13623391      -0.56272361       0.34634090
H        1.23333744      -0.54999431      -0.85114885      -0.15587514      -0.70715126      -0.43626023
H       -1.30236316      -0.71313296      -0.91159776      -0.31438330      -0.22438355      -0.22245725
H       -1.28762723      -0.72627003       0.94307816      -0.21370695      -0.21531758       0.05118431
7
Properties=species:S:1:pos:R:3:REF_forces:R:3 REF_energy=-4187.214295414914 pbc="F F F"
O        0.42622166       1.41313651      -0.03310847       3.60151643      -7.39265005      -1.14620481
C        0.79309923       0.14308468      -0.15672196      -7.15211967       7.89984761       2.42965267
C       -0.37212705      -0.85800638       0.23993707       2.27895279       2.93221120       0.34032893
H       -0.89474212      -0.51121960       1.11739281       0.22261993       0.21049988       0.31100352
H        1.65684237      -0.26584204      -0.58329684       1.78667730      -0.15655925      -0.66202881
H        0.15775056      -1.72315062       0.40700830       0.10995674      -2.72055252       0.01150128
H       -1.03733001      -0.71624755      -0.55956114      -0.84633751      -0.76741565      -1.28720414
7
Properties=species:S:1:pos:R:3:REF_forces:R:3 REF_energy=-4188.390935590239 pbc="F F F"
O        0.50907493       1.33881805       0.07586773       0.56068451      -2.65714633      -1.14448765
C        0.57769415       0.16493080      -0.28866573      -1.15797801       3.66622590       1.91463502
C       -0.43319135      -0.82376291       0.21111111       0.31631522      -0.85807930      -0.28682911
H        0.07627179      -1.64552929       0.73201041      -0.11809113       0.18050352      -0.11091899
H        1.36436292      -0.15514477      -0.95965074       0.46194736      -0.43424067      -0.47821877
H       -0.96246151      -1.26415178      -0.63360316       0.00977314      -0.05110595      -0.04888850
H       -1.13389317      -0.33188164       0.86448172      -0.06845008       0.16103149       0.16215918
7
Properties=species:S:1:pos:R:3:REF_forces:R:3 REF_energy=-4183.642042028162 pbc="F F F"
O       -0.06720622       1.13490808       0.34774549       0.54894232      -2.04153168      -1.15311665
C        0.59307372      -0.11826416       0.08164231      -0.75000106       2.72965349       3.05624116
C       -0.32136745      -1.02768568      -0.51061203      -2.45583947      -0.91138771       1.49021426
H        0.78993859      -0.49071885       1.14444368       0.12654908      -0.33625251      -0.90685959
H        1.55720498       0.07582186      -0.33626300       0.62201337      -0.10180308      -0.73913950
H       -1.29790766      -1.23874378       0.04012401       1.48778798       0.74673651      -0.88273255
H       -0.13984974      -1.71510509      -1.29651031       0.41968587      -0.08613142      -0.86655659
7
Properties=species:S:1:pos:R:3:REF_forces:R:3 REF_energy=-4183.472881483386 pbc="F F F"
O        0.51987566       1.18624599      -0.01295612      -0.99868292      -2.54962343       0.11509405
C        0.47646483      -0.27553639      -0.00835827       0.64324799       1.61358598      -0.40866166
C       -0.83069977      -0.97280844       0.02099375      -1.30342154       2.06397500      -0.35041744
H        1.01660062      -0.60440030       0.83529740       0.98447701      -0.05962160       1.24516030
H        1.01372272      -0.61086910      -0.87707656       0.37257165      -0.17249958      -0.58890506
H       -1.43716386      -0.76895738      -0.85622837      -0.04507751      -0.48232919      -0.06806238
H       -1.41689655      -1.02680527       0.93385260       0.35124482      -0.41152583       0.05686632
7
Properties=species:S:1:pos:R:3:REF_forces:R:3 REF_energy=-4183.791270443291 pbc="F F F"
O       -0.24128692       0.94827611      -0.50270615       1.22610548      -1.07459742      -2.09745425