
                                 *****************
                                 * O   R   C   A *
                                 *****************

                                            #,                                       
                                            ###                                      
                                            ####                                     
                                            #####                                    
                                            ######                                   
                                           ########,                                 
                                     ,,################,,,,,                         
                               ,,#################################,,                 
                          ,,##########################################,,             
                       ,#########################################, ''#####,          
                    ,#############################################,,   '####,        
                  ,##################################################,,,,####,       
                ,###########''''           ''''###############################       
              ,#####''   ,,,,##########,,,,          '''####'''          '####       
            ,##' ,,,,###########################,,,                        '##       
           ' ,,###''''                  '''############,,,                           
         ,,##''                                '''############,,,,        ,,,,,,###''
      ,#''                                            '''#######################'''  
     '                                                          ''''####''''         
             ,#######,   #######,   ,#######,      ##                                
            ,#'     '#,  ##    ##  ,#'     '#,    #''#        ,####,   ,####,        
            ##       ##  ##   ,#'  ##            #'  '#       #'       #'  '#        
            ##       ##  #######   ##           ,######,      #####,   #    #        
            '#,     ,#'  ##    ##  '#,     ,#' ,#      #,     #,   #   #,  ,#        
             '#######'   ##     ##  '#######'  #'      '#     '####' # '####'        



                #########################################################
                #                        -***-                          #
                #          Department of theory and spectroscopy        #
                #                                                       #
                #                      Frank Neese                      #
                #                                                       #
                #     Directorship, Architecture, Infrastructure        #
                #                    SHARK, DRIVERS                     #
                #        Core code/Algorithms in most modules           #
                #                                                       #
                #        Max Planck Institute fuer Kohlenforschung      #
                #                Kaiser Wilhelm Platz 1                 #
                #                 D-45470 Muelheim/Ruhr                 #
                #                      Germany                          #
                #                                                       #
                #                  All rights reserved                  #
                #                        -***-                          #
                #########################################################


                         Program Version 6.0.0  -   RELEASE  -


 With contributions from (in alphabetic order):
   Daniel Aravena         : Magnetic Suceptibility
   Michael Atanasov       : Ab Initio Ligand Field Theory (pilot matlab implementation)
   Alexander A. Auer      : GIAO ZORA, VPT2 properties, NMR spectrum
   Ute Becker             : All parallelization in ORCA, NUMFREQ, NUMCALC
   Giovanni Bistoni       : ED, misc. LED, open-shell LED, HFLD
   Martin Brehm           : Molecular dynamics
   Dmytro Bykov           : pre 5.0 version of the SCF Hessian
   Marcos Casanova-Páez   : Triplet and SCS-CIS(D). UHF-(DLPNO)-IP/EA/STEOM-CCSD. UHF-CVS-IP/STEOM-CCSD
   Vijay G. Chilkuri      : MRCI spin determinant printing, contributions to CSF-ICE
   Pauline Colinet        : FMM embedding
   Dipayan Datta          : RHF DLPNO-CCSD density
   Achintya Kumar Dutta   : EOM-CC, STEOM-CC
   Nicolas Foglia         : Exact transition moments, OPA infrastructure, MCD improvements
   Dmitry Ganyushin       : Spin-Orbit,Spin-Spin,Magnetic field MRCI
   Miquel Garcia          : C-PCM and meta-GGA Hessian, CCSD/C-PCM, Gaussian charge scheme
   Tiago L. C. Gouveia    : GS-ROHF, GS-ROCIS
   Yang Guo               : DLPNO-NEVPT2, F12-NEVPT2, CIM, IAO-localization
   Andreas Hansen         : Spin unrestricted coupled pair/coupled cluster methods
   Ingolf Harden          : AUTO-CI MPn and infrastructure 
   Benjamin Helmich-Paris : MC-RPA, TRAH-(SCF,CASSCF), AVAS, COSX integrals, SCF dyn. polar.
   Lee Huntington         : MR-EOM, pCC
   Robert Izsak           : Overlap fitted RIJCOSX, COSX-SCS-MP3, EOM
   Riya Kayal             : Wick's Theorem for AUTO-CI, AUTO-CI UHF-CCSDT
   Emily Kempfer          : AUTO-CI, RHF CISDT and CCSDT
   Christian Kollmar      : KDIIS, OOCD, Brueckner-CCSD(T), CCSD density, CASPT2, CASPT2-K, improved NEVPT2
   Axel Koslowski         : Symmetry handling
   Simone Kossmann        : Meta GGA functionals, TD-DFT gradient, OOMP2, (MP2 Hessian; deprecated post 5.0)
   Lucas Lang             : DCDCAS
   Marvin Lechner         : AUTO-CI (C++ implementation), FIC-MRCC
   Spencer Leger          : CASSCF response
   Dagmar Lenk            : GEPOL surface, SMD, ORCA-2-JSON
   Dimitrios Liakos       : Extrapolation schemes; Compound Job, initial MDCI parallelization
   Dimitrios Manganas     : Further ROCIS development; embedding schemes. LFT, Crystal Embedding
   Dimitrios Pantazis     : SARC Basis sets
   Anastasios Papadopoulos: AUTO-CI, single reference methods and gradients
   Taras Petrenko         : pre 6.0 DFT Hessian and TD-DFT gradient, (ASA, deprecated), ECA, 1-Electron XAS/XES, NRVS
   Peter Pinski           : DLPNO-MP2, DLPNO-MP2 Gradient
   Christoph Reimann      : Effective Core Potentials
   Marius Retegan         : Local ZFS, SOC
   Christoph Riplinger    : Optimizer, TS searches, QM/MM, DLPNO-CCSD(T), (RO)-DLPNO pert. Triples
   Michael Roemelt        : Original ROCIS implementation
   Masaaki Saitow         : Open-shell DLPNO-CCSD energy and density
   Barbara Sandhoefer     : DKH picture change effects
   Kantharuban Sivalingam : CASSCF convergence/infrastructure, NEVPT2 and variants, FIC-MRCI
   Bernardo de Souza      : ESD, SOC TD-DFT
   Georgi Stoychev        : AutoAux, RI-MP2 NMR, DLPNO-MP2 response, X2C
   Van Anh Tran           : RI-MP2 g-tensors
   Willem Van den Heuvel  : Paramagnetic NMR
   Zikuan Wang            : NOTCH, Electric field optimization 
   Frank Wennmohs         : Technical directorship and infrastructure
   Hang Xu                : AUTO-CI-Response properties 


 We gratefully acknowledge several colleagues who have allowed us to
 interface, adapt or use parts of their codes:
   Stefan Grimme, W. Hujo, H. Kruse, P. Pracht,  : VdW corrections, initial TS optimization,
                  C. Bannwarth, S. Ehlert,         DFT functionals, gCP, sTDA/sTD-DF
                  L. Wittmann, M. Mueller
   Ed Valeev, F. Pavosevic, A. Kumar             : LibInt (2-el integral package), F12 methods
   Garnet Chan, S. Sharma, J. Yang, R. Olivares  : DMRG
   Ulf Ekstrom                                   : XCFun DFT Library
   Mihaly Kallay                                 : mrcc  (arbitrary order and MRCC methods)
   Frank Weinhold                                : gennbo (NPA and NBO analysis)
   Simon Mueller                                 : openCOSMO-RS
   Christopher J. Cramer and Donald G. Truhlar   : smd solvation model
   Lars Goerigk                                  : TD-DFT with DH, B97 family of functionals
   V. Asgeirsson, H. Jonsson                     : NEB implementation
   FAccTs GmbH                                   : IRC, NEB, NEB-TS, DLPNO-Multilevel, CI-OPT
                                                   MM, QMMM, 2- and 3-layer-ONIOM, Crystal-QMMM,
                                                   LR-CPCM, SF, NACMEs, symmetry and pop. for TD-DFT,
                                                   nearIR, NL-DFT gradient (VV10), updates on ESD,
                                                   ML-optimized integration grids, MBIS, APM,
                                                   GOAT, DOCKER, SOLVATOR, interface openCOSMO-RS
   S Lehtola, MJT Oliveira, MAL Marques          : LibXC Library
   Liviu Ungur et al                             : ANISO software


 Your calculation uses the libint2 library for the computation of 2-el integrals
 For citations please refer to: http://libint.valeyev.net

 Your ORCA version has been built with support for libXC version: 6.2.2
 For citations please refer to: https://libxc.gitlab.io

 This ORCA versions uses:
   CBLAS   interface :  Fast vector & matrix operations
   LAPACKE interface :  Fast linear algebra routines
   SCALAPACK package :  Parallel linear algebra routines
   Shared memory     :  Shared parallel matrices
   BLAS/LAPACK       :  OpenBLAS 0.3.27  USE64BITINT DYNAMIC_ARCH NO_AFFINITY Zen SINGLE_THREADED
        Core in use  :  Zen
   Copyright (c) 2011-2014, The OpenBLAS Project


Your calculation utilizes the atom-pairwise dispersion correction
with the Becke-Johnson damping scheme (D3BJ)


Warning: RI is on but no J-basis has been assigned. Assigning Def2/J (nothing to worry about!)
================================================================================

----- Orbital basis set information -----
Your calculation utilizes the basis: def2-TZVPPD
   F. Weigend and R. Ahlrichs, Phys. Chem. Chem. Phys. 7, 3297 (2005).
   D. Rappoport and F. Furche, J. Chem. Phys. 133, 134105 (2010)
   D. Rappoport, J. Chem. Phys. 155, 124102 (2021).

----- AuxJ basis set information -----
Your calculation utilizes the auxiliary basis: def2/J
   F. Weigend, Phys. Chem. Chem. Phys. 8, 1057 (2006).

================================================================================
                                        WARNINGS
                       Please study these warnings very carefully!
================================================================================

Using LibXC functional ID 531 : wB97M-V exchange-correlation functional
[ 1]  N. Mardirossian and M. Head-Gordon.,  J. Chem. Phys. 144, 214110 (2016)
Using LibXC functional ID 531 : wB97M-V exchange-correlation functional
[ 1]  N. Mardirossian and M. Head-Gordon.,  J. Chem. Phys. 144, 214110 (2016)

WARNING: B97M-V or wB97M-V functional requested.
  ===> : libXC variant has now been activated.
         Any manually given DFX/HFX/RangeSep scaling parameters are IGNORED!

Your calculation utilizes LibXC
 by S Lehtola, C Steigemann, MJT Oliveira & MAL Marques
Please cite in your paper:
 S Lehtola, C Steigemann, MJT Oliveira & MAL Marques, SoftwareX, 7, (2018), 1.
   


WARNING: your system is open-shell and RHF/RKS was chosen
  ===> : WILL SWITCH to UHF/UKS

INFO   : Checking CIS options ...

WARNING: CIS/ROCIS methods need fully converged wavefunctions
  ===> : Setting SCFConvForced true
         You can overwrite this default with %scf ConvForced false 


================================================================================
                                       INPUT FILE
================================================================================
NAME = orca.inp
|  1> ! Engrad def2-TZVPPD wB97M-D3BJ 
|  2> %pal nprocs 8 end%pal nprocs 64 end 
|  3> %tddft 
|  4>  Iroot 2 Nroots 3 
|  5> sf true 
|  6> end 
|  7> *xyz 0 3 
|  8> O   3.46222586 -0.25772929 -0.04446904
|  9> O   -0.26675113 0.77097551 -2.76833043
| 10> O   -0.33407203 -2.73894425 -0.79313502
| 11> O   -3.54241969 -0.75178745 0.07452418
| 12> N   -0.31086102 -1.35030345 0.97001366
| 13> N   -2.04470889 0.75996865 0.94979852
| 14> N   1.51098603 -1.36287933 -0.50885103
| 15> N   -1.90510278 -0.01508645 -1.35535852
| 16> C   1.68666927 0.09177413 1.38275677
| 17> C   -0.22951522 1.41293906 -0.4251512
| 18> C   0.19270648 -0.12184244 1.60056013
| 19> C   -0.64073011 1.08148351 0.99195516
| 20> C   2.41373355 1.18057624 2.19960138
| 21> C   0.73810726 2.52294436 -0.67440692
| 22> C   2.31887462 -0.50314253 0.24415802
| 23> C   -0.74422615 0.73462306 -1.62194087
| 24> C   0.23823498 -1.90843312 -0.15227141
| 25> C   -2.55990206 -0.02216996 -0.14073006
| 26> H   -0.0231421 -0.1512114 2.65343068
| 27> H   -0.44328381 1.97647481 1.60650336
| 28> H   3.433565 1.18162349 1.86935203
| 29> H   1.89745423 2.13752125 1.9681256
| 30> H   2.44804176 0.99324884 3.23261812
| 31> H   1.6159916 2.45828864 -0.05352545
| 32> H   1.11125406 2.3708732 -1.74037835
| 33> H   0.22075807 3.48623951 -0.62513337
| 34> H   -1.09872363 -1.92176781 1.29962776
| 35> H   -2.53171225 0.53662465 1.81477716
| 36> H   1.97733112 -1.99880571 -1.16403324
| 37> H   -2.24149036 -0.68991935 -2.00878737
| 38> *
| 39> 
| 40>                          ****END OF INPUT****
================================================================================

                     *******************************
                     * Energy+Gradient Calculation *
                     *******************************

---------------------------------
CARTESIAN COORDINATES (ANGSTROEM)
---------------------------------
  O      3.462226   -0.257729   -0.044469
  O     -0.266751    0.770976   -2.768330
  O     -0.334072   -2.738944   -0.793135
  O     -3.542420   -0.751787    0.074524
  N     -0.310861   -1.350303    0.970014
  N     -2.044709    0.759969    0.949799
  N      1.510986   -1.362879   -0.508851
  N     -1.905103   -0.015086   -1.355359
  C      1.686669    0.091774    1.382757
  C     -0.229515    1.412939   -0.425151
  C      0.192706   -0.121842    1.600560
  C     -0.640730    1.081484    0.991955
  C      2.413734    1.180576    2.199601
  C      0.738107    2.522944   -0.674407
  C      2.318875   -0.503143    0.244158
  C     -0.744226    0.734623   -1.621941
  C      0.238235   -1.908433   -0.152271
  C     -2.559902   -0.022170   -0.140730
  H     -0.023142   -0.151211    2.653431
  H     -0.443284    1.976475    1.606503
  H      3.433565    1.181623    1.869352
  H      1.897454    2.137521    1.968126
  H      2.448042    0.993249    3.232618
  H      1.615992    2.458289   -0.053525
  H      1.111254    2.370873   -1.740378
  H      0.220758    3.486240   -0.625133
  H     -1.098724   -1.921768    1.299628
  H     -2.531712    0.536625    1.814777
  H      1.977331   -1.998806   -1.164033
  H     -2.241490   -0.689919   -2.008787

----------------------------
CARTESIAN COORDINATES (A.U.)
----------------------------
  NO LB      ZA    FRAG     MASS         X           Y           Z
   0 O     8.0000    0    15.999    6.542659   -0.487038   -0.084034
   1 O     8.0000    0    15.999   -0.504087    1.456933   -5.231386
   2 O     8.0000    0    15.999   -0.631305   -5.175855   -1.498808
   3 O     8.0000    0    15.999   -6.694203   -1.420672    0.140830
   4 N     7.0000    0    14.007   -0.587442   -2.551704    1.833060
   5 N     7.0000    0    14.007   -3.863940    1.436133    1.794859
   6 N     7.0000    0    14.007    2.855350   -2.575469   -0.961589
   7 N     7.0000    0    14.007   -3.600123   -0.028509   -2.561256
   8 C     6.0000    0    12.011    3.187343    0.173428    2.613032
   9 C     6.0000    0    12.011   -0.433721    2.670068   -0.803419
  10 C     6.0000    0    12.011    0.364162   -0.230249    3.024620
  11 C     6.0000    0    12.011   -1.210804    2.043708    1.874524
  12 C     6.0000    0    12.011    4.561295    2.230966    4.156644
  13 C     6.0000    0    12.011    1.394821    4.767674   -1.274444
  14 C     6.0000    0    12.011    4.382038   -0.950802    0.461392
  15 C     6.0000    0    12.011   -1.406384    1.388236   -3.065024
  16 C     6.0000    0    12.011    0.450199   -3.606416   -0.287751
  17 C     6.0000    0    12.011   -4.837514   -0.041895   -0.265941
  18 H     1.0000    0     1.008   -0.043732   -0.285748    5.014257
  19 H     1.0000    0     1.008   -0.837685    3.734996    3.035851
  20 H     1.0000    0     1.008    6.488498    2.232945    3.532563
  21 H     1.0000    0     1.008    3.585669    4.039330    3.719218
  22 H     1.0000    0     1.008    4.626128    1.876968    6.108763
  23 H     1.0000    0     1.008    3.053782    4.645492   -0.101148
  24 H     1.0000    0     1.008    2.099966    4.480301   -3.288838
  25 H     1.0000    0     1.008    0.417172    6.588038   -1.181331
  26 H     1.0000    0     1.008   -2.076287   -3.631615    2.455941
  27 H     1.0000    0     1.008   -4.784243    1.014074    3.429432
  28 H     1.0000    0     1.008    3.736614   -3.777195   -2.199704
  29 H     1.0000    0     1.008   -4.235803   -1.303759   -3.796058

--------------------------------
INTERNAL COORDINATES (ANGSTROEM)
--------------------------------
 O      0   0   0     0.000000000000     0.00000000     0.00000000
 O      1   0   0     4.731059482761     0.00000000     0.00000000
 O      2   1   0     4.028084623354    62.70251159     0.00000000
 O      3   2   1     3.872353204779    71.12928049   125.41520843
 N      3   2   1     2.244449885873    81.13652170    63.15010178
 N      4   3   2     2.301010499017    83.28662053   297.54890208
 N      1   2   3     2.290053300193    46.89043278   359.51954374
 N      4   3   2     2.295234097632    55.53442597     0.52293170
 C      1   2   3     2.304718498562    73.52112569   291.65739259
 C      6   4   3     2.368920671629   117.32662851    49.77437759
 C      5   3   2     1.469790982071   149.05538920   320.40499260
 C      6   4   3     1.440939069561   142.36536710    11.79149443
 C      9   1   2     1.543161566032    94.11830841   235.40304479
 C     10   6   4     1.493497051816   142.95652547   153.77557253
 C      1   2   3     1.204485490216    55.53377702   321.13326046
 C      2   1   3     1.242381953596    76.42612887    64.14154997
 C      3   2   1     1.194985446510    69.47457342    33.25577349
 C      4   3   2     1.242584790995    66.88262696   327.84613935
 H     11   5   3     1.075169540285   109.17739929   195.25854699
 H     12   6   4     1.103478118760   111.81471863   180.22373450
 H     13   9   1     1.071971042667   106.60969236   351.02212413
 H     13   9   1     1.111696507663   106.16031681   110.74827657
 H     13   9   1     1.050424767979   114.21243685   234.57046985
 H     14  10   6     1.077197788865   112.78077399    86.31773151
 H     14  10   6     1.139587320757   105.60948498   200.83437330
 H     14  10   6     1.094538995713   109.89876971   317.46324078
 H      5   3   2     1.027591583220    84.25959697   130.56120991
 H      6   4   3     1.017468850945    82.39262474   242.21191096
 H      7   1   2     1.025253057566    92.37016778   102.16594802
 H      8   4   3     0.997760145983    87.15676444    72.86877354

---------------------------
INTERNAL COORDINATES (A.U.)
---------------------------
 O      0   0   0     0.000000000000     0.00000000     0.00000000
 O      1   0   0     8.940406745710     0.00000000     0.00000000
 O      2   1   0     7.611976782398    62.70251159     0.00000000
 O      3   2   1     7.317687050844    71.12928049   125.41520843
 N      3   2   1     4.241395605611    81.13652170    63.15010178
 N      4   3   2     4.348279674420    83.28662053   297.54890208
 N      1   2   3     4.327573569448    46.89043278   359.51954374
 N      4   3   2     4.337363857762    55.53442597     0.52293170
 C      1   2   3     4.355286778065    73.52112569   291.65739259
 C      6   4   3     4.476611302364   117.32662851    49.77437759
 C      5   3   2     2.777502430221   149.05538920   320.40499260
 C      6   4   3     2.722980217138   142.36536710    11.79149443
 C      9   1   2     2.916152740194    94.11830841   235.40304479
 C     10   6   4     2.822300409750   142.95652547   153.77557253
 C      1   2   3     2.276147708790    55.53377702   321.13326046
 C      2   1   3     2.347761646023    76.42612887    64.14154997
 C      3   2   1     2.258195227926    69.47457342    33.25577349
 C      4   3   2     2.348144953157    66.88262696   327.84613935
 H     11   5   3     2.031775978673   109.17739929   195.25854699
 H     12   6   4     2.085271439231   111.81471863   180.22373450
 H     13   9   1     2.025731694135   106.60969236   351.02212413
 H     13   9   1     2.100801943520   106.16031681   110.74827657
 H     13   9   1     1.985015135769   114.21243685   234.57046985
 H     14  10   6     2.035608813020   112.78077399    86.31773151
 H     14  10   6     2.153507941920   105.60948498   200.83437330
 H     14  10   6     2.068378944795   109.89876971   317.46324078
 H      5   3   2     1.941866669809    84.25959697   130.56120991
 H      6   4   3     1.922737478082    82.39262474   242.21191096
 H      7   1   2     1.937447496764    92.37016778   102.16594802
 H      8   4   3     1.885493423250    87.15676444    72.86877354

---------------------
BASIS SET INFORMATION
---------------------
There are 4 groups of distinct atoms

 Group   1 Type O   : 12s7p3d1f contracted to 6s4p3d1f pattern {621111/4111/111/1}
 Group   2 Type N   : 12s6p3d1f contracted to 6s3p3d1f pattern {621111/411/111/1}
 Group   3 Type C   : 12s6p3d1f contracted to 6s3p3d1f pattern {621111/411/111/1}
 Group   4 Type H   : 5s3p1d contracted to 3s3p1d pattern {311/111/1}

Atom   0O    basis set group =>   1
Atom   1O    basis set group =>   1
Atom   2O    basis set group =>   1
Atom   3O    basis set group =>   1
Atom   4N    basis set group =>   2
Atom   5N    basis set group =>   2
Atom   6N    basis set group =>   2
Atom   7N    basis set group =>   2
Atom   8C    basis set group =>   3
Atom   9C    basis set group =>   3
Atom  10C    basis set group =>   3
Atom  11C    basis set group =>   3
Atom  12C    basis set group =>   3
Atom  13C    basis set group =>   3
Atom  14C    basis set group =>   3
Atom  15C    basis set group =>   3
Atom  16C    basis set group =>   3
Atom  17C    basis set group =>   3
Atom  18H    basis set group =>   4
Atom  19H    basis set group =>   4
Atom  20H    basis set group =>   4
Atom  21H    basis set group =>   4
Atom  22H    basis set group =>   4
Atom  23H    basis set group =>   4
Atom  24H    basis set group =>   4
Atom  25H    basis set group =>   4
Atom  26H    basis set group =>   4
Atom  27H    basis set group =>   4
Atom  28H    basis set group =>   4
Atom  29H    basis set group =>   4
---------------------------------
AUXILIARY/J BASIS SET INFORMATION
---------------------------------
There are 4 groups of distinct atoms

 Group   1 Type O   : 12s5p4d2f1g contracted to 6s4p3d1f1g pattern {711111/2111/211/2/1}
 Group   2 Type N   : 12s5p4d2f1g contracted to 6s4p3d1f1g pattern {711111/2111/211/2/1}
 Group   3 Type C   : 12s5p4d2f1g contracted to 6s4p3d1f1g pattern {711111/2111/211/2/1}
 Group   4 Type H   : 5s2p1d contracted to 3s1p1d pattern {311/2/1}

Atom   0O    basis set group =>   1
Atom   1O    basis set group =>   1
Atom   2O    basis set group =>   1
Atom   3O    basis set group =>   1
Atom   4N    basis set group =>   2
Atom   5N    basis set group =>   2
Atom   6N    basis set group =>   2
Atom   7N    basis set group =>   2
Atom   8C    basis set group =>   3
Atom   9C    basis set group =>   3
Atom  10C    basis set group =>   3
Atom  11C    basis set group =>   3
Atom  12C    basis set group =>   3
Atom  13C    basis set group =>   3
Atom  14C    basis set group =>   3
Atom  15C    basis set group =>   3
Atom  16C    basis set group =>   3
Atom  17C    basis set group =>   3
Atom  18H    basis set group =>   4
Atom  19H    basis set group =>   4
Atom  20H    basis set group =>   4
Atom  21H    basis set group =>   4
Atom  22H    basis set group =>   4
Atom  23H    basis set group =>   4
Atom  24H    basis set group =>   4
Atom  25H    basis set group =>   4
Atom  26H    basis set group =>   4
Atom  27H    basis set group =>   4
Atom  28H    basis set group =>   4
Atom  29H    basis set group =>   4
[1741397169.825104] [ohm:1377808:0]        ib_iface.c:1059 UCX  ERROR ibv_create_cq(cqe=256) failed: Connection timed out
[1741397169.855658] [ohm:1377803:0]        ib_iface.c:1059 UCX  ERROR ibv_create_cq(cqe=256) failed: Connection timed out
[1741397169.860521] [ohm:1377805:0]        ib_iface.c:1059 UCX  ERROR ibv_create_cq(cqe=256) failed: Connection timed out
[1741397169.871462] [ohm:1377806:0]        ib_iface.c:1059 UCX  ERROR ibv_create_cq(cqe=256) failed: Connection timed out
[1741397169.874815] [ohm:1377804:0]        ib_iface.c:1059 UCX  ERROR ibv_create_cq(cqe=256) failed: Connection timed out
[1741397169.874828] [ohm:1377810:0]        ib_iface.c:1059 UCX  ERROR ibv_create_cq(cqe=256) failed: Connection timed out
[1741397169.877747] [ohm:1377811:0]        ib_iface.c:1059 UCX  ERROR ibv_create_cq(cqe=256) failed: Connection timed out
[1741397169.877946] [ohm:1377848:0]        ib_iface.c:1059 UCX  ERROR ibv_create_cq(cqe=256) failed: Connection timed out
[1741397169.918341] [ohm:1377849:0]        ib_iface.c:1059 UCX  ERROR ibv_create_cq(cqe=256) failed: Connection timed out
[1741397169.923179] [ohm:1377877:0]        ib_iface.c:1059 UCX  ERROR ibv_create_cq(cqe=256) failed: Connection timed out
[1741397169.926750] [ohm:1377821:0]        ib_iface.c:1059 UCX  ERROR ibv_create_cq(cqe=256) failed: Connection timed out
[1741397169.948212] [ohm:1377868:0]        ib_iface.c:1059 UCX  ERROR ibv_create_cq(cqe=256) failed: Connection timed out
[1741397169.948488] [ohm:1377817:0]        ib_iface.c:1059 UCX  ERROR ibv_create_cq(cqe=256) failed: Connection timed out
[1741397169.950160] [ohm:1377825:0]        ib_iface.c:1059 UCX  ERROR ibv_create_cq(cqe=256) failed: Connection timed out
[1741397169.953704] [ohm:1377816:0]        ib_iface.c:1059 UCX  ERROR ibv_create_cq(cqe=256) failed: Connection timed out
[1741397169.956363] [ohm:1377827:0]        ib_iface.c:1059 UCX  ERROR ibv_create_cq(cqe=256) failed: Connection timed out
[1741397169.962215] [ohm:1377873:0]        ib_iface.c:1059 UCX  ERROR ibv_create_cq(cqe=256) failed: Connection timed out
[1741397169.971104] [ohm:1377819:0]        ib_iface.c:1059 UCX  ERROR ibv_create_cq(cqe=256) failed: Connection timed out
[1741397169.990515] [ohm:1377859:0]        ib_iface.c:1059 UCX  ERROR ibv_create_cq(cqe=256) failed: Connection timed out
[1741397169.992904] [ohm:1377826:0]        ib_iface.c:1059 UCX  ERROR ibv_create_cq(cqe=256) failed: Connection timed out
[1741397170.025170] [ohm:1377828:0]        ib_iface.c:1059 UCX  ERROR ibv_create_cq(cqe=256) failed: Connection timed out
[1741397170.033026] [ohm:1377818:0]        ib_iface.c:1059 UCX  ERROR ibv_create_cq(cqe=256) failed: Connection timed out
[1741397170.036075] [ohm:1377881:0]        ib_iface.c:1059 UCX  ERROR ibv_create_cq(cqe=256) failed: Connection timed out
[1741397170.039459] [ohm:1377837:0]        ib_iface.c:1059 UCX  ERROR ibv_create_cq(cqe=256) failed: Connection timed out
[1741397170.044094] [ohm:1377944:0]        ib_iface.c:1059 UCX  ERROR ibv_create_cq(cqe=256) failed: Connection timed out
[1741397170.045754] [ohm:1377892:0]        ib_iface.c:1059 UCX  ERROR ibv_create_cq(cqe=256) failed: Connection timed out
[1741397170.050705] [ohm:1377907:0]        ib_iface.c:1059 UCX  ERROR ibv_create_cq(cqe=256) failed: Connection timed out
[1741397170.053156] [ohm:1377815:0]        ib_iface.c:1059 UCX  ERROR ibv_create_cq(cqe=256) failed: Connection timed out
[1741397170.065907] [ohm:1377860:0]        ib_iface.c:1059 UCX  ERROR ibv_create_cq(cqe=256) failed: Connection timed out
[1741397170.070133] [ohm:1377866:0]        ib_iface.c:1059 UCX  ERROR ibv_create_cq(cqe=256) failed: Connection timed out
[1741397170.083162] [ohm:1377896:0]        ib_iface.c:1059 UCX  ERROR ibv_create_cq(cqe=256) failed: Connection timed out
[1741397170.086650] [ohm:1377813:0]        ib_iface.c:1059 UCX  ERROR ibv_create_cq(cqe=256) failed: Connection timed out
[1741397170.091945] [ohm:1377840:0]        ib_iface.c:1059 UCX  ERROR ibv_create_cq(cqe=256) failed: Connection timed out
[1741397170.092141] [ohm:1377904:0]        ib_iface.c:1059 UCX  ERROR ibv_create_cq(cqe=256) failed: Connection timed out
[1741397170.096125] [ohm:1377888:0]        ib_iface.c:1059 UCX  ERROR ibv_create_cq(cqe=256) failed: Connection timed out
[1741397170.117303] [ohm:1377809:0]        ib_iface.c:1059 UCX  ERROR ibv_create_cq(cqe=256) failed: Connection timed out
[1741397170.124742] [ohm:1377856:0]        ib_iface.c:1059 UCX  ERROR ibv_create_cq(cqe=256) failed: Connection timed out
[1741397170.126004] [ohm:1377854:0]        ib_iface.c:1059 UCX  ERROR ibv_create_cq(cqe=256) failed: Connection timed out
[1741397170.132551] [ohm:1377931:0]        ib_iface.c:1059 UCX  ERROR ibv_create_cq(cqe=256) failed: Connection timed out
[1741397170.136363] [ohm:1377917:0]        ib_iface.c:1059 UCX  ERROR ibv_create_cq(cqe=256) failed: Connection timed out
[1741397170.137756] [ohm:1377885:0]        ib_iface.c:1059 UCX  ERROR ibv_create_cq(cqe=256) failed: Connection timed out
[1741397170.147312] [ohm:1377890:0]        ib_iface.c:1059 UCX  ERROR ibv_create_cq(cqe=256) failed: Connection timed out
[1741397170.147791] [ohm:1377912:0]        ib_iface.c:1059 UCX  ERROR ibv_create_cq(cqe=256) failed: Connection timed out
[1741397170.148932] [ohm:1377928:0]        ib_iface.c:1059 UCX  ERROR ibv_create_cq(cqe=256) failed: Connection timed out
[1741397170.153116] [ohm:1377900:0]        ib_iface.c:1059 UCX  ERROR ibv_create_cq(cqe=256) failed: Connection timed out
[1741397170.157548] [ohm:1377910:0]        ib_iface.c:1059 UCX  ERROR ibv_create_cq(cqe=256) failed: Connection timed out
[1741397170.163252] [ohm:1377831:0]        ib_iface.c:1059 UCX  ERROR ibv_create_cq(cqe=256) failed: Connection timed out
[1741397170.166689] [ohm:1377820:0]        ib_iface.c:1059 UCX  ERROR ibv_create_cq(cqe=256) failed: Connection timed out
[1741397170.169004] [ohm:1377946:0]        ib_iface.c:1059 UCX  ERROR ibv_create_cq(cqe=256) failed: Connection timed out
[1741397170.169309] [ohm:1377915:0]        ib_iface.c:1059 UCX  ERROR ibv_create_cq(cqe=256) failed: Connection timed out
[1741397170.169317] [ohm:1377823:0]        ib_iface.c:1059 UCX  ERROR ibv_create_cq(cqe=256) failed: Connection timed out
[1741397170.172369] [ohm:1377824:0]        ib_iface.c:1059 UCX  ERROR ibv_create_cq(cqe=256) failed: Connection timed out
[1741397170.172741] [ohm:1377937:0]        ib_iface.c:1059 UCX  ERROR ibv_create_cq(cqe=256) failed: Connection timed out
[1741397170.172878] [ohm:1377921:0]        ib_iface.c:1059 UCX  ERROR ibv_create_cq(cqe=256) failed: Connection timed out
[1741397170.173565] [ohm:1377814:0]        ib_iface.c:1059 UCX  ERROR ibv_create_cq(cqe=256) failed: Connection timed out
[1741397170.178164] [ohm:1377941:0]        ib_iface.c:1059 UCX  ERROR ibv_create_cq(cqe=256) failed: Connection timed out
[1741397170.180428] [ohm:1377924:0]        ib_iface.c:1059 UCX  ERROR ibv_create_cq(cqe=256) failed: Connection timed out
[1741397170.181044] [ohm:1377807:0]        ib_iface.c:1059 UCX  ERROR ibv_create_cq(cqe=256) failed: Connection timed out
[1741397170.184103] [ohm:1377936:0]        ib_iface.c:1059 UCX  ERROR ibv_create_cq(cqe=256) failed: Connection timed out
[1741397170.184239] [ohm:1377822:0]        ib_iface.c:1059 UCX  ERROR ibv_create_cq(cqe=256) failed: Connection timed out
[1741397170.184311] [ohm:1377829:0]        ib_iface.c:1059 UCX  ERROR ibv_create_cq(cqe=256) failed: Connection timed out
[1741397170.185444] [ohm:1377836:0]        ib_iface.c:1059 UCX  ERROR ibv_create_cq(cqe=256) failed: Connection timed out
[1741397170.186304] [ohm:1377802:0]        ib_iface.c:1059 UCX  ERROR ibv_create_cq(cqe=256) failed: Connection timed out
[1741397170.188975] [ohm:1377812:0]        ib_iface.c:1059 UCX  ERROR ibv_create_cq(cqe=256) failed: Connection timed out


           ************************************************************
           *        Program running with 64 parallel MPI-processes    *
           *              working on a common directory               *
           ************************************************************
------------------------------------------------------------------------------
                             ORCA STARTUP CALCULATIONS
                           -- RI-GTO INTEGRALS CHOSEN --
------------------------------------------------------------------------------
------------------------------------------------------------------------------
                   ___                                                        
                  /   \      - P O W E R E D   B Y -                         
                 /     \                                                     
                 |  |  |   _    _      __       _____    __    __             
                 |  |  |  | |  | |    /  \     |  _  \  |  |  /  |          
                  \  \/   | |  | |   /    \    | | | |  |  | /  /          
                 / \  \   | |__| |  /  /\  \   | |_| |  |  |/  /          
                |  |  |   |  __  | /  /__\  \  |    /   |      \           
                |  |  |   | |  | | |   __   |  |    \   |  |\   \          
                \     /   | |  | | |  |  |  |  | |\  \  |  | \   \       
                 \___/    |_|  |_| |__|  |__|  |_| \__\ |__|  \__/        
                                                                              
                      - O R C A' S   B I G   F R I E N D -                    
                                      &                                       
                       - I N T E G R A L  F E E D E R -                       
                                                                              
 v1 FN, 2020, v2 2021, v3 2022-2024                                           
------------------------------------------------------------------------------


----------------------
SHARK INTEGRAL PACKAGE
----------------------

Number of atoms                             ...     30
Number of basis functions                   ...    882
Number of shells                            ...    322
Maximum angular momentum                    ...      3
Integral batch strategy                     ... SHARK/LIBINT Hybrid
RI-J (if used) integral strategy            ... SPLIT-RIJ (Revised 2003 algorithm where possible)
Printlevel                                  ...      1
Contraction scheme used                     ... SEGMENTED contraction
Prescreening option                         ... SCHWARTZ
   Thresh                                   ... 2.500e-11
   Tcut                                     ... 2.500e-12
   Tpresel                                  ... 2.500e-12 
Coulomb Range Separation                    ... NOT USED
Exchange Range Separation                   ... Long Range
   Mu parameter                             ... 3.000e-01
   Scaling (regular/separated)              ... 1.500e-01 8.500e-01
Multipole approximations                    ... NOT USED
Finite Nucleus Model                        ... NOT USED
CABS basis                                  ... NOT available
Auxiliary Coulomb fitting basis             ... AVAILABLE
   # of basis functions in Aux-J            ...   1014
   # of shells in Aux-J                     ...    330
   Maximum angular momentum in Aux-J        ...      4
Auxiliary J/K fitting basis                 ... NOT available
Auxiliary Correlation fitting basis         ... NOT available
Auxiliary 'external' fitting basis          ... NOT available

Checking pre-screening integrals            ... done (  0.0 sec) Dimension = 322
Check shell pair data                       ... done (  0.0 sec)
Shell pair information
Shell pair cut-off parameter TPreSel        ...   2.5e-12
Total number of shell pairs                 ...     52003
Shell pairs after pre-screening             ...     45332
Total number of primitive shell pairs       ...    129718
Primitive shell pairs kept                  ...     84882
          la=0 lb=0:   8781 shell pairs
          la=1 lb=0:  11984 shell pairs
          la=1 lb=1:   4133 shell pairs
          la=2 lb=0:   8121 shell pairs
          la=2 lb=1:   5625 shell pairs
          la=2 lb=2:   1938 shell pairs
          la=3 lb=0:   2101 shell pairs
          la=3 lb=1:   1490 shell pairs
          la=3 lb=2:   1014 shell pairs
          la=3 lb=3:    145 shell pairs

Calculating one electron integrals          ... done (  0.2 sec)
Calculating RI/J V-Matrix + Cholesky decomp.... done (  0.1 sec)
Calculating Nuclear repulsion               ... done (  0.0 sec) ENN=   1456.476400551255 Eh

Diagonalization of the overlap matrix:
Smallest eigenvalue                        ... 6.284e-07
Time for diagonalization                   ...    0.123 sec
Threshold for overlap eigenvalues          ... 1.000e-07
Number of eigenvalues below threshold      ... 0

IMPORTANT:
Smallest eigenvalue of S below the DiffSThresh (1.000e-06) while
Thresh>1e-12 and/or TCut>1e-13! In order to avoid SCF convergence issues,
Thresh will be set to at least 1e-12 and TCut to at least 1e-13.
This can be turned off by adding %SCF DiffSThresh -1 END to the input.

Time for construction of square roots      ...    0.125 sec
Total time needed                          ...    0.267 sec

-------------------
DFT GRID GENERATION
-------------------

General Integration Accuracy     IntAcc      ... 4.388
Radial Grid Type                 RadialGrid  ... OptM3 with GC (2021)
Angular Grid (max. ang.)         AngularGrid ... 4 (Lebedev-302)
Angular grid pruning method      GridPruning ... 4 (adaptive)
Weight generation scheme         WeightScheme... mBecke (2022)
Basis function cutoff            BFCut       ... 1.0000e-11
Integration weight cutoff        WCut        ... 1.0000e-14
Partially contracted basis set               ... off
Rotationally invariant grid construction     ... off
Angular grids for H and He will be reduced by one unit
Diffuse basis detected: some atoms will have their outermost
                        angular grid increased by 1.

Total number of grid points                  ...   151848
Total number of batches                      ...     2389
Average number of points per batch           ...       63
Average number of grid points per atom       ...     5062

--------------------
COSX GRID GENERATION
--------------------

GRIDX 1
-------
General Integration Accuracy     IntAcc      ... 3.816
Radial Grid Type                 RadialGrid  ... OptM3 with GC (2021)
Angular Grid (max. ang.)         AngularGrid ... 1 (Lebedev-50)
Angular grid pruning method      GridPruning ... 4 (adaptive)
Weight generation scheme         WeightScheme... mBecke (2022)
Basis function cutoff            BFCut       ... 1.0000e-11
Integration weight cutoff        WCut        ... 1.0000e-14
Partially contracted basis set               ... on
Rotationally invariant grid construction     ... off
Angular grids for H and He will be reduced by one unit
Diffuse basis detected: some atoms will have their outermost
                        angular grid increased by 1.

Total number of grid points                  ...    19026
Total number of batches                      ...      166
Average number of points per batch           ...      114
Average number of grid points per atom       ...      634
UseSFitting                                  ... on

GRIDX 2
-------
General Integration Accuracy     IntAcc      ... 4.020
Radial Grid Type                 RadialGrid  ... OptM3 with GC (2021)
Angular Grid (max. ang.)         AngularGrid ... 2 (Lebedev-110)
Angular grid pruning method      GridPruning ... 4 (adaptive)
Weight generation scheme         WeightScheme... mBecke (2022)
Basis function cutoff            BFCut       ... 1.0000e-11
Integration weight cutoff        WCut        ... 1.0000e-14
Partially contracted basis set               ... on
Rotationally invariant grid construction     ... off
Angular grids for H and He will be reduced by one unit
Diffuse basis detected: some atoms will have their outermost
                        angular grid increased by 1.

Total number of grid points                  ...    45803
Total number of batches                      ...      373
Average number of points per batch           ...      122
Average number of grid points per atom       ...     1527
UseSFitting                                  ... on

GRIDX 3
-------
General Integration Accuracy     IntAcc      ... 4.338
Radial Grid Type                 RadialGrid  ... OptM3 with GC (2021)
Angular Grid (max. ang.)         AngularGrid ... 3 (Lebedev-194)
Angular grid pruning method      GridPruning ... 4 (adaptive)
Weight generation scheme         WeightScheme... mBecke (2022)
Basis function cutoff            BFCut       ... 1.0000e-11
Integration weight cutoff        WCut        ... 1.0000e-14
Partially contracted basis set               ... on
Rotationally invariant grid construction     ... off
Angular grids for H and He will be reduced by one unit
Diffuse basis detected: some atoms will have their outermost
                        angular grid increased by 1.

Total number of grid points                  ...   100779
Total number of batches                      ...      803
Average number of points per batch           ...      125
Average number of grid points per atom       ...     3359
UseSFitting                                  ... on
Initializing property integral containers    ... done (  0.0 sec)

SHARK setup successfully completed in   4.1 seconds

Maximum memory used throughout the entire STARTUP-calculation: 80.5 MB
[1741397176.171049] [ohm:1378166:0]        ib_iface.c:1059 UCX  ERROR ibv_create_cq(cqe=256) failed: Connection timed out
[1741397176.183549] [ohm:1378164:0]        ib_iface.c:1059 UCX  ERROR ibv_create_cq(cqe=256) failed: Connection timed out
[1741397176.205070] [ohm:1378160:0]        ib_iface.c:1059 UCX  ERROR ibv_create_cq(cqe=256) failed: Connection timed out
[1741397176.211881] [ohm:1378161:0]        ib_iface.c:1059 UCX  ERROR ibv_create_cq(cqe=256) failed: Connection timed out
[1741397176.214112] [ohm:1378311:0]        ib_iface.c:1059 UCX  ERROR ibv_create_cq(cqe=256) failed: Connection timed out
[1741397176.221614] [ohm:1378210:0]        ib_iface.c:1059 UCX  ERROR ibv_create_cq(cqe=256) failed: Connection timed out
[1741397176.226392] [ohm:1378206:0]        ib_iface.c:1059 UCX  ERROR ibv_create_cq(cqe=256) failed: Connection timed out
[1741397176.226465] [ohm:1378243:0]        ib_iface.c:1059 UCX  ERROR ibv_create_cq(cqe=256) failed: Connection timed out
[1741397176.228062] [ohm:1378177:0]        ib_iface.c:1059 UCX  ERROR ibv_create_cq(cqe=256) failed: Connection timed out
[1741397176.229970] [ohm:1378256:0]        ib_iface.c:1059 UCX  ERROR ibv_create_cq(cqe=256) failed: Connection timed out
[1741397176.234464] [ohm:1378169:0]        ib_iface.c:1059 UCX  ERROR ibv_create_cq(cqe=256) failed: Connection timed out
[1741397176.240064] [ohm:1378213:0]        ib_iface.c:1059 UCX  ERROR ibv_create_cq(cqe=256) failed: Connection timed out
[1741397176.245018] [ohm:1378184:0]        ib_iface.c:1059 UCX  ERROR ibv_create_cq(cqe=256) failed: Connection timed out
[1741397176.245446] [ohm:1378199:0]        ib_iface.c:1059 UCX  ERROR ibv_create_cq(cqe=256) failed: Connection timed out
[1741397176.260006] [ohm:1378239:0]        ib_iface.c:1059 UCX  ERROR ibv_create_cq(cqe=256) failed: Connection timed out
[1741397176.272334] [ohm:1378203:0]        ib_iface.c:1059 UCX  ERROR ibv_create_cq(cqe=256) failed: Connection timed out
[1741397176.284569] [ohm:1378252:0]        ib_iface.c:1059 UCX  ERROR ibv_create_cq(cqe=256) failed: Connection timed out
[1741397176.287315] [ohm:1378305:0]        ib_iface.c:1059 UCX  ERROR ibv_create_cq(cqe=256) failed: Connection timed out
[1741397176.288930] [ohm:1378181:0]        ib_iface.c:1059 UCX  ERROR ibv_create_cq(cqe=256) failed: Connection timed out
[1741397176.299256] [ohm:1378216:0]        ib_iface.c:1059 UCX  ERROR ibv_create_cq(cqe=256) failed: Connection timed out
[1741397176.344962] [ohm:1378229:0]        ib_iface.c:1059 UCX  ERROR ibv_create_cq(cqe=256) failed: Connection timed out
[1741397176.350502] [ohm:1378269:0]        ib_iface.c:1059 UCX  ERROR ibv_create_cq(cqe=256) failed: Connection timed out
[1741397176.356742] [ohm:1378159:0]        ib_iface.c:1059 UCX  ERROR ibv_create_cq(cqe=256) failed: Connection timed out
[1741397176.367469] [ohm:1378250:0]        ib_iface.c:1059 UCX  ERROR ibv_create_cq(cqe=256) failed: Connection timed out
[1741397176.372677] [ohm:1378292:0]        ib_iface.c:1059 UCX  ERROR ibv_create_cq(cqe=256) failed: Connection timed out
[1741397176.377832] [ohm:1378295:0]        ib_iface.c:1059 UCX  ERROR ibv_create_cq(cqe=256) failed: Connection timed out
[1741397176.386499] [ohm:1378162:0]        ib_iface.c:1059 UCX  ERROR ibv_create_cq(cqe=256) failed: Connection timed out
[1741397176.387976] [ohm:1378180:0]        ib_iface.c:1059 UCX  ERROR ibv_create_cq(cqe=256) failed: Connection timed out
[1741397176.394175] [ohm:1378207:0]        ib_iface.c:1059 UCX  ERROR ibv_create_cq(cqe=256) failed: Connection timed out
[1741397176.398776] [ohm:1378244:0]        ib_iface.c:1059 UCX  ERROR ibv_create_cq(cqe=256) failed: Connection timed out
[1741397176.399510] [ohm:1378165:0]        ib_iface.c:1059 UCX  ERROR ibv_create_cq(cqe=256) failed: Connection timed out
[1741397176.400148] [ohm:1378265:0]        ib_iface.c:1059 UCX  ERROR ibv_create_cq(cqe=256) failed: Connection timed out
[1741397176.401434] [ohm:1378186:0]        ib_iface.c:1059 UCX  ERROR ibv_create_cq(cqe=256) failed: Connection timed out
[1741397176.408452] [ohm:1378170:0]        ib_iface.c:1059 UCX  ERROR ibv_create_cq(cqe=256) failed: Connection timed out
[1741397176.409971] [ohm:1378261:0]        ib_iface.c:1059 UCX  ERROR ibv_create_cq(cqe=256) failed: Connection timed out
[1741397176.415259] [ohm:1378182:0]        ib_iface.c:1059 UCX  ERROR ibv_create_cq(cqe=256) failed: Connection timed out
[1741397176.419698] [ohm:1378187:0]        ib_iface.c:1059 UCX  ERROR ibv_create_cq(cqe=256) failed: Connection timed out
[1741397176.423826] [ohm:1378298:0]        ib_iface.c:1059 UCX  ERROR ibv_create_cq(cqe=256) failed: Connection timed out
[1741397176.424907] [ohm:1378302:0]        ib_iface.c:1059 UCX  ERROR ibv_create_cq(cqe=256) failed: Connection timed out
[1741397176.426569] [ohm:1378194:0]        ib_iface.c:1059 UCX  ERROR ibv_create_cq(cqe=256) failed: Connection timed out
[1741397176.426850] [ohm:1378289:0]        ib_iface.c:1059 UCX  ERROR ibv_create_cq(cqe=256) failed: Connection timed out
[1741397176.429629] [ohm:1378281:0]        ib_iface.c:1059 UCX  ERROR ibv_create_cq(cqe=256) failed: Connection timed out
[1741397176.438457] [ohm:1378173:0]        ib_iface.c:1059 UCX  ERROR ibv_create_cq(cqe=256) failed: Connection timed out
[1741397176.450384] [ohm:1378163:0]        ib_iface.c:1059 UCX  ERROR ibv_create_cq(cqe=256) failed: Connection timed out
[1741397176.451576] [ohm:1378278:0]        ib_iface.c:1059 UCX  ERROR ibv_create_cq(cqe=256) failed: Connection timed out
[1741397176.454006] [ohm:1378260:0]        ib_iface.c:1059 UCX  ERROR ibv_create_cq(cqe=256) failed: Connection timed out
[1741397176.454230] [ohm:1378234:0]        ib_iface.c:1059 UCX  ERROR ibv_create_cq(cqe=256) failed: Connection timed out
[1741397176.454483] [ohm:1378285:0]        ib_iface.c:1059 UCX  ERROR ibv_create_cq(cqe=256) failed: Connection timed out
[1741397176.454803] [ohm:1378179:0]        ib_iface.c:1059 UCX  ERROR ibv_create_cq(cqe=256) failed: Connection timed out
[1741397176.455172] [ohm:1378172:0]        ib_iface.c:1059 UCX  ERROR ibv_create_cq(cqe=256) failed: Connection timed out
[1741397176.456699] [ohm:1378176:0]        ib_iface.c:1059 UCX  ERROR ibv_create_cq(cqe=256) failed: Connection timed out
[1741397176.465512] [ohm:1378196:0]        ib_iface.c:1059 UCX  ERROR ibv_create_cq(cqe=256) failed: Connection timed out
[1741397176.466132] [ohm:1378174:0]        ib_iface.c:1059 UCX  ERROR ibv_create_cq(cqe=256) failed: Connection timed out
[1741397176.474150] [ohm:1378190:0]        ib_iface.c:1059 UCX  ERROR ibv_create_cq(cqe=256) failed: Connection timed out
[1741397176.477106] [ohm:1378224:0]        ib_iface.c:1059 UCX  ERROR ibv_create_cq(cqe=256) failed: Connection timed out
[1741397176.478554] [ohm:1378175:0]        ib_iface.c:1059 UCX  ERROR ibv_create_cq(cqe=256) failed: Connection timed out
[1741397176.478587] [ohm:1378215:0]        ib_iface.c:1059 UCX  ERROR ibv_create_cq(cqe=256) failed: Connection timed out
[1741397176.479421] [ohm:1378168:0]        ib_iface.c:1059 UCX  ERROR ibv_create_cq(cqe=256) failed: Connection timed out
[1741397176.480579] [ohm:1378272:0]        ib_iface.c:1059 UCX  ERROR ibv_create_cq(cqe=256) failed: Connection timed out
[1741397176.482742] [ohm:1378167:0]        ib_iface.c:1059 UCX  ERROR ibv_create_cq(cqe=256) failed: Connection timed out
[1741397176.483421] [ohm:1378171:0]        ib_iface.c:1059 UCX  ERROR ibv_create_cq(cqe=256) failed: Connection timed out
[1741397176.484019] [ohm:1378221:0]        ib_iface.c:1059 UCX  ERROR ibv_create_cq(cqe=256) failed: Connection timed out
[1741397176.484815] [ohm:1378178:0]        ib_iface.c:1059 UCX  ERROR ibv_create_cq(cqe=256) failed: Connection timed out
[1741397176.485571] [ohm:1378211:0]        ib_iface.c:1059 UCX  ERROR ibv_create_cq(cqe=256) failed: Connection timed out


           ************************************************************
           *        Program running with 64 parallel MPI-processes    *
           *              working on a common directory               *
           ************************************************************
-------------------------------------------------------------------------------
                                 ORCA GUESS
                   Start orbitals & Density for SCF / CASSCF
-------------------------------------------------------------------------------

------------
SCF SETTINGS
------------
Hamiltonian:
 Density Functional     Method          .... DFT(GTOs)
  Functional kind                       .... Exchange-Correlation
  Functional name                       .... wB97M-V exchange-correlation functional
  Functional family                     .... Hybrid MGGA
  Functional refs                              
    [ 0] N. Mardirossian and M. Head-Gordon.,  J. Chem. Phys. 144, 214110 (2016), doi: 10.1063/1.4952647
  Fraction of HF Exchange (short range) .... 0.1500
  Fraction of HF Exchange (long range)  .... 1.0000
  Range separation parameter mu         .... 0.3000
  Functional external parameters        .... 17
    Parameter  0 _cx00      =  8.500000e-01 : u^00 coefficient for exchange
    Parameter  1 _cx01      =  1.007000e+00 : u^01 coefficient for exchange
    Parameter  2 _cx10      =  2.590000e-01 : u^10 coefficient for exchange
    Parameter  3 _css00     =  4.430000e-01 : u^00 coefficient for same-spin correlation
    Parameter  4 _css04     = -1.437000e+00 : u^04 coefficient for same-spin correlation
    Parameter  5 _css10     = -4.535000e+00 : u^10 coefficient for same-spin correlation
    Parameter  6 _css20     = -3.390000e+00 : u^20 coefficient for same-spin correlation
    Parameter  7 _css43     =  4.278000e+00 : u^43 coefficient for same-spin correlation
    Parameter  8 _cos00     =  1.000000e+00 : u^00 coefficient for opposite-spin correlation
    Parameter  9 _cos10     =  1.358000e+00 : u^10 coefficient for opposite-spin correlation
    Parameter 10 _cos20     =  2.924000e+00 : u^20 coefficient for opposite-spin correlation
    Parameter 11 _cos21     = -8.812000e+00 : u^21 coefficient for opposite-spin correlation
    Parameter 12 _cos60     = -1.390000e+00 : u^60 coefficient for opposite-spin correlation
    Parameter 13 _cos61     =  9.142000e+00 : u^61 coefficient for opposite-spin correlation
    Parameter 14 _alpha     =  1.000000e+00 : fraction of HF exchange
    Parameter 15 _beta      = -8.500000e-01 : fraction of short-range exchange
    Parameter 16 _omega     =  3.000000e-01 : range-separation constant
 Long-range corrected/Screened/Range-Separated Hybrid DFT is turned on
   Amount of maximum screened exact exchange              ....  0.850000
   Range separation parameter mu (erf(mu*r12)/r12)        ....  0.300000
 RI-approximation to the Coulomb term is turned on
   Number of AuxJ basis functions       .... 1014
   RIJ-COSX (HFX calculated with COS-X)).... on


General Settings:
 Integral files         IntName         .... orca
 Hartree-Fock type      HFTyp           .... UHF
 Total Charge           Charge          ....    0
 Multiplicity           Mult            ....    3
 Number of Electrons    NEL             ....  132
 Basis Dimension        Dim             ....  882
 Nuclear Repulsion      ENuc            ....   1456.4764005513 Eh

Convergence Acceleration:
 AO-DIIS                CNVDIIS         .... on
   Start iteration      DIISMaxIt       ....    12
   Startup error        DIISStart       ....  0.200000
   # of expansion vecs  DIISMaxEq       ....     5
   Bias factor          DIISBfac        ....   1.050
   Max. coefficient     DIISMaxC        ....  10.000
 MO-DIIS                CNVKDIIS        .... off
 Trust-Rad. Augm. Hess. CNVTRAH         .... auto
   Auto Start mean grad. ratio tolernc. ....  1.125000
   Auto Start start iteration           ....    50
   Auto Start num. interpolation iter.  ....    10
   Max. Number of Micro iterations      ....    24
   Max. Number of Macro iterations      .... Maxiter - #DIIS iter
   Number of Davidson start vectors     ....     2
   Converg. threshold    (grad. norm)   ....   1.000e-05
   Grad. Scal. Fac. for Micro threshold ....   0.100
   Minimum threshold for Micro iter.    ....   1.000e-02
   NR start threshold (gradient norm)   ....   1.000e-04
   Initial trust radius                 ....   0.400
   Minimum AH scaling param. (alpha)    ....   1.000
   Maximum AH scaling param. (alpha)    .... 1000.000
   Quad. conv. algorithm                .... NR
   White noise on init. David. guess    .... on
   Maximum white noise                  ....   0.010
   Pseudo random numbers                .... off
   Inactive MOs                         .... canonical
   Orbital update algorithm             .... Taylor
   Preconditioner                       .... Diag
   Full preconditioner red. dimension   ....   250
 SOSCF                  CNVSOSCF        .... on
   Start iteration      SOSCFMaxIt      ....   150
   Startup grad/error   SOSCFStart      ....  0.003300
   Hessian update       SOSCFHessUp     .... L-BFGS
 Level Shifting         CNVShift        .... on
   Level shift para.    LevelShift      ....    0.2500
   Turn off err/grad.   ShiftErr        ....    0.0010
 Zerner damping         CNVZerner       .... off
 Static damping         CNVDamp         .... on
   Fraction old density DampFac         ....    0.7000
   Max. Damping (<1)    DampMax         ....    0.9800
   Min. Damping (>=0)   DampMin         ....    0.0000
   Turn off err/grad.   DampErr         ....    0.1000

SCF Procedure:
 Maximum # iterations   MaxIter         ....   125
 SCF integral mode      SCFMode         .... Direct
   Integral package                     .... SHARK and LIBINT hybrid scheme
 Reset frequency        DirectResetFreq ....    20
 Integral Threshold     Thresh          ....  1.000e-12 Eh
 Primitive CutOff       TCut            ....  1.000e-13 Eh

Convergence Tolerance:
 Convergence Check Mode ConvCheckMode   .... Total+1el-Energy
 Convergence forced     ConvForced      .... 1
 Energy Change          TolE            ....  1.000e-08 Eh
 1-El. energy change                    ....  1.000e-05 Eh
 Orbital Gradient       TolG            ....  1.000e-05
 Orbital Rotation angle TolX            ....  1.000e-05
 DIIS Error             TolErr          ....  5.000e-07

------------------------------
INITIAL GUESS: MODEL POTENTIAL
------------------------------
Loading Hartree-Fock densities                     ... done
Calculating cut-offs                               ... done
Initializing the effective Hamiltonian             ... done
Setting up the integral package (SHARK)            ... done
Starting the Coulomb interaction                   ... done (   0.1 sec)
Making the grid                                    ... done (   0.3 sec)
Mapping shells                                     ... done
Starting the XC term evaluation                    ... done (   0.1 sec)
  promolecular density results
     # of electrons  =    132.000086513
     EX              =   -113.482586959
     EC              =     -4.489932122
     EX+EC           =   -117.972519081
Transforming the Hamiltonian                       ... done (   0.1 sec)
Diagonalizing the Hamiltonian                      ... done (   0.1 sec)
Back transforming the eigenvectors                 ... done (   0.1 sec)
Now organizing SCF variables                       ... done
                      ------------------
                      INITIAL GUESS DONE (   1.1 sec)
                      ------------------
             **** ENERGY FILE WAS UPDATED (orca.en.tmp) ****
Finished Guess after   3.5 sec
Maximum memory used throughout the entire GUESS-calculation: 73.0 MB
[1741397180.338165] [ohm:1378514:0]        ib_iface.c:1059 UCX  ERROR ibv_create_cq(cqe=256) failed: Connection timed out
[1741397180.338937] [ohm:1378512:0]        ib_iface.c:1059 UCX  ERROR ibv_create_cq(cqe=256) failed: Connection timed out
[1741397180.355199] [ohm:1378520:0]        ib_iface.c:1059 UCX  ERROR ibv_create_cq(cqe=256) failed: Connection timed out
[1741397180.375064] [ohm:1378519:0]        ib_iface.c:1059 UCX  ERROR ibv_create_cq(cqe=256) failed: Connection timed out
[1741397180.378332] [ohm:1378528:0]        ib_iface.c:1059 UCX  ERROR ibv_create_cq(cqe=256) failed: Connection timed out
[1741397180.382408] [ohm:1378513:0]        ib_iface.c:1059 UCX  ERROR ibv_create_cq(cqe=256) failed: Connection timed out
[1741397180.384477] [ohm:1378535:0]        ib_iface.c:1059 UCX  ERROR ibv_create_cq(cqe=256) failed: Connection timed out
[1741397180.391050] [ohm:1378521:0]        ib_iface.c:1059 UCX  ERROR ibv_create_cq(cqe=256) failed: Connection timed out
[1741397180.407729] [ohm:1378538:0]        ib_iface.c:1059 UCX  ERROR ibv_create_cq(cqe=256) failed: Connection timed out
[1741397180.408138] [ohm:1378532:0]        ib_iface.c:1059 UCX  ERROR ibv_create_cq(cqe=256) failed: Connection timed out
[1741397180.424076] [ohm:1378516:0]        ib_iface.c:1059 UCX  ERROR ibv_create_cq(cqe=256) failed: Connection timed out
[1741397180.435744] [ohm:1378536:0]        ib_iface.c:1059 UCX  ERROR ibv_create_cq(cqe=256) failed: Connection timed out
[1741397180.438887] [ohm:1378518:0]        ib_iface.c:1059 UCX  ERROR ibv_create_cq(cqe=256) failed: Connection timed out
[1741397180.455576] [ohm:1378530:0]        ib_iface.c:1059 UCX  ERROR ibv_create_cq(cqe=256) failed: Connection timed out
[1741397180.490712] [ohm:1378539:0]        ib_iface.c:1059 UCX  ERROR ibv_create_cq(cqe=256) failed: Connection timed out
[1741397180.495498] [ohm:1378617:0]        ib_iface.c:1059 UCX  ERROR ibv_create_cq(cqe=256) failed: Connection timed out
[1741397180.495929] [ohm:1378604:0]        ib_iface.c:1059 UCX  ERROR ibv_create_cq(cqe=256) failed: Connection timed out
[1741397180.496400] [ohm:1378524:0]        ib_iface.c:1059 UCX  ERROR ibv_create_cq(cqe=256) failed: Connection timed out
[1741397180.497131] [ohm:1378527:0]        ib_iface.c:1059 UCX  ERROR ibv_create_cq(cqe=256) failed: Connection timed out
[1741397180.497288] [ohm:1378599:0]        ib_iface.c:1059 UCX  ERROR ibv_create_cq(cqe=256) failed: Connection timed out
[1741397180.501560] [ohm:1378548:0]        ib_iface.c:1059 UCX  ERROR ibv_create_cq(cqe=256) failed: Connection timed out
[1741397180.528228] [ohm:1378529:0]        ib_iface.c:1059 UCX  ERROR ibv_create_cq(cqe=256) failed: Connection timed out
[1741397180.530488] [ohm:1378665:0]        ib_iface.c:1059 UCX  ERROR ibv_create_cq(cqe=256) failed: Connection timed out
[1741397180.534098] [ohm:1378542:0]        ib_iface.c:1059 UCX  ERROR ibv_create_cq(cqe=256) failed: Connection timed out
[1741397180.536407] [ohm:1378537:0]        ib_iface.c:1059 UCX  ERROR ibv_create_cq(cqe=256) failed: Connection timed out
[1741397180.539253] [ohm:1378578:0]        ib_iface.c:1059 UCX  ERROR ibv_create_cq(cqe=256) failed: Connection timed out
[1741397180.549361] [ohm:1378626:0]        ib_iface.c:1059 UCX  ERROR ibv_create_cq(cqe=256) failed: Connection timed out
[1741397180.553344] [ohm:1378588:0]        ib_iface.c:1059 UCX  ERROR ibv_create_cq(cqe=256) failed: Connection timed out
[1741397180.553355] [ohm:1378525:0]        ib_iface.c:1059 UCX  ERROR ibv_create_cq(cqe=256) failed: Connection timed out
[1741397180.559200] [ohm:1378646:0]        ib_iface.c:1059 UCX  ERROR ibv_create_cq(cqe=256) failed: Connection timed out
[1741397180.565770] [ohm:1378589:0]        ib_iface.c:1059 UCX  ERROR ibv_create_cq(cqe=256) failed: Connection timed out
[1741397180.579451] [ohm:1378623:0]        ib_iface.c:1059 UCX  ERROR ibv_create_cq(cqe=256) failed: Connection timed out
[1741397180.590573] [ohm:1378613:0]        ib_iface.c:1059 UCX  ERROR ibv_create_cq(cqe=256) failed: Connection timed out
[1741397180.595870] [ohm:1378559:0]        ib_iface.c:1059 UCX  ERROR ibv_create_cq(cqe=256) failed: Connection timed out
[1741397180.605059] [ohm:1378511:0]        ib_iface.c:1059 UCX  ERROR ibv_create_cq(cqe=256) failed: Connection timed out
[1741397180.605583] [ohm:1378608:0]        ib_iface.c:1059 UCX  ERROR ibv_create_cq(cqe=256) failed: Connection timed out
[1741397180.605792] [ohm:1378653:0]        ib_iface.c:1059 UCX  ERROR ibv_create_cq(cqe=256) failed: Connection timed out
[1741397180.607825] [ohm:1378517:0]        ib_iface.c:1059 UCX  ERROR ibv_create_cq(cqe=256) failed: Connection timed out
[1741397180.608940] [ohm:1378554:0]        ib_iface.c:1059 UCX  ERROR ibv_create_cq(cqe=256) failed: Connection timed out
[1741397180.612910] [ohm:1378544:0]        ib_iface.c:1059 UCX  ERROR ibv_create_cq(cqe=256) failed: Connection timed out
[1741397180.614123] [ohm:1378526:0]        ib_iface.c:1059 UCX  ERROR ibv_create_cq(cqe=256) failed: Connection timed out
[1741397180.628642] [ohm:1378569:0]        ib_iface.c:1059 UCX  ERROR ibv_create_cq(cqe=256) failed: Connection timed out
[1741397180.633445] [ohm:1378522:0]        ib_iface.c:1059 UCX  ERROR ibv_create_cq(cqe=256) failed: Connection timed out
[1741397180.636607] [ohm:1378628:0]        ib_iface.c:1059 UCX  ERROR ibv_create_cq(cqe=256) failed: Connection timed out
[1741397180.647257] [ohm:1378523:0]        ib_iface.c:1059 UCX  ERROR ibv_create_cq(cqe=256) failed: Connection timed out
[1741397180.648808] [ohm:1378562:0]        ib_iface.c:1059 UCX  ERROR ibv_create_cq(cqe=256) failed: Connection timed out
[1741397180.654047] [ohm:1378632:0]        ib_iface.c:1059 UCX  ERROR ibv_create_cq(cqe=256) failed: Connection timed out
[1741397180.655125] [ohm:1378597:0]        ib_iface.c:1059 UCX  ERROR ibv_create_cq(cqe=256) failed: Connection timed out
[1741397180.662135] [ohm:1378637:0]        ib_iface.c:1059 UCX  ERROR ibv_create_cq(cqe=256) failed: Connection timed out
[1741397180.667900] [ohm:1378564:0]        ib_iface.c:1059 UCX  ERROR ibv_create_cq(cqe=256) failed: Connection timed out
[1741397180.670247] [ohm:1378580:0]        ib_iface.c:1059 UCX  ERROR ibv_create_cq(cqe=256) failed: Connection timed out
[1741397180.672915] [ohm:1378592:0]        ib_iface.c:1059 UCX  ERROR ibv_create_cq(cqe=256) failed: Connection timed out
[1741397180.674222] [ohm:1378622:0]        ib_iface.c:1059 UCX  ERROR ibv_create_cq(cqe=256) failed: Connection timed out
[1741397180.674360] [ohm:1378533:0]        ib_iface.c:1059 UCX  ERROR ibv_create_cq(cqe=256) failed: Connection timed out
[1741397180.674432] [ohm:1378515:0]        ib_iface.c:1059 UCX  ERROR ibv_create_cq(cqe=256) failed: Connection timed out
[1741397180.674712] [ohm:1378659:0]        ib_iface.c:1059 UCX  ERROR ibv_create_cq(cqe=256) failed: Connection timed out
[1741397180.677128] [ohm:1378639:0]        ib_iface.c:1059 UCX  ERROR ibv_create_cq(cqe=256) failed: Connection timed out
[1741397180.677540] [ohm:1378574:0]        ib_iface.c:1059 UCX  ERROR ibv_create_cq(cqe=256) failed: Connection timed out
[1741397180.677719] [ohm:1378630:0]        ib_iface.c:1059 UCX  ERROR ibv_create_cq(cqe=256) failed: Connection timed out
[1741397180.678977] [ohm:1378531:0]        ib_iface.c:1059 UCX  ERROR ibv_create_cq(cqe=256) failed: Connection timed out
[1741397180.679313] [ohm:1378570:0]        ib_iface.c:1059 UCX  ERROR ibv_create_cq(cqe=256) failed: Connection timed out
[1741397180.681171] [ohm:1378534:0]        ib_iface.c:1059 UCX  ERROR ibv_create_cq(cqe=256) failed: Connection timed out
[1741397180.681168] [ohm:1378567:0]        ib_iface.c:1059 UCX  ERROR ibv_create_cq(cqe=256) failed: Connection timed out
[1741397180.681878] [ohm:1378595:0]        ib_iface.c:1059 UCX  ERROR ibv_create_cq(cqe=256) failed: Connection timed out


           ************************************************************
           *        Program running with 64 parallel MPI-processes    *
           *              working on a common directory               *
           ************************************************************

-------------------------------------------------------------------------------------------
                                      ORCA LEAN-SCF
                              memory conserving SCF solver
-------------------------------------------------------------------------------------------

----------------------------------------D-I-I-S--------------------------------------------
Iteration    Energy (Eh)           Delta-E    RMSDP     MaxDP     DIISErr   Damp  Time(sec)
-------------------------------------------------------------------------------------------
               ***  Starting incremental Fock matrix formation  ***
    1    -908.1349795862827250     0.00e+00  1.56e-03  2.43e-01  1.46e-01  0.700   7.9
    2    -908.3996719892709280    -2.65e-01  1.25e-03  1.88e-01  6.95e-02  0.700   6.6
                               ***Turning on AO-DIIS***
    3    -908.5149464323174016    -1.15e-01  8.88e-04  1.36e-01  2.54e-02  0.700   5.8
    4    -908.5862230545560578    -7.13e-02  2.08e-03  3.07e-01  1.79e-02  0.000   5.7
    5    -908.7467503102491264    -1.61e-01  2.42e-04  6.32e-02  4.39e-03  0.000   5.8
                              *** Initializing SOSCF ***
---------------------------------------S-O-S-C-F--------------------------------------
Iteration    Energy (Eh)           Delta-E    RMSDP     MaxDP     MaxGrad    Time(sec)
--------------------------------------------------------------------------------------
    6    -908.7481178763166554    -1.37e-03  1.15e-04  2.73e-02  2.05e-03     6.5
               *** Restarting incremental Fock matrix formation ***
    7    -908.7487437549741571    -6.26e-04  1.80e-04  1.72e-02  3.76e-03     7.5
    8    -908.7491574473617675    -4.14e-04  1.91e-04  4.15e-02  2.03e-03     6.7
    9    -908.7493059483533671    -1.49e-04  9.53e-05  1.02e-02  1.20e-03     6.8
   10    -908.7493800678078060    -7.41e-05  2.71e-05  7.64e-03  4.28e-04     6.6
   11    -908.7493913723371861    -1.13e-05  8.42e-06  1.32e-03  1.31e-04     6.5
   12    -908.7493936835164732    -2.31e-06  5.51e-06  1.04e-03  1.72e-04     6.3
   13    -908.7493949205165791    -1.24e-06  4.23e-06  4.63e-04  5.31e-05     6.1
   14    -908.7493951253761679    -2.05e-07  1.68e-06  3.57e-04  2.56e-05     6.2
   15    -908.7493951792587268    -5.39e-08  1.02e-06  2.21e-04  1.56e-05     5.9
   16    -908.7493952089791946    -2.97e-08  8.99e-07  1.55e-04  5.22e-06     5.6
   17    -908.7493952521519986    -4.32e-08  1.43e-06  3.86e-04  3.52e-06     5.5
   18    -908.7493952031038589     4.90e-08  1.44e-06  3.58e-04  1.09e-06     5.4
                  *** Gradient check signals convergence ***

               *****************************************************
               *                     SUCCESS                       *
               *           SCF CONVERGED AFTER  18 CYCLES          *
               *****************************************************

Recomputing exchange energy using gridx3       ... done (    8.333 sec)
Old exchange energy                            :    -35.017149783 Eh
New exchange energy                            :    -35.017163075 Eh
Exchange energy change after final integration :     -0.000013293 Eh
Total energy after final integration           :   -908.749408496 Eh
             **** ENERGY FILE WAS UPDATED (orca.en.tmp) ****

----------------
TOTAL SCF ENERGY
----------------

Total Energy       :       -908.74940849595305 Eh          -24728.32857 eV

Components:
Nuclear Repulsion  :       1456.47640055125498 Eh           39632.73775 eV
Electronic Energy  :      -2365.22579575435884 Eh          -64361.06596 eV
One Electron Energy:      -4130.35473215173533 Eh         -112392.66619 eV
Two Electron Energy:       1765.12893639737626 Eh           48031.60024 eV

Virial components:
Potential Energy   :      -1814.03381800081820 Eh          -49362.36972 eV
Kinetic Energy     :        905.28440950486515 Eh           24634.04115 eV
Virial Ratio       :          2.00382752531106

DFT components:
N(Alpha)           :       67.000161414443 electrons
N(Beta)            :       65.000124592051 electrons
N(Total)           :      132.000286006494 electrons
E(XC)              :      -86.175363809651 Eh       

---------------
SCF CONVERGENCE
---------------

  Last Energy change         ...   -4.9048e-08  Tolerance :   1.0000e-08
  Last MAX-Density change    ...    3.5811e-04  Tolerance :   1.0000e-07
  Last RMS-Density change    ...    1.4424e-06  Tolerance :   5.0000e-09
  Last DIIS Error            ...    2.0480e-03  Tolerance :   5.0000e-07
  Last Orbital Gradient      ...    1.0942e-06  Tolerance :   1.0000e-05
  Last Orbital Rotation      ...    5.8608e-06  Tolerance :   1.0000e-05


----------------------
UHF SPIN CONTAMINATION
----------------------

Warning: in a DFT calculation there is little theoretical justification to 
         calculate <S**2> as in Hartree-Fock theory. We will do it anyways
         but you should keep in mind that the values have only limited relevance

Expectation value of <S**2>     :     2.014960
Ideal value S*(S+1) for S=1.0   :     2.000000
Deviation                       :     0.014960

----------------
ORBITAL ENERGIES
----------------
                 SPIN UP ORBITALS
  NO   OCC          E(Eh)            E(eV) 
   0   1.0000     -19.337846      -526.2095 
   1   1.0000     -19.336432      -526.1711 
   2   1.0000     -19.324901      -525.8573 
   3   1.0000     -19.319952      -525.7226 
   4   1.0000     -14.566312      -396.3695 
   5   1.0000     -14.562420      -396.2636 
   6   1.0000     -14.559300      -396.1787 
   7   1.0000     -14.558795      -396.1649 
   8   1.0000     -10.511616      -286.0356 
   9   1.0000     -10.505645      -285.8731 
  10   1.0000     -10.488345      -285.4024 
  11   1.0000     -10.480970      -285.2017 
  12   1.0000     -10.448636      -284.3218 
  13   1.0000     -10.445170      -284.2275 
  14   1.0000     -10.424736      -283.6715 
  15   1.0000     -10.420418      -283.5540 
  16   1.0000     -10.377966      -282.3988 
  17   1.0000     -10.369529      -282.1692 
  18   1.0000      -1.224299       -33.3149 
  19   1.0000      -1.207978       -32.8707 
  20   1.0000      -1.203847       -32.7584 
  21   1.0000      -1.181077       -32.1387 
  22   1.0000      -1.112067       -30.2609 
  23   1.0000      -1.087629       -29.5959 
  24   1.0000      -1.065359       -28.9899 
  25   1.0000      -1.047910       -28.5151 
  26   1.0000      -0.975349       -26.5406 
  27   1.0000      -0.947265       -25.7764 
  28   1.0000      -0.884510       -24.0687 
  29   1.0000      -0.838942       -22.8288 
  30   1.0000      -0.825479       -22.4624 
  31   1.0000      -0.800881       -21.7931 
  32   1.0000      -0.777309       -21.1516 
  33   1.0000      -0.772803       -21.0291 
  34   1.0000      -0.695261       -18.9190 
  35   1.0000      -0.690562       -18.7911 
  36   1.0000      -0.686487       -18.6803 
  37   1.0000      -0.671245       -18.2655 
  38   1.0000      -0.651459       -17.7271 
  39   1.0000      -0.633997       -17.2519 
  40   1.0000      -0.616984       -16.7890 
  41   1.0000      -0.603789       -16.4299 
  42   1.0000      -0.591727       -16.1017 
  43   1.0000      -0.586721       -15.9655 
  44   1.0000      -0.579430       -15.7671 
  45   1.0000      -0.573123       -15.5955 
  46   1.0000      -0.566366       -15.4116 
  47   1.0000      -0.562348       -15.3023 
  48   1.0000      -0.554563       -15.0904 
  49   1.0000      -0.549415       -14.9503 
  50   1.0000      -0.545102       -14.8330 
  51   1.0000      -0.539027       -14.6677 
  52   1.0000      -0.529583       -14.4107 
  53   1.0000      -0.525216       -14.2918 
  54   1.0000      -0.508069       -13.8253 
  55   1.0000      -0.504284       -13.7223 
  56   1.0000      -0.479290       -13.0421 
  57   1.0000      -0.424507       -11.5514 
  58   1.0000      -0.418576       -11.3900 
  59   1.0000      -0.411528       -11.1983 
  60   1.0000      -0.402927       -10.9642 
  61   1.0000      -0.398480       -10.8432 
  62   1.0000      -0.396044       -10.7769 
  63   1.0000      -0.390411       -10.6236 
  64   1.0000      -0.383493       -10.4354 
  65   1.0000      -0.344265        -9.3679 
  66   1.0000      -0.335734        -9.1358 
  67   0.0000       0.009076         0.2470 
  68   0.0000       0.028855         0.7852 
  69   0.0000       0.033939         0.9235 
  70   0.0000       0.038290         1.0419 
  71   0.0000       0.052272         1.4224 
  72   0.0000       0.057895         1.5754 
  73   0.0000       0.058584         1.5942 
  74   0.0000       0.065172         1.7734 
  75   0.0000       0.066285         1.8037 
  76   0.0000       0.067899         1.8476 
  77   0.0000       0.075266         2.0481 

                 SPIN DOWN ORBITALS
  NO   OCC          E(Eh)            E(eV) 
   0   1.0000     -19.333449      -526.0899 
   1   1.0000     -19.331717      -526.0428 
   2   1.0000     -19.324856      -525.8561 
   3   1.0000     -19.319774      -525.7178 
   4   1.0000     -14.565791      -396.3553 
   5   1.0000     -14.561657      -396.2428 
   6   1.0000     -14.558774      -396.1644 
   7   1.0000     -14.558741      -396.1635 
   8   1.0000     -10.511669      -286.0371 
   9   1.0000     -10.505684      -285.8742 
  10   1.0000     -10.489439      -285.4322 
  11   1.0000     -10.482052      -285.2311 
  12   1.0000     -10.448393      -284.3152 
  13   1.0000     -10.444743      -284.2159 
  14   1.0000     -10.413220      -283.3581 
  15   1.0000     -10.408877      -283.2399 
  16   1.0000     -10.378529      -282.4141 
  17   1.0000     -10.370035      -282.1830 
  18   1.0000      -1.222744       -33.2726 
  19   1.0000      -1.202720       -32.7277 
  20   1.0000      -1.201165       -32.6854 
  21   1.0000      -1.176353       -32.0102 
  22   1.0000      -1.109468       -30.1902 
  23   1.0000      -1.085099       -29.5270 
  24   1.0000      -1.063339       -28.9349 
  25   1.0000      -1.046455       -28.4755 
  26   1.0000      -0.961776       -26.1713 
  27   1.0000      -0.929713       -25.2988 
  28   1.0000      -0.879484       -23.9320 
  29   1.0000      -0.832699       -22.6589 
  30   1.0000      -0.817707       -22.2510 
  31   1.0000      -0.796085       -21.6626 
  32   1.0000      -0.775825       -21.1113 
  33   1.0000      -0.771033       -20.9809 
  34   1.0000      -0.689410       -18.7598 
  35   1.0000      -0.685257       -18.6468 
  36   1.0000      -0.680979       -18.5304 
  37   1.0000      -0.664487       -18.0816 
  38   1.0000      -0.638749       -17.3813 
  39   1.0000      -0.629565       -17.1313 
  40   1.0000      -0.614361       -16.7176 
  41   1.0000      -0.598165       -16.2769 
  42   1.0000      -0.585611       -15.9353 
  43   1.0000      -0.577207       -15.7066 
  44   1.0000      -0.571348       -15.5472 
  45   1.0000      -0.566983       -15.4284 
  46   1.0000      -0.562533       -15.3073 
  47   1.0000      -0.555253       -15.1092 
  48   1.0000      -0.547270       -14.8920 
  49   1.0000      -0.544726       -14.8228 
  50   1.0000      -0.540395       -14.7049 
  51   1.0000      -0.526312       -14.3217 
  52   1.0000      -0.521221       -14.1832 
  53   1.0000      -0.519248       -14.1295 
  54   1.0000      -0.499953       -13.6044 
  55   1.0000      -0.496232       -13.5032 
  56   1.0000      -0.475092       -12.9279 
  57   1.0000      -0.420604       -11.4452 
  58   1.0000      -0.412988       -11.2380 
  59   1.0000      -0.399987       -10.8842 
  60   1.0000      -0.395916       -10.7734 
  61   1.0000      -0.391599       -10.6560 
  62   1.0000      -0.385811       -10.4985 
  63   1.0000      -0.384795       -10.4708 
  64   1.0000      -0.374455       -10.1894 
  65   0.0000      -0.060031        -1.6335 
  66   0.0000      -0.056100        -1.5266 
  67   0.0000       0.008662         0.2357 
  68   0.0000       0.028933         0.7873 
  69   0.0000       0.033624         0.9150 
  70   0.0000       0.038178         1.0389 
  71   0.0000       0.055891         1.5209 
  72   0.0000       0.058643         1.5958 
  73   0.0000       0.059782         1.6267 
  74   0.0000       0.065342         1.7780 
  75   0.0000       0.066329         1.8049 
*Only the first 10 virtual orbitals were printed.

                    ********************************
                    * MULLIKEN POPULATION ANALYSIS *
                    ********************************

--------------------------------------------
MULLIKEN ATOMIC CHARGES AND SPIN POPULATIONS
--------------------------------------------
   0 O :   -0.641457    0.170011
   1 O :   -0.667003    0.162162
   2 O :   -0.639441    0.001739
   3 O :   -0.664443    0.006565
   4 N :   -0.238603    0.018456
   5 N :   -0.361422    0.039355
   6 N :    0.052850    0.040151
   7 N :    0.051245    0.023274
   8 C :   -0.251150    0.520495
   9 C :   -0.118698    0.418876
  10 C :    0.303251    0.071775
  11 C :    0.676713    0.180334
  12 C :   -1.297192    0.003740
  13 C :   -1.513659   -0.034949
  14 C :    0.691396    0.128552
  15 C :    0.617990    0.168228
  16 C :    0.311766   -0.010240
  17 C :    0.343831   -0.010024
  18 H :    0.573037    0.008665
  19 H :    0.454429    0.018041
  20 H :    0.305291    0.001263
  21 H :    0.357603    0.011950
  22 H :    0.362327    0.012490
  23 H :    0.267557    0.016688
  24 H :    0.330209    0.009391
  25 H :    0.353871    0.023792
  26 H :    0.086382    0.002144
  27 H :    0.140174   -0.001247
  28 H :    0.096118   -0.000507
  29 H :    0.017028   -0.001170
Sum of atomic charges         :   -0.0000000
Sum of atomic spin populations:    2.0000000

-----------------------------------------------------
MULLIKEN REDUCED ORBITAL CHARGES AND SPIN POPULATIONS
-----------------------------------------------------
CHARGE
  0 O s       :     4.081908  s :     4.081908
      pz      :     1.670011  p :     4.527498
      px      :     1.296630
      py      :     1.560857
      dz2     :     0.002655  d :     0.030098
      dxz     :     0.006898
      dyz     :     0.001821
      dx2y2   :     0.008521
      dxy     :     0.010204
[...]
[1741397462.899529] [ohm:1381349:0]        ib_iface.c:1059 UCX  ERROR ibv_create_cq(cqe=256) failed: Connection timed out
[1741397462.900887] [ohm:1381439:0]        ib_iface.c:1059 UCX  ERROR ibv_create_cq(cqe=256) failed: Connection timed out
[1741397462.901215] [ohm:1381341:0]        ib_iface.c:1059 UCX  ERROR ibv_create_cq(cqe=256) failed: Connection timed out
[1741397462.903072] [ohm:1381417:0]        ib_iface.c:1059 UCX  ERROR ibv_create_cq(cqe=256) failed: Connection timed out
[1741397462.903134] [ohm:1381324:0]        ib_iface.c:1059 UCX  ERROR ibv_create_cq(cqe=256) failed: Connection timed out
[1741397462.903739] [ohm:1381325:0]        ib_iface.c:1059 UCX  ERROR ibv_create_cq(cqe=256) failed: Connection timed out
[1741397462.907648] [ohm:1381353:0]        ib_iface.c:1059 UCX  ERROR ibv_create_cq(cqe=256) failed: Connection timed out
[1741397462.907974] [ohm:1381448:0]        ib_iface.c:1059 UCX  ERROR ibv_create_cq(cqe=256) failed: Connection timed out
[1741397462.908418] [ohm:1381412:0]        ib_iface.c:1059 UCX  ERROR ibv_create_cq(cqe=256) failed: Connection timed out
[1741397462.909173] [ohm:1381360:0]        ib_iface.c:1059 UCX  ERROR ibv_create_cq(cqe=256) failed: Connection timed out


           ************************************************************
           *        Program running with 64 parallel MPI-processes    *
           *              working on a common directory               *
           ************************************************************

------------------------------------------------------------------------------
                              ORCA PROPERTY CALCULATIONS
------------------------------------------------------------------------------

GBWName                                 ... orca.gbw
Number of atoms                         ...     30
Number of basis functions               ...    882
Max core memory                         ...   1024 MB

Electric properties:
Dipole moment                           ... YES
Quadrupole moment                       ...  NO
Static polarizability (Dipole/Dipole)   ...  NO
Static polarizability (Dipole/Quad.)    ...  NO
Static polarizability (Quad./Quad.)     ...  NO
Static polarizability (Velocity)        ...  NO

Atomic electric properties:
Dipole moment                           ...  NO
Quadrupole moment                       ...  NO
Static polarizability                   ...  NO

Choice of electric origin               ... Center of mass
Position of electric origin             ...    -0.014898    -0.082940    -0.044241

General magnetic properties:
Magnetizability                         ...  NO

EPR properties:
g-Tensor (aka g-matrix)                 ...  NO
Zero-Field splitting spin-orbit         ...  NO
Zero-field splitting spin-spin          ...  NO
Hyperfine couplings                     ...  NO (   0 nuclei)
Quadrupole couplings                    ...  NO (   0 nuclei)
Contact density                         ...  NO (   0 nuclei)

NMR properties:
Chemical shifts                         ...  NO (   0 nuclei)
Spin-rotation constants                 ...  NO (   0 nuclei)
Spin-spin couplings                     ...  NO (   0 nuclei,    0 pairs)

Choice of magnetic origin               ... GIAO
Position of magnetic origin             ...     0.000000     0.000000     0.000000

Properties with geometric perturbations:
SCF Hessian                             ...  NO
IR spectrum                             ...  NO
VCD spectrum                            ...  NO
X-ray spectroscopy properties:
SCF XES/XAS/RIXS spectra                ...  NO


-------------
DIPOLE MOMENT
-------------

Method             : SCF
Type of density    : Electron Density
Multiplicity       :   3
Irrep              :   0
Energy             :  -908.7494084959530483 Eh
Relativity type    : 
Basis              : AO
                                X                 Y                 Z
Electronic contribution:     -5.608573215      -8.912620343      -6.071535212
Nuclear contribution   :      6.036653884      10.180319369       8.518823796
                        -----------------------------------------
Total Dipole Moment    :      0.428080668       1.267699026       2.447288585
                        -----------------------------------------
Magnitude (a.u.)       :      2.789181833
Magnitude (Debye)      :      7.089536804



--------------------
Rotational spectrum 
--------------------
 
Rotational constants in cm-1:             0.021421             0.013557             0.012903 
Rotational constants in MHz :           642.174196           406.413828           386.833345 

Dipole components along the rotational axes: 
x,y,z [a.u.] :     1.108005    -1.361047     2.167813 
x,y,z [Debye]:     2.816324    -3.459506     5.510143 

 

-------------
DIPOLE MOMENT
-------------

Method             : TDA/CIS
Type of density    : Electron Density
Level              : Relaxed density
State              :   2
Multiplicity       :   3
Irrep              :   0
Energy             :     0.0000000000000000 Eh
Relativity type    : 
Basis              : AO
                                X                 Y                 Z
Electronic contribution:     -5.626378701      -8.840273098      -5.982301198
Nuclear contribution   :      6.036653884      10.180319369       8.518823796
                        -----------------------------------------
Total Dipole Moment    :      0.410275183       1.340046271       2.536522598
                        -----------------------------------------
Magnitude (a.u.)       :      2.897929714
Magnitude (Debye)      :      7.365951950



--------------------
Rotational spectrum 
--------------------
 
Rotational constants in cm-1:             0.021421             0.013557             0.012903 
Rotational constants in MHz :           642.174196           406.413828           386.833345 

Dipole components along the rotational axes: 
x,y,z [a.u.] :     1.118033    -1.439666     2.252856 
x,y,z [Debye]:     2.841815    -3.659340     5.726305 

 

Dipole moment calculation done in   0.2 sec 

Maximum memory used throughout the entire PROP-calculation: 82.0 MB
[1741397465.272186] [ohm:1381677:0]        ib_iface.c:1059 UCX  ERROR ibv_create_cq(cqe=256) failed: Connection timed out
[1741397465.303770] [ohm:1381669:0]        ib_iface.c:1059 UCX  ERROR ibv_create_cq(cqe=256) failed: Connection timed out
[1741397465.307905] [ohm:1381674:0]        ib_iface.c:1059 UCX  ERROR ibv_create_cq(cqe=256) failed: Connection timed out
[1741397465.308001] [ohm:1381679:0]        ib_iface.c:1059 UCX  ERROR ibv_create_cq(cqe=256) failed: Connection timed out
[1741397465.318380] [ohm:1381666:0]        ib_iface.c:1059 UCX  ERROR ibv_create_cq(cqe=256) failed: Connection timed out
[1741397465.319724] [ohm:1381675:0]        ib_iface.c:1059 UCX  ERROR ibv_create_cq(cqe=256) failed: Connection timed out
[1741397465.319764] [ohm:1381676:0]        ib_iface.c:1059 UCX  ERROR ibv_create_cq(cqe=256) failed: Connection timed out
[1741397465.321114] [ohm:1381681:0]        ib_iface.c:1059 UCX  ERROR ibv_create_cq(cqe=256) failed: Connection timed out
[1741397465.324778] [ohm:1381672:0]        ib_iface.c:1059 UCX  ERROR ibv_create_cq(cqe=256) failed: Connection timed out
[1741397465.405604] [ohm:1381746:0]        ib_iface.c:1059 UCX  ERROR ibv_create_cq(cqe=256) failed: Connection timed out
[1741397465.416655] [ohm:1381670:0]        ib_iface.c:1059 UCX  ERROR ibv_create_cq(cqe=256) failed: Connection timed out
[1741397465.420830] [ohm:1381717:0]        ib_iface.c:1059 UCX  ERROR ibv_create_cq(cqe=256) failed: Connection timed out
[1741397465.421989] [ohm:1381778:0]        ib_iface.c:1059 UCX  ERROR ibv_create_cq(cqe=256) failed: Connection timed out
[1741397465.430855] [ohm:1381756:0]        ib_iface.c:1059 UCX  ERROR ibv_create_cq(cqe=256) failed: Connection timed out
[1741397465.449853] [ohm:1381762:0]        ib_iface.c:1059 UCX  ERROR ibv_create_cq(cqe=256) failed: Connection timed out
[1741397465.465107] [ohm:1381750:0]        ib_iface.c:1059 UCX  ERROR ibv_create_cq(cqe=256) failed: Connection timed out
[1741397465.468645] [ohm:1381688:0]        ib_iface.c:1059 UCX  ERROR ibv_create_cq(cqe=256) failed: Connection timed out
[1741397465.475619] [ohm:1381690:0]        ib_iface.c:1059 UCX  ERROR ibv_create_cq(cqe=256) failed: Connection timed out
[1741397465.491751] [ohm:1381696:0]        ib_iface.c:1059 UCX  ERROR ibv_create_cq(cqe=256) failed: Connection timed out
[1741397465.501274] [ohm:1381796:0]        ib_iface.c:1059 UCX  ERROR ibv_create_cq(cqe=256) failed: Connection timed out
[1741397465.502048] [ohm:1381689:0]        ib_iface.c:1059 UCX  ERROR ibv_create_cq(cqe=256) failed: Connection timed out
[1741397465.507176] [ohm:1381702:0]        ib_iface.c:1059 UCX  ERROR ibv_create_cq(cqe=256) failed: Connection timed out
[1741397465.508248] [ohm:1381782:0]        ib_iface.c:1059 UCX  ERROR ibv_create_cq(cqe=256) failed: Connection timed out
[1741397465.518167] [ohm:1381683:0]        ib_iface.c:1059 UCX  ERROR ibv_create_cq(cqe=256) failed: Connection timed out
[1741397465.518997] [ohm:1381792:0]        ib_iface.c:1059 UCX  ERROR ibv_create_cq(cqe=256) failed: Connection timed out
[1741397465.522262] [ohm:1381789:0]        ib_iface.c:1059 UCX  ERROR ibv_create_cq(cqe=256) failed: Connection timed out
[1741397465.527196] [ohm:1381719:0]        ib_iface.c:1059 UCX  ERROR ibv_create_cq(cqe=256) failed: Connection timed out
[1741397465.527275] [ohm:1381802:0]        ib_iface.c:1059 UCX  ERROR ibv_create_cq(cqe=256) failed: Connection timed out
[1741397465.531293] [ohm:1381771:0]        ib_iface.c:1059 UCX  ERROR ibv_create_cq(cqe=256) failed: Connection timed out
[1741397465.531733] [ohm:1381745:0]        ib_iface.c:1059 UCX  ERROR ibv_create_cq(cqe=256) failed: Connection timed out
[1741397465.540273] [ohm:1381806:0]        ib_iface.c:1059 UCX  ERROR ibv_create_cq(cqe=256) failed: Connection timed out
[1741397465.547314] [ohm:1381784:0]        ib_iface.c:1059 UCX  ERROR ibv_create_cq(cqe=256) failed: Connection timed out
[1741397465.548035] [ohm:1381730:0]        ib_iface.c:1059 UCX  ERROR ibv_create_cq(cqe=256) failed: Connection timed out
[1741397465.554757] [ohm:1381695:0]        ib_iface.c:1059 UCX  ERROR ibv_create_cq(cqe=256) failed: Connection timed out
[1741397465.562261] [ohm:1381715:0]        ib_iface.c:1059 UCX  ERROR ibv_create_cq(cqe=256) failed: Connection timed out
[1741397465.563378] [ohm:1381692:0]        ib_iface.c:1059 UCX  ERROR ibv_create_cq(cqe=256) failed: Connection timed out
[1741397465.564939] [ohm:1381807:0]        ib_iface.c:1059 UCX  ERROR ibv_create_cq(cqe=256) failed: Connection timed out
[1741397465.568708] [ohm:1381748:0]        ib_iface.c:1059 UCX  ERROR ibv_create_cq(cqe=256) failed: Connection timed out
[1741397465.570735] [ohm:1381712:0]        ib_iface.c:1059 UCX  ERROR ibv_create_cq(cqe=256) failed: Connection timed out
[1741397465.579447] [ohm:1381774:0]        ib_iface.c:1059 UCX  ERROR ibv_create_cq(cqe=256) failed: Connection timed out
[1741397465.579414] [ohm:1381693:0]        ib_iface.c:1059 UCX  ERROR ibv_create_cq(cqe=256) failed: Connection timed out
[1741397465.580220] [ohm:1381754:0]        ib_iface.c:1059 UCX  ERROR ibv_create_cq(cqe=256) failed: Connection timed out
[1741397465.590978] [ohm:1381686:0]        ib_iface.c:1059 UCX  ERROR ibv_create_cq(cqe=256) failed: Connection timed out
[1741397465.593839] [ohm:1381764:0]        ib_iface.c:1059 UCX  ERROR ibv_create_cq(cqe=256) failed: Connection timed out
[1741397465.594372] [ohm:1381739:0]        ib_iface.c:1059 UCX  ERROR ibv_create_cq(cqe=256) failed: Connection timed out
[1741397465.603626] [ohm:1381812:0]        ib_iface.c:1059 UCX  ERROR ibv_create_cq(cqe=256) failed: Connection timed out
[1741397465.605964] [ohm:1381687:0]        ib_iface.c:1059 UCX  ERROR ibv_create_cq(cqe=256) failed: Connection timed out
[1741397465.607850] [ohm:1381678:0]        ib_iface.c:1059 UCX  ERROR ibv_create_cq(cqe=256) failed: Connection timed out
[1741397465.613030] [ohm:1381685:0]        ib_iface.c:1059 UCX  ERROR ibv_create_cq(cqe=256) failed: Connection timed out
[1741397465.613736] [ohm:1381701:0]        ib_iface.c:1059 UCX  ERROR ibv_create_cq(cqe=256) failed: Connection timed out
[1741397465.615213] [ohm:1381673:0]        ib_iface.c:1059 UCX  ERROR ibv_create_cq(cqe=256) failed: Connection timed out
[1741397465.618398] [ohm:1381691:0]        ib_iface.c:1059 UCX  ERROR ibv_create_cq(cqe=256) failed: Connection timed out
[1741397465.619016] [ohm:1381671:0]        ib_iface.c:1059 UCX  ERROR ibv_create_cq(cqe=256) failed: Connection timed out
[1741397465.619053] [ohm:1381734:0]        ib_iface.c:1059 UCX  ERROR ibv_create_cq(cqe=256) failed: Connection timed out
[1741397465.624148] [ohm:1381815:0]        ib_iface.c:1059 UCX  ERROR ibv_create_cq(cqe=256) failed: Connection timed out
[1741397465.624818] [ohm:1381708:0]        ib_iface.c:1059 UCX  ERROR ibv_create_cq(cqe=256) failed: Connection timed out
[1741397465.625405] [ohm:1381668:0]        ib_iface.c:1059 UCX  ERROR ibv_create_cq(cqe=256) failed: Connection timed out
[1741397465.626060] [ohm:1381768:0]        ib_iface.c:1059 UCX  ERROR ibv_create_cq(cqe=256) failed: Connection timed out
[1741397465.626330] [ohm:1381682:0]        ib_iface.c:1059 UCX  ERROR ibv_create_cq(cqe=256) failed: Connection timed out
[1741397465.627211] [ohm:1381799:0]        ib_iface.c:1059 UCX  ERROR ibv_create_cq(cqe=256) failed: Connection timed out
[1741397465.628259] [ohm:1381680:0]        ib_iface.c:1059 UCX  ERROR ibv_create_cq(cqe=256) failed: Connection timed out
[1741397465.629659] [ohm:1381667:0]        ib_iface.c:1059 UCX  ERROR ibv_create_cq(cqe=256) failed: Connection timed out
[1741397465.631348] [ohm:1381684:0]        ib_iface.c:1059 UCX  ERROR ibv_create_cq(cqe=256) failed: Connection timed out
[1741397465.632947] [ohm:1381723:0]        ib_iface.c:1059 UCX  ERROR ibv_create_cq(cqe=256) failed: Connection timed out

--------------------------------
SUGGESTED CITATIONS FOR THIS RUN
--------------------------------

Below you find a list of papers that are relevant to this ORCA run
We neither can nor want to force you to cite these papers, but we appreciate if you do
You receive ORCA, which is the product of decades of hard work by many enthusiastic individuals, for free
The only thing we kindly ask in return is that you cite our papers,
We deeply appreciate it, if you show your appreciation for ORCA by not just citing the generic ORCA reference.

Please note that relegating all ORCA citations to the supporting information does *not* help us.
SI sections are not indexed - citations you put there will not count into any citation statistics
But we need these citations in order to attract the funding resources that allow us to do what we are doing

Therefore, if you are a happy ORCA user, please consider citing a few of the papers listed below in the main body of your paper

In addition to the list printed below, the program has created the file orca.bibtex that contains the list in bibtex format
You can import this file easily into all common literature databanks and citation aid programs


List of essential papers. We consider these as the minimum necessary citations

  1. Neese,F.
     Software update: the ORCA program system, version 5.0
     WIRES Comput. Molec. Sci., 2022 12(1)e1606
     doi.org/10.1002/wcms.1606

List of papers to cite with high priority. The work reported in these papers was absolutely
necessary for this run to complete.
Our perspective: the developers of density functionals and basis sets usually get cited in chemistry papers
Good! But without the algorithms to do something with them, the functionals or basis sets would not do anything.
Hence, in our opinion, the algorithm design and method developments papers are equally worthy of getting cited

  1. Neese,F.; Olbrich,G.
     Efficient use of the resolution of the identity approximation in time-dependent density functional calculations with hybrid density functionals
     Chem. Phys. Lett., 2002 362 170-178
     doi.org/10.1016/s0009-2614(02)01053-9
  2. Neese,F.
     An improvement of the resolution of the identity approximation for the formation of the Coulomb matrix
     J. Comp. Chem., 2003 24(14)1740-1747
     doi.org/10.1002/jcc.10318
  3. Neese,F.; Wennmohs,F.; Hansen,A.; Becker,U.
     Efficient, approximate and parallel Hartree-Fock and hybrid DFT calculations. A 'chain-of-spheres' algorithm for the Hartree-Fock exchange
     Chem. Phys., 2009 356(1-3)98-109
     doi.org/10.1016/j.chemphys.2008.10.036
  4. Petrenko,T.; Kossmann,S.; Neese,F.
     Efficient time-dependent density functional theory approximations for hybrid density functionals: Analytical gradients and parallelization
     J. Chem. Phys., 2011 134 054116
     doi.org/10.1063/1.3533441
  5. Helmich-Paris,B.; de Souza,B.; Neese,F.; Izsák,R.
     An improved chain of spheres for exchange algorithm
     J. Chem. Phys., 2021 155 104109
     doi.org/doi: 10.1063/5.0058766.
  6. Neese,F.
     The SHARK Integral Generation and Digestion System
     J. Comp. Chem., 2022  1-16
     doi.org/10.1002/jcc.26942
  7. Lehtola,S.; Steigemann,C.; Oliveira,M.; Marques,M.
     Recent developments in Libxc - A comprehensive library of functionals for density functional theory
     Software X, 2018 7 
     doi.org/10.1016/j.softx.2017.11.002
  8. Grimme,S.; Antony,J.; Ehrlich,S.; Krieg,H.
     A consistent and accurate ab initio parametrization of density functional dispersion correction (DFT-D) for the 94 elements H-Pu
     J. Chem. Phys., 2010 132 154104-XXXX
     doi.org/10.1063/1.3382344
  9. Grimme,S.; Ehrlich,S.; Goerigk,L.
     Effect of the damping function in dispersion corrected density functional theory
     J. Comput. Chem., 2011 32(7)1456-1465
     doi.org/10.1002/jcc.21759

List of suggested additional citations. These are papers that are important in the 'surrounding' of 
of this run, or papers that preceded the highly important papers. If you like your results we are grateful for a citation.

  1. Izsak,R.; Neese,F.
     An overlap fitted chain of spheres exchange method
     J. Chem. Phys., 2011 135 144105
     doi.org/10.1063/1.3646921
  2. Izsak,R.; Hansen,A.; Neese,F.
     The resolution of identity and chain of spheres approximations for the LPNO-CCSD singles Fock term
     Molec. Phys., 2012 110 2413-2417
     doi.org/10.1080/00268976.2012.687466
  3. Neese,F.
     The ORCA program system
     WIRES Comput. Molec. Sci., 2012 2(1)73-78
     doi.org/10.1002/wcms.81
  4. Izsak,R.; Neese,F.; Klopper,W.
     Robust fitting techniques in the chain of spheres approximation to the Fock exchange: The role of the complementary space
     J. Chem. Phys., 2013 139 
     doi.org/10.1063/1.4819264
  5. Neese,F.
     Software update: the ORCA program system, version 4.0
     WIRES Comput. Molec. Sci., 2018 8(1)1-6
     doi.org/10.1002/wcms.1327
  6. Neese,F.; Wennmohs,F.; Becker,U.; Riplinger,C.
     The ORCA quantum chemistry program package
     J. Chem. Phys., 2020 152 Art. No. L224108
     doi.org/10.1063/5.0004608

List of optional additional citations

  1. Neese,F.
     Approximate second-order SCF convergence for spin unrestricted wavefunctions
     Chem. Phys. Lett., 2000 325(1-3)93-98
     doi.org/10.1016/s0009-2614(00)00662-x

Timings for individual modules:

Sum of individual times          ...      295.614 sec (=   4.927 min)
Startup calculation              ...        6.479 sec (=   0.108 min)   2.2 %
SCF iterations                   ...      131.405 sec (=   2.190 min)  44.5 %
Property integrals               ...        4.111 sec (=   0.069 min)   1.4 %
Property calculations            ...        2.804 sec (=   0.047 min)   0.9 %
CIS module                       ...      150.815 sec (=   2.514 min)  51.0 %
                             ****ORCA TERMINATED NORMALLY****
TOTAL RUN TIME: 0 days 0 hours 4 minutes 57 seconds 614 msec
