
                                 *****************
                                 * O   R   C   A *
                                 *****************

                                            #,                                       
                                            ###                                      
                                            ####                                     
                                            #####                                    
                                            ######                                   
                                           ########,                                 
                                     ,,################,,,,,                         
                               ,,#################################,,                 
                          ,,##########################################,,             
                       ,#########################################, ''#####,          
                    ,#############################################,,   '####,        
                  ,##################################################,,,,####,       
                ,###########''''           ''''###############################       
              ,#####''   ,,,,##########,,,,          '''####'''          '####       
            ,##' ,,,,###########################,,,                        '##       
           ' ,,###''''                  '''############,,,                           
         ,,##''                                '''############,,,,        ,,,,,,###''
      ,#''                                            '''#######################'''  
     '                                                          ''''####''''         
             ,#######,   #######,   ,#######,      ##                                
            ,#'     '#,  ##    ##  ,#'     '#,    #''#        ,####,   ,####,        
            ##       ##  ##   ,#'  ##            #'  '#       #'       #'  '#        
            ##       ##  #######   ##           ,######,      #####,   #    #        
            '#,     ,#'  ##    ##  '#,     ,#' ,#      #,     #,   #   #,  ,#        
             '#######'   ##     ##  '#######'  #'      '#     '####' # '####'        



                #########################################################
                #                        -***-                          #
                #          Department of theory and spectroscopy        #
                #                                                       #
                #                      Frank Neese                      #
                #                                                       #
                #     Directorship, Architecture, Infrastructure        #
                #                    SHARK, DRIVERS                     #
                #        Core code/Algorithms in most modules           #
                #                                                       #
                #        Max Planck Institute fuer Kohlenforschung      #
                #                Kaiser Wilhelm Platz 1                 #
                #                 D-45470 Muelheim/Ruhr                 #
                #                      Germany                          #
                #                                                       #
                #                  All rights reserved                  #
                #                        -***-                          #
                #########################################################


                         Program Version 6.0.0  -   RELEASE  -


 With contributions from (in alphabetic order):
   Daniel Aravena         : Magnetic Suceptibility
   Michael Atanasov       : Ab Initio Ligand Field Theory (pilot matlab implementation)
   Alexander A. Auer      : GIAO ZORA, VPT2 properties, NMR spectrum
   Ute Becker             : All parallelization in ORCA, NUMFREQ, NUMCALC
   Giovanni Bistoni       : ED, misc. LED, open-shell LED, HFLD
   Martin Brehm           : Molecular dynamics
   Dmytro Bykov           : pre 5.0 version of the SCF Hessian
   Marcos Casanova-Páez   : Triplet and SCS-CIS(D). UHF-(DLPNO)-IP/EA/STEOM-CCSD. UHF-CVS-IP/STEOM-CCSD
   Vijay G. Chilkuri      : MRCI spin determinant printing, contributions to CSF-ICE
   Pauline Colinet        : FMM embedding
   Dipayan Datta          : RHF DLPNO-CCSD density
   Achintya Kumar Dutta   : EOM-CC, STEOM-CC
   Nicolas Foglia         : Exact transition moments, OPA infrastructure, MCD improvements
   Dmitry Ganyushin       : Spin-Orbit,Spin-Spin,Magnetic field MRCI
   Miquel Garcia          : C-PCM and meta-GGA Hessian, CCSD/C-PCM, Gaussian charge scheme
   Tiago L. C. Gouveia    : GS-ROHF, GS-ROCIS
   Yang Guo               : DLPNO-NEVPT2, F12-NEVPT2, CIM, IAO-localization
   Andreas Hansen         : Spin unrestricted coupled pair/coupled cluster methods
   Ingolf Harden          : AUTO-CI MPn and infrastructure 
   Benjamin Helmich-Paris : MC-RPA, TRAH-(SCF,CASSCF), AVAS, COSX integrals, SCF dyn. polar.
   Lee Huntington         : MR-EOM, pCC
   Robert Izsak           : Overlap fitted RIJCOSX, COSX-SCS-MP3, EOM
   Riya Kayal             : Wick's Theorem for AUTO-CI, AUTO-CI UHF-CCSDT
   Emily Kempfer          : AUTO-CI, RHF CISDT and CCSDT
   Christian Kollmar      : KDIIS, OOCD, Brueckner-CCSD(T), CCSD density, CASPT2, CASPT2-K, improved NEVPT2
   Axel Koslowski         : Symmetry handling
   Simone Kossmann        : Meta GGA functionals, TD-DFT gradient, OOMP2, (MP2 Hessian; deprecated post 5.0)
   Lucas Lang             : DCDCAS
   Marvin Lechner         : AUTO-CI (C++ implementation), FIC-MRCC
   Spencer Leger          : CASSCF response
   Dagmar Lenk            : GEPOL surface, SMD, ORCA-2-JSON
   Dimitrios Liakos       : Extrapolation schemes; Compound Job, initial MDCI parallelization
   Dimitrios Manganas     : Further ROCIS development; embedding schemes. LFT, Crystal Embedding
   Dimitrios Pantazis     : SARC Basis sets
   Anastasios Papadopoulos: AUTO-CI, single reference methods and gradients
   Taras Petrenko         : pre 6.0 DFT Hessian and TD-DFT gradient, (ASA, deprecated), ECA, 1-Electron XAS/XES, NRVS
   Peter Pinski           : DLPNO-MP2, DLPNO-MP2 Gradient
   Christoph Reimann      : Effective Core Potentials
   Marius Retegan         : Local ZFS, SOC
   Christoph Riplinger    : Optimizer, TS searches, QM/MM, DLPNO-CCSD(T), (RO)-DLPNO pert. Triples
   Michael Roemelt        : Original ROCIS implementation
   Masaaki Saitow         : Open-shell DLPNO-CCSD energy and density
   Barbara Sandhoefer     : DKH picture change effects
   Kantharuban Sivalingam : CASSCF convergence/infrastructure, NEVPT2 and variants, FIC-MRCI
   Bernardo de Souza      : ESD, SOC TD-DFT
   Georgi Stoychev        : AutoAux, RI-MP2 NMR, DLPNO-MP2 response, X2C
   Van Anh Tran           : RI-MP2 g-tensors
   Willem Van den Heuvel  : Paramagnetic NMR
   Zikuan Wang            : NOTCH, Electric field optimization 
   Frank Wennmohs         : Technical directorship and infrastructure
   Hang Xu                : AUTO-CI-Response properties 


 We gratefully acknowledge several colleagues who have allowed us to
 interface, adapt or use parts of their codes:
   Stefan Grimme, W. Hujo, H. Kruse, P. Pracht,  : VdW corrections, initial TS optimization,
                  C. Bannwarth, S. Ehlert,         DFT functionals, gCP, sTDA/sTD-DF
                  L. Wittmann, M. Mueller
   Ed Valeev, F. Pavosevic, A. Kumar             : LibInt (2-el integral package), F12 methods
   Garnet Chan, S. Sharma, J. Yang, R. Olivares  : DMRG
   Ulf Ekstrom                                   : XCFun DFT Library
   Mihaly Kallay                                 : mrcc  (arbitrary order and MRCC methods)
   Frank Weinhold                                : gennbo (NPA and NBO analysis)
   Simon Mueller                                 : openCOSMO-RS
   Christopher J. Cramer and Donald G. Truhlar   : smd solvation model
   Lars Goerigk                                  : TD-DFT with DH, B97 family of functionals
   V. Asgeirsson, H. Jonsson                     : NEB implementation
   FAccTs GmbH                                   : IRC, NEB, NEB-TS, DLPNO-Multilevel, CI-OPT
                                                   MM, QMMM, 2- and 3-layer-ONIOM, Crystal-QMMM,
                                                   LR-CPCM, SF, NACMEs, symmetry and pop. for TD-DFT,
                                                   nearIR, NL-DFT gradient (VV10), updates on ESD,
                                                   ML-optimized integration grids, MBIS, APM,
                                                   GOAT, DOCKER, SOLVATOR, interface openCOSMO-RS
   S Lehtola, MJT Oliveira, MAL Marques          : LibXC Library
   Liviu Ungur et al                             : ANISO software


 Your calculation uses the libint2 library for the computation of 2-el integrals
 For citations please refer to: http://libint.valeyev.net

 Your ORCA version has been built with support for libXC version: 6.2.2
 For citations please refer to: https://libxc.gitlab.io

 This ORCA versions uses:
   CBLAS   interface :  Fast vector & matrix operations
   LAPACKE interface :  Fast linear algebra routines
   SCALAPACK package :  Parallel linear algebra routines
   Shared memory     :  Shared parallel matrices
   BLAS/LAPACK       :  OpenBLAS 0.3.27  USE64BITINT DYNAMIC_ARCH NO_AFFINITY Zen SINGLE_THREADED
        Core in use  :  Zen
   Copyright (c) 2011-2014, The OpenBLAS Project


Your calculation utilizes the atom-pairwise dispersion correction
with the Becke-Johnson damping scheme (D3BJ)


Warning: RI is on but no J-basis has been assigned. Assigning Def2/J (nothing to worry about!)
================================================================================

----- Orbital basis set information -----
Your calculation utilizes the basis: def2-TZVPPD
   F. Weigend and R. Ahlrichs, Phys. Chem. Chem. Phys. 7, 3297 (2005).
   D. Rappoport and F. Furche, J. Chem. Phys. 133, 134105 (2010)
   D. Rappoport, J. Chem. Phys. 155, 124102 (2021).

----- AuxJ basis set information -----
Your calculation utilizes the auxiliary basis: def2/J
   F. Weigend, Phys. Chem. Chem. Phys. 8, 1057 (2006).

================================================================================
                                        WARNINGS
                       Please study these warnings very carefully!
================================================================================

Using LibXC functional ID 531 : wB97M-V exchange-correlation functional
[ 1]  N. Mardirossian and M. Head-Gordon.,  J. Chem. Phys. 144, 214110 (2016)
Using LibXC functional ID 531 : wB97M-V exchange-correlation functional
[ 1]  N. Mardirossian and M. Head-Gordon.,  J. Chem. Phys. 144, 214110 (2016)

WARNING: B97M-V or wB97M-V functional requested.
  ===> : libXC variant has now been activated.
         Any manually given DFX/HFX/RangeSep scaling parameters are IGNORED!

Your calculation utilizes LibXC
 by S Lehtola, C Steigemann, MJT Oliveira & MAL Marques
Please cite in your paper:
 S Lehtola, C Steigemann, MJT Oliveira & MAL Marques, SoftwareX, 7, (2018), 1.
   


WARNING: your system is open-shell and RHF/RKS was chosen
  ===> : WILL SWITCH to UHF/UKS

INFO   : Checking CIS options ...

WARNING: CIS/ROCIS methods need fully converged wavefunctions
  ===> : Setting SCFConvForced true
         You can overwrite this default with %scf ConvForced false 


================================================================================
                                       INPUT FILE
================================================================================
NAME = orca.inp
|  1> ! Engrad def2-TZVPPD wB97M-D3BJ 
|  2> %pal nprocs 8 end%pal nprocs 64 end 
|  3> %tddft 
|  4>  Iroot 2 Nroots 3 
|  5> sf true 
|  6> end 
|  7> *xyz 0 3 
|  8> O   1.14150719 -0.81365848 0.28175778
|  9> C   0.46808422 0.35909101 0.51033671
| 10> C   -0.46531963 0.70582171 -0.61181963
| 11> H   1.00250781 1.22076999 0.74056416
| 12> H   -0.12531893 0.09834114 1.4291125
| 13> H   -0.32988883 1.74663686 -1.18200785
| 14> H   -1.22023951 0.03895488 -1.05600245
| 15> *
| 16> 
| 17>                          ****END OF INPUT****
================================================================================

                     *******************************
                     * Energy+Gradient Calculation *
                     *******************************

---------------------------------
CARTESIAN COORDINATES (ANGSTROEM)
---------------------------------
  O      1.141507   -0.813658    0.281758
  C      0.468084    0.359091    0.510337
  C     -0.465320    0.705822   -0.611820
  H      1.002508    1.220770    0.740564
  H     -0.125319    0.098341    1.429113
  H     -0.329889    1.746637   -1.182008
  H     -1.220240    0.038955   -1.056002

----------------------------
CARTESIAN COORDINATES (A.U.)
----------------------------
  NO LB      ZA    FRAG     MASS         X           Y           Z
   0 O     8.0000    0    15.999    2.157136   -1.537592    0.532445
   1 C     6.0000    0    12.011    0.884551    0.678584    0.964397
   2 C     6.0000    0    12.011   -0.879327    1.333810   -1.156172
   3 H     1.0000    0     1.008    1.894465    2.306921    1.399463
   4 H     1.0000    0     1.008   -0.236818    0.185838    2.700631
   5 H     1.0000    0     1.008   -0.623400    3.300665   -2.233671
   6 H     1.0000    0     1.008   -2.305918    0.073614   -1.995555

--------------------------------
INTERNAL COORDINATES (ANGSTROEM)
--------------------------------
 O      0   0   0     0.000000000000     0.00000000     0.00000000
 C      1   0   0     1.371527684758     0.00000000     0.00000000
 C      2   1   0     1.500233240839   112.23769022     0.00000000
 H      2   1   3     1.039761471135   119.54798584   233.36392293
 H      2   1   3     1.124396169250   101.36264847   116.93057416
 H      3   2   1     1.194467364261   119.20280878   238.24713800
 H      3   2   1     1.100869552561   126.04723665    50.97743188

---------------------------
INTERNAL COORDINATES (A.U.)
---------------------------
 O      0   0   0     0.000000000000     0.00000000     0.00000000
 C      1   0   0     2.591811709285     0.00000000     0.00000000
 C      2   1   0     2.835029962192   112.23769022     0.00000000
 H      2   1   3     1.964864425047   119.54798584   233.36392293
 H      2   1   3     2.124800825913   101.36264847   116.93057416
 H      3   2   1     2.257216194360   119.20280878   238.24713800
 H      3   2   1     2.080341963513   126.04723665    50.97743188

---------------------
BASIS SET INFORMATION
---------------------
There are 3 groups of distinct atoms

 Group   1 Type O   : 12s7p3d1f contracted to 6s4p3d1f pattern {621111/4111/111/1}
 Group   2 Type C   : 12s6p3d1f contracted to 6s3p3d1f pattern {621111/411/111/1}
 Group   3 Type H   : 5s3p1d contracted to 3s3p1d pattern {311/111/1}

Atom   0O    basis set group =>   1
Atom   1C    basis set group =>   2
Atom   2C    basis set group =>   2
Atom   3H    basis set group =>   3
Atom   4H    basis set group =>   3
Atom   5H    basis set group =>   3
Atom   6H    basis set group =>   3
---------------------------------
AUXILIARY/J BASIS SET INFORMATION
---------------------------------
There are 3 groups of distinct atoms

 Group   1 Type O   : 12s5p4d2f1g contracted to 6s4p3d1f1g pattern {711111/2111/211/2/1}
 Group   2 Type C   : 12s5p4d2f1g contracted to 6s4p3d1f1g pattern {711111/2111/211/2/1}
 Group   3 Type H   : 5s2p1d contracted to 3s1p1d pattern {311/2/1}

Atom   0O    basis set group =>   1
Atom   1C    basis set group =>   2
Atom   2C    basis set group =>   2
Atom   3H    basis set group =>   3
Atom   4H    basis set group =>   3
Atom   5H    basis set group =>   3
Atom   6H    basis set group =>   3
[1741611486.910730] [ohm:3508171:0]        ib_iface.c:1059 UCX  ERROR ibv_create_cq(cqe=256) failed: Connection timed out
[1741611486.937663] [ohm:3508185:0]        ib_iface.c:1059 UCX  ERROR ibv_create_cq(cqe=256) failed: Connection timed out
[1741611486.942911] [ohm:3508199:0]        ib_iface.c:1059 UCX  ERROR ibv_create_cq(cqe=256) failed: Connection timed out
[1741611486.951422] [ohm:3508179:0]        ib_iface.c:1059 UCX  ERROR ibv_create_cq(cqe=256) failed: Connection timed out
[1741611486.951488] [ohm:3508175:0]        ib_iface.c:1059 UCX  ERROR ibv_create_cq(cqe=256) failed: Connection timed out
[1741611486.954001] [ohm:3508172:0]        ib_iface.c:1059 UCX  ERROR ibv_create_cq(cqe=256) failed: Connection timed out
[1741611486.955252] [ohm:3508268:0]        ib_iface.c:1059 UCX  ERROR ibv_create_cq(cqe=256) failed: Connection timed out
[1741611486.960357] [ohm:3508173:0]        ib_iface.c:1059 UCX  ERROR ibv_create_cq(cqe=256) failed: Connection timed out
[1741611486.966137] [ohm:3508182:0]        ib_iface.c:1059 UCX  ERROR ibv_create_cq(cqe=256) failed: Connection timed out
[1741611486.969581] [ohm:3508178:0]        ib_iface.c:1059 UCX  ERROR ibv_create_cq(cqe=256) failed: Connection timed out
[1741611486.970091] [ohm:3508183:0]        ib_iface.c:1059 UCX  ERROR ibv_create_cq(cqe=256) failed: Connection timed out
[1741611486.970159] [ohm:3508174:0]        ib_iface.c:1059 UCX  ERROR ibv_create_cq(cqe=256) failed: Connection timed out
[1741611486.970673] [ohm:3508176:0]        ib_iface.c:1059 UCX  ERROR ibv_create_cq(cqe=256) failed: Connection timed out
[1741611486.975880] [ohm:3508177:0]        ib_iface.c:1059 UCX  ERROR ibv_create_cq(cqe=256) failed: Connection timed out
[1741611486.989687] [ohm:3508299:0]        ib_iface.c:1059 UCX  ERROR ibv_create_cq(cqe=256) failed: Connection timed out
[1741611486.995862] [ohm:3508186:0]        ib_iface.c:1059 UCX  ERROR ibv_create_cq(cqe=256) failed: Connection timed out
[1741611486.998817] [ohm:3508196:0]        ib_iface.c:1059 UCX  ERROR ibv_create_cq(cqe=256) failed: Connection timed out
[1741611487.002024] [ohm:3508235:0]        ib_iface.c:1059 UCX  ERROR ibv_create_cq(cqe=256) failed: Connection timed out
[1741611487.008934] [ohm:3508192:0]        ib_iface.c:1059 UCX  ERROR ibv_create_cq(cqe=256) failed: Connection timed out
[1741611487.010608] [ohm:3508256:0]        ib_iface.c:1059 UCX  ERROR ibv_create_cq(cqe=256) failed: Connection timed out
[1741611487.010845] [ohm:3508286:0]        ib_iface.c:1059 UCX  ERROR ibv_create_cq(cqe=256) failed: Connection timed out
[1741611487.012845] [ohm:3508284:0]        ib_iface.c:1059 UCX  ERROR ibv_create_cq(cqe=256) failed: Connection timed out
[1741611487.057353] [ohm:3508296:0]        ib_iface.c:1059 UCX  ERROR ibv_create_cq(cqe=256) failed: Connection timed out
[1741611487.080623] [ohm:3508278:0]        ib_iface.c:1059 UCX  ERROR ibv_create_cq(cqe=256) failed: Connection timed out
[1741611487.085597] [ohm:3508180:0]        ib_iface.c:1059 UCX  ERROR ibv_create_cq(cqe=256) failed: Connection timed out
[1741611487.087360] [ohm:3508293:0]        ib_iface.c:1059 UCX  ERROR ibv_create_cq(cqe=256) failed: Connection timed out
[1741611487.096922] [ohm:3508193:0]        ib_iface.c:1059 UCX  ERROR ibv_create_cq(cqe=256) failed: Connection timed out
[1741611487.100891] [ohm:3508189:0]        ib_iface.c:1059 UCX  ERROR ibv_create_cq(cqe=256) failed: Connection timed out
[1741611487.106603] [ohm:3508170:0]        ib_iface.c:1059 UCX  ERROR ibv_create_cq(cqe=256) failed: Connection timed out
[1741611487.114811] [ohm:3508198:0]        ib_iface.c:1059 UCX  ERROR ibv_create_cq(cqe=256) failed: Connection timed out
[1741611487.121357] [ohm:3508314:0]        ib_iface.c:1059 UCX  ERROR ibv_create_cq(cqe=256) failed: Connection timed out
[1741611487.127315] [ohm:3508230:0]        ib_iface.c:1059 UCX  ERROR ibv_create_cq(cqe=256) failed: Connection timed out
[1741611487.128724] [ohm:3508265:0]        ib_iface.c:1059 UCX  ERROR ibv_create_cq(cqe=256) failed: Connection timed out
[1741611487.129611] [ohm:3508276:0]        ib_iface.c:1059 UCX  ERROR ibv_create_cq(cqe=256) failed: Connection timed out
[1741611487.136571] [ohm:3508187:0]        ib_iface.c:1059 UCX  ERROR ibv_create_cq(cqe=256) failed: Connection timed out
[1741611487.143767] [ohm:3508234:0]        ib_iface.c:1059 UCX  ERROR ibv_create_cq(cqe=256) failed: Connection timed out
[1741611487.145424] [ohm:3508204:0]        ib_iface.c:1059 UCX  ERROR ibv_create_cq(cqe=256) failed: Connection timed out
[1741611487.147886] [ohm:3508210:0]        ib_iface.c:1059 UCX  ERROR ibv_create_cq(cqe=256) failed: Connection timed out
[1741611487.149390] [ohm:3508312:0]        ib_iface.c:1059 UCX  ERROR ibv_create_cq(cqe=256) failed: Connection timed out
[1741611487.167167] [ohm:3508200:0]        ib_iface.c:1059 UCX  ERROR ibv_create_cq(cqe=256) failed: Connection timed out
[1741611487.172989] [ohm:3508289:0]        ib_iface.c:1059 UCX  ERROR ibv_create_cq(cqe=256) failed: Connection timed out
[1741611487.177930] [ohm:3508191:0]        ib_iface.c:1059 UCX  ERROR ibv_create_cq(cqe=256) failed: Connection timed out
[1741611487.179090] [ohm:3508272:0]        ib_iface.c:1059 UCX  ERROR ibv_create_cq(cqe=256) failed: Connection timed out
[1741611487.180560] [ohm:3508246:0]        ib_iface.c:1059 UCX  ERROR ibv_create_cq(cqe=256) failed: Connection timed out
[1741611487.184552] [ohm:3508302:0]        ib_iface.c:1059 UCX  ERROR ibv_create_cq(cqe=256) failed: Connection timed out
[1741611487.188327] [ohm:3508207:0]        ib_iface.c:1059 UCX  ERROR ibv_create_cq(cqe=256) failed: Connection timed out
[1741611487.192818] [ohm:3508188:0]        ib_iface.c:1059 UCX  ERROR ibv_create_cq(cqe=256) failed: Connection timed out
[1741611487.193685] [ohm:3508214:0]        ib_iface.c:1059 UCX  ERROR ibv_create_cq(cqe=256) failed: Connection timed out
[1741611487.205239] [ohm:3508201:0]        ib_iface.c:1059 UCX  ERROR ibv_create_cq(cqe=256) failed: Connection timed out
[1741611487.207580] [ohm:3508195:0]        ib_iface.c:1059 UCX  ERROR ibv_create_cq(cqe=256) failed: Connection timed out
[1741611487.212133] [ohm:3508224:0]        ib_iface.c:1059 UCX  ERROR ibv_create_cq(cqe=256) failed: Connection timed out
[1741611487.213013] [ohm:3508220:0]        ib_iface.c:1059 UCX  ERROR ibv_create_cq(cqe=256) failed: Connection timed out
[1741611487.221083] [ohm:3508184:0]        ib_iface.c:1059 UCX  ERROR ibv_create_cq(cqe=256) failed: Connection timed out
[1741611487.223734] [ohm:3508280:0]        ib_iface.c:1059 UCX  ERROR ibv_create_cq(cqe=256) failed: Connection timed out
[1741611487.224030] [ohm:3508194:0]        ib_iface.c:1059 UCX  ERROR ibv_create_cq(cqe=256) failed: Connection timed out
[1741611487.224413] [ohm:3508262:0]        ib_iface.c:1059 UCX  ERROR ibv_create_cq(cqe=256) failed: Connection timed out
[1741611487.229548] [ohm:3508190:0]        ib_iface.c:1059 UCX  ERROR ibv_create_cq(cqe=256) failed: Connection timed out
[1741611487.232116] [ohm:3508243:0]        ib_iface.c:1059 UCX  ERROR ibv_create_cq(cqe=256) failed: Connection timed out
[1741611487.232245] [ohm:3508181:0]        ib_iface.c:1059 UCX  ERROR ibv_create_cq(cqe=256) failed: Connection timed out
[1741611487.233433] [ohm:3508250:0]        ib_iface.c:1059 UCX  ERROR ibv_create_cq(cqe=256) failed: Connection timed out
[1741611487.235182] [ohm:3508197:0]        ib_iface.c:1059 UCX  ERROR ibv_create_cq(cqe=256) failed: Connection timed out
[1741611487.235890] [ohm:3508239:0]        ib_iface.c:1059 UCX  ERROR ibv_create_cq(cqe=256) failed: Connection timed out
[1741611487.237585] [ohm:3508255:0]        ib_iface.c:1059 UCX  ERROR ibv_create_cq(cqe=256) failed: Connection timed out
[1741611487.237905] [ohm:3508308:0]        ib_iface.c:1059 UCX  ERROR ibv_create_cq(cqe=256) failed: Connection timed out


           ************************************************************
           *        Program running with 64 parallel MPI-processes    *
           *              working on a common directory               *
           ************************************************************
------------------------------------------------------------------------------
                             ORCA STARTUP CALCULATIONS
                           -- RI-GTO INTEGRALS CHOSEN --
------------------------------------------------------------------------------
------------------------------------------------------------------------------
                   ___                                                        
                  /   \      - P O W E R E D   B Y -                         
                 /     \                                                     
                 |  |  |   _    _      __       _____    __    __             
                 |  |  |  | |  | |    /  \     |  _  \  |  |  /  |          
                  \  \/   | |  | |   /    \    | | | |  |  | /  /          
                 / \  \   | |__| |  /  /\  \   | |_| |  |  |/  /          
                |  |  |   |  __  | /  /__\  \  |    /   |      \           
                |  |  |   | |  | | |   __   |  |    \   |  |\   \          
                \     /   | |  | | |  |  |  |  | |\  \  |  | \   \       
                 \___/    |_|  |_| |__|  |__|  |_| \__\ |__|  \__/        
                                                                              
                      - O R C A' S   B I G   F R I E N D -                    
                                      &                                       
                       - I N T E G R A L  F E E D E R -                       
                                                                              
 v1 FN, 2020, v2 2021, v3 2022-2024                                           
------------------------------------------------------------------------------


----------------------
SHARK INTEGRAL PACKAGE
----------------------

Number of atoms                             ...      7
Number of basis functions                   ...    182
Number of shells                            ...     68
Maximum angular momentum                    ...      3
Integral batch strategy                     ... SHARK/LIBINT Hybrid
RI-J (if used) integral strategy            ... SPLIT-RIJ (Revised 2003 algorithm where possible)
Printlevel                                  ...      1
Contraction scheme used                     ... SEGMENTED contraction
Prescreening option                         ... SCHWARTZ
   Thresh                                   ... 2.500e-11
   Tcut                                     ... 2.500e-12
   Tpresel                                  ... 2.500e-12 
Coulomb Range Separation                    ... NOT USED
Exchange Range Separation                   ... Long Range
   Mu parameter                             ... 3.000e-01
   Scaling (regular/separated)              ... 1.500e-01 8.500e-01
Multipole approximations                    ... NOT USED
Finite Nucleus Model                        ... NOT USED
CABS basis                                  ... NOT available
Auxiliary Coulomb fitting basis             ... AVAILABLE
   # of basis functions in Aux-J            ...    191
   # of shells in Aux-J                     ...     65
   Maximum angular momentum in Aux-J        ...      4
Auxiliary J/K fitting basis                 ... NOT available
Auxiliary Correlation fitting basis         ... NOT available
Auxiliary 'external' fitting basis          ... NOT available

Checking pre-screening integrals            ... done (  0.0 sec) Dimension = 68
Check shell pair data                       ... done (  0.0 sec)
Shell pair information
Shell pair cut-off parameter TPreSel        ...   2.5e-12
Total number of shell pairs                 ...      2346
Shell pairs after pre-screening             ...      2325
Total number of primitive shell pairs       ...      5434
Primitive shell pairs kept                  ...      4805
          la=0 lb=0:    455 shell pairs
          la=1 lb=0:    655 shell pairs
          la=1 lb=1:    253 shell pairs
          la=2 lb=0:    385 shell pairs
          la=2 lb=1:    285 shell pairs
          la=2 lb=2:     91 shell pairs
          la=3 lb=0:     90 shell pairs
          la=3 lb=1:     66 shell pairs
          la=3 lb=2:     39 shell pairs
          la=3 lb=3:      6 shell pairs

Calculating one electron integrals          ... done (  0.0 sec)
Calculating RI/J V-Matrix + Cholesky decomp.... done (  0.0 sec)
Calculating Nuclear repulsion               ... done (  0.0 sec) ENN=     67.348570602937 Eh

Diagonalization of the overlap matrix:
Smallest eigenvalue                        ... 1.722e-05
Time for diagonalization                   ...    0.004 sec
Threshold for overlap eigenvalues          ... 1.000e-07
Number of eigenvalues below threshold      ... 0
Time for construction of square roots      ...    0.003 sec
Total time needed                          ...    0.008 sec

-------------------
DFT GRID GENERATION
-------------------

General Integration Accuracy     IntAcc      ... 4.388
Radial Grid Type                 RadialGrid  ... OptM3 with GC (2021)
Angular Grid (max. ang.)         AngularGrid ... 4 (Lebedev-302)
Angular grid pruning method      GridPruning ... 4 (adaptive)
Weight generation scheme         WeightScheme... mBecke (2022)
Basis function cutoff            BFCut       ... 1.0000e-11
Integration weight cutoff        WCut        ... 1.0000e-14
Partially contracted basis set               ... off
Rotationally invariant grid construction     ... off
Angular grids for H and He will be reduced by one unit
Diffuse basis detected: some atoms will have their outermost
                        angular grid increased by 1.

Total number of grid points                  ...    33165
Total number of batches                      ...      521
Average number of points per batch           ...       63
Average number of grid points per atom       ...     4738

--------------------
COSX GRID GENERATION
--------------------

GRIDX 1
-------
General Integration Accuracy     IntAcc      ... 3.816
Radial Grid Type                 RadialGrid  ... OptM3 with GC (2021)
Angular Grid (max. ang.)         AngularGrid ... 1 (Lebedev-50)
Angular grid pruning method      GridPruning ... 4 (adaptive)
Weight generation scheme         WeightScheme... mBecke (2022)
Basis function cutoff            BFCut       ... 1.0000e-11
Integration weight cutoff        WCut        ... 1.0000e-14
Partially contracted basis set               ... on
Rotationally invariant grid construction     ... off
Angular grids for H and He will be reduced by one unit
Diffuse basis detected: some atoms will have their outermost
                        angular grid increased by 1.

Total number of grid points                  ...     4184
Total number of batches                      ...       36
Average number of points per batch           ...      116
Average number of grid points per atom       ...      598
UseSFitting                                  ... on

GRIDX 2
-------
General Integration Accuracy     IntAcc      ... 4.020
Radial Grid Type                 RadialGrid  ... OptM3 with GC (2021)
Angular Grid (max. ang.)         AngularGrid ... 2 (Lebedev-110)
Angular grid pruning method      GridPruning ... 4 (adaptive)
Weight generation scheme         WeightScheme... mBecke (2022)
Basis function cutoff            BFCut       ... 1.0000e-11
Integration weight cutoff        WCut        ... 1.0000e-14
Partially contracted basis set               ... on
Rotationally invariant grid construction     ... off
Angular grids for H and He will be reduced by one unit
Diffuse basis detected: some atoms will have their outermost
                        angular grid increased by 1.

Total number of grid points                  ...    10321
Total number of batches                      ...       83
Average number of points per batch           ...      124
Average number of grid points per atom       ...     1474
UseSFitting                                  ... on

GRIDX 3
-------
General Integration Accuracy     IntAcc      ... 4.338
Radial Grid Type                 RadialGrid  ... OptM3 with GC (2021)
Angular Grid (max. ang.)         AngularGrid ... 3 (Lebedev-194)
Angular grid pruning method      GridPruning ... 4 (adaptive)
Weight generation scheme         WeightScheme... mBecke (2022)
Basis function cutoff            BFCut       ... 1.0000e-11
Integration weight cutoff        WCut        ... 1.0000e-14
Partially contracted basis set               ... on
Rotationally invariant grid construction     ... off
Angular grids for H and He will be reduced by one unit
Diffuse basis detected: some atoms will have their outermost
                        angular grid increased by 1.

Total number of grid points                  ...    23158
Total number of batches                      ...      186
Average number of points per batch           ...      124
Average number of grid points per atom       ...     3308
UseSFitting                                  ... on
Initializing property integral containers    ... done (  0.0 sec)

SHARK setup successfully completed in   0.4 seconds

Maximum memory used throughout the entire STARTUP-calculation: 13.8 MB
[1741611489.343918] [ohm:3508518:0]        ib_iface.c:1059 UCX  ERROR ibv_create_cq(cqe=256) failed: Connection timed out
[1741611489.346092] [ohm:3508521:0]        ib_iface.c:1059 UCX  ERROR ibv_create_cq(cqe=256) failed: Connection timed out
[1741611489.350422] [ohm:3508519:0]        ib_iface.c:1059 UCX  ERROR ibv_create_cq(cqe=256) failed: Connection timed out
[1741611489.360826] [ohm:3508523:0]        ib_iface.c:1059 UCX  ERROR ibv_create_cq(cqe=256) failed: Connection timed out
[1741611489.362333] [ohm:3508525:0]        ib_iface.c:1059 UCX  ERROR ibv_create_cq(cqe=256) failed: Connection timed out
[1741611489.371064] [ohm:3508520:0]        ib_iface.c:1059 UCX  ERROR ibv_create_cq(cqe=256) failed: Connection timed out
[1741611489.409483] [ohm:3508541:0]        ib_iface.c:1059 UCX  ERROR ibv_create_cq(cqe=256) failed: Connection timed out
[1741611489.412256] [ohm:3508524:0]        ib_iface.c:1059 UCX  ERROR ibv_create_cq(cqe=256) failed: Connection timed out
[1741611489.436855] [ohm:3508527:0]        ib_iface.c:1059 UCX  ERROR ibv_create_cq(cqe=256) failed: Connection timed out
[1741611489.441038] [ohm:3508528:0]        ib_iface.c:1059 UCX  ERROR ibv_create_cq(cqe=256) failed: Connection timed out
[1741611489.449688] [ohm:3508537:0]        ib_iface.c:1059 UCX  ERROR ibv_create_cq(cqe=256) failed: Connection timed out
[1741611489.449902] [ohm:3508526:0]        ib_iface.c:1059 UCX  ERROR ibv_create_cq(cqe=256) failed: Connection timed out
[1741611489.450301] [ohm:3508539:0]        ib_iface.c:1059 UCX  ERROR ibv_create_cq(cqe=256) failed: Connection timed out
[1741611489.452529] [ohm:3508538:0]        ib_iface.c:1059 UCX  ERROR ibv_create_cq(cqe=256) failed: Connection timed out
[1741611489.452999] [ohm:3508542:0]        ib_iface.c:1059 UCX  ERROR ibv_create_cq(cqe=256) failed: Connection timed out
[1741611489.469551] [ohm:3508540:0]        ib_iface.c:1059 UCX  ERROR ibv_create_cq(cqe=256) failed: Connection timed out
[1741611489.480554] [ohm:3508563:0]        ib_iface.c:1059 UCX  ERROR ibv_create_cq(cqe=256) failed: Connection timed out
[1741611489.489682] [ohm:3508545:0]        ib_iface.c:1059 UCX  ERROR ibv_create_cq(cqe=256) failed: Connection timed out
[1741611489.492963] [ohm:3508543:0]        ib_iface.c:1059 UCX  ERROR ibv_create_cq(cqe=256) failed: Connection timed out
[1741611489.494376] [ohm:3508547:0]        ib_iface.c:1059 UCX  ERROR ibv_create_cq(cqe=256) failed: Connection timed out
[1741611489.494372] [ohm:3508551:0]        ib_iface.c:1059 UCX  ERROR ibv_create_cq(cqe=256) failed: Connection timed out
[1741611489.494568] [ohm:3508553:0]        ib_iface.c:1059 UCX  ERROR ibv_create_cq(cqe=256) failed: Connection timed out
[1741611489.494685] [ohm:3508544:0]        ib_iface.c:1059 UCX  ERROR ibv_create_cq(cqe=256) failed: Connection timed out
[1741611489.496312] [ohm:3508633:0]        ib_iface.c:1059 UCX  ERROR ibv_create_cq(cqe=256) failed: Connection timed out
[1741611489.497110] [ohm:3508578:0]        ib_iface.c:1059 UCX  ERROR ibv_create_cq(cqe=256) failed: Connection timed out
[1741611489.506634] [ohm:3508570:0]        ib_iface.c:1059 UCX  ERROR ibv_create_cq(cqe=256) failed: Connection timed out
[1741611489.508494] [ohm:3508645:0]        ib_iface.c:1059 UCX  ERROR ibv_create_cq(cqe=256) failed: Connection timed out
[1741611489.510875] [ohm:3508522:0]        ib_iface.c:1059 UCX  ERROR ibv_create_cq(cqe=256) failed: Connection timed out
[1741611489.519364] [ohm:3508658:0]        ib_iface.c:1059 UCX  ERROR ibv_create_cq(cqe=256) failed: Connection timed out
[1741611489.528557] [ohm:3508555:0]        ib_iface.c:1059 UCX  ERROR ibv_create_cq(cqe=256) failed: Connection timed out
[1741611489.531136] [ohm:3508572:0]        ib_iface.c:1059 UCX  ERROR ibv_create_cq(cqe=256) failed: Connection timed out
[1741611489.534641] [ohm:3508573:0]        ib_iface.c:1059 UCX  ERROR ibv_create_cq(cqe=256) failed: Connection timed out
[1741611489.541100] [ohm:3508569:0]        ib_iface.c:1059 UCX  ERROR ibv_create_cq(cqe=256) failed: Connection timed out
[1741611489.544136] [ohm:3508571:0]        ib_iface.c:1059 UCX  ERROR ibv_create_cq(cqe=256) failed: Connection timed out
[1741611489.545690] [ohm:3508567:0]        ib_iface.c:1059 UCX  ERROR ibv_create_cq(cqe=256) failed: Connection timed out
[1741611489.556686] [ohm:3508612:0]        ib_iface.c:1059 UCX  ERROR ibv_create_cq(cqe=256) failed: Connection timed out
[1741611489.560036] [ohm:3508653:0]        ib_iface.c:1059 UCX  ERROR ibv_create_cq(cqe=256) failed: Connection timed out
[1741611489.561713] [ohm:3508565:0]        ib_iface.c:1059 UCX  ERROR ibv_create_cq(cqe=256) failed: Connection timed out
[1741611489.564462] [ohm:3508568:0]        ib_iface.c:1059 UCX  ERROR ibv_create_cq(cqe=256) failed: Connection timed out
[1741611489.571679] [ohm:3508621:0]        ib_iface.c:1059 UCX  ERROR ibv_create_cq(cqe=256) failed: Connection timed out
[1741611489.577248] [ohm:3508660:0]        ib_iface.c:1059 UCX  ERROR ibv_create_cq(cqe=256) failed: Connection timed out
[1741611489.580599] [ohm:3508561:0]        ib_iface.c:1059 UCX  ERROR ibv_create_cq(cqe=256) failed: Connection timed out
[1741611489.588241] [ohm:3508574:0]        ib_iface.c:1059 UCX  ERROR ibv_create_cq(cqe=256) failed: Connection timed out
[1741611489.598980] [ohm:3508599:0]        ib_iface.c:1059 UCX  ERROR ibv_create_cq(cqe=256) failed: Connection timed out
[1741611489.599514] [ohm:3508575:0]        ib_iface.c:1059 UCX  ERROR ibv_create_cq(cqe=256) failed: Connection timed out
[1741611489.600156] [ohm:3508593:0]        ib_iface.c:1059 UCX  ERROR ibv_create_cq(cqe=256) failed: Connection timed out
[1741611489.604568] [ohm:3508628:0]        ib_iface.c:1059 UCX  ERROR ibv_create_cq(cqe=256) failed: Connection timed out
[1741611489.606190] [ohm:3508588:0]        ib_iface.c:1059 UCX  ERROR ibv_create_cq(cqe=256) failed: Connection timed out
[1741611489.606818] [ohm:3508618:0]        ib_iface.c:1059 UCX  ERROR ibv_create_cq(cqe=256) failed: Connection timed out
[1741611489.613849] [ohm:3508596:0]        ib_iface.c:1059 UCX  ERROR ibv_create_cq(cqe=256) failed: Connection timed out
[1741611489.617621] [ohm:3508651:0]        ib_iface.c:1059 UCX  ERROR ibv_create_cq(cqe=256) failed: Connection timed out
[1741611489.621997] [ohm:3508644:0]        ib_iface.c:1059 UCX  ERROR ibv_create_cq(cqe=256) failed: Connection timed out
[1741611489.623966] [ohm:3508606:0]        ib_iface.c:1059 UCX  ERROR ibv_create_cq(cqe=256) failed: Connection timed out
[1741611489.630037] [ohm:3508577:0]        ib_iface.c:1059 UCX  ERROR ibv_create_cq(cqe=256) failed: Connection timed out
[1741611489.630428] [ohm:3508636:0]        ib_iface.c:1059 UCX  ERROR ibv_create_cq(cqe=256) failed: Connection timed out
[1741611489.630895] [ohm:3508667:0]        ib_iface.c:1059 UCX  ERROR ibv_create_cq(cqe=256) failed: Connection timed out
[1741611489.633692] [ohm:3508609:0]        ib_iface.c:1059 UCX  ERROR ibv_create_cq(cqe=256) failed: Connection timed out
[1741611489.633879] [ohm:3508639:0]        ib_iface.c:1059 UCX  ERROR ibv_create_cq(cqe=256) failed: Connection timed out
[1741611489.634568] [ohm:3508576:0]        ib_iface.c:1059 UCX  ERROR ibv_create_cq(cqe=256) failed: Connection timed out
[1741611489.634949] [ohm:3508583:0]        ib_iface.c:1059 UCX  ERROR ibv_create_cq(cqe=256) failed: Connection timed out
[1741611489.635136] [ohm:3508626:0]        ib_iface.c:1059 UCX  ERROR ibv_create_cq(cqe=256) failed: Connection timed out
[1741611489.635938] [ohm:3508601:0]        ib_iface.c:1059 UCX  ERROR ibv_create_cq(cqe=256) failed: Connection timed out
[1741611489.636582] [ohm:3508656:0]        ib_iface.c:1059 UCX  ERROR ibv_create_cq(cqe=256) failed: Connection timed out
[1741611489.636873] [ohm:3508591:0]        ib_iface.c:1059 UCX  ERROR ibv_create_cq(cqe=256) failed: Connection timed out


           ************************************************************
           *        Program running with 64 parallel MPI-processes    *
           *              working on a common directory               *
           ************************************************************
-------------------------------------------------------------------------------
                                 ORCA GUESS
                   Start orbitals & Density for SCF / CASSCF
-------------------------------------------------------------------------------

------------
SCF SETTINGS
------------
Hamiltonian:
 Density Functional     Method          .... DFT(GTOs)
  Functional kind                       .... Exchange-Correlation
  Functional name                       .... wB97M-V exchange-correlation functional
  Functional family                     .... Hybrid MGGA
  Functional refs                              
    [ 0] N. Mardirossian and M. Head-Gordon.,  J. Chem. Phys. 144, 214110 (2016), doi: 10.1063/1.4952647
  Fraction of HF Exchange (short range) .... 0.1500
  Fraction of HF Exchange (long range)  .... 1.0000
  Range separation parameter mu         .... 0.3000
  Functional external parameters        .... 17
    Parameter  0 _cx00      =  8.500000e-01 : u^00 coefficient for exchange
    Parameter  1 _cx01      =  1.007000e+00 : u^01 coefficient for exchange
    Parameter  2 _cx10      =  2.590000e-01 : u^10 coefficient for exchange
    Parameter  3 _css00     =  4.430000e-01 : u^00 coefficient for same-spin correlation
    Parameter  4 _css04     = -1.437000e+00 : u^04 coefficient for same-spin correlation
    Parameter  5 _css10     = -4.535000e+00 : u^10 coefficient for same-spin correlation
    Parameter  6 _css20     = -3.390000e+00 : u^20 coefficient for same-spin correlation
    Parameter  7 _css43     =  4.278000e+00 : u^43 coefficient for same-spin correlation
    Parameter  8 _cos00     =  1.000000e+00 : u^00 coefficient for opposite-spin correlation
    Parameter  9 _cos10     =  1.358000e+00 : u^10 coefficient for opposite-spin correlation
    Parameter 10 _cos20     =  2.924000e+00 : u^20 coefficient for opposite-spin correlation
    Parameter 11 _cos21     = -8.812000e+00 : u^21 coefficient for opposite-spin correlation
    Parameter 12 _cos60     = -1.390000e+00 : u^60 coefficient for opposite-spin correlation
    Parameter 13 _cos61     =  9.142000e+00 : u^61 coefficient for opposite-spin correlation
    Parameter 14 _alpha     =  1.000000e+00 : fraction of HF exchange
    Parameter 15 _beta      = -8.500000e-01 : fraction of short-range exchange
    Parameter 16 _omega     =  3.000000e-01 : range-separation constant
 Long-range corrected/Screened/Range-Separated Hybrid DFT is turned on
   Amount of maximum screened exact exchange              ....  0.850000
   Range separation parameter mu (erf(mu*r12)/r12)        ....  0.300000
 RI-approximation to the Coulomb term is turned on
   Number of AuxJ basis functions       .... 191
   RIJ-COSX (HFX calculated with COS-X)).... on


General Settings:
 Integral files         IntName         .... orca
 Hartree-Fock type      HFTyp           .... UHF
 Total Charge           Charge          ....    0
 Multiplicity           Mult            ....    3
 Number of Electrons    NEL             ....   24
 Basis Dimension        Dim             ....  182
 Nuclear Repulsion      ENuc            ....     67.3485706029 Eh

Convergence Acceleration:
 AO-DIIS                CNVDIIS         .... on
   Start iteration      DIISMaxIt       ....    12
   Startup error        DIISStart       ....  0.200000
   # of expansion vecs  DIISMaxEq       ....     5
   Bias factor          DIISBfac        ....   1.050
   Max. coefficient     DIISMaxC        ....  10.000
 MO-DIIS                CNVKDIIS        .... off
 Trust-Rad. Augm. Hess. CNVTRAH         .... auto
   Auto Start mean grad. ratio tolernc. ....  1.125000
   Auto Start start iteration           ....    50
   Auto Start num. interpolation iter.  ....    10
   Max. Number of Micro iterations      ....    24
   Max. Number of Macro iterations      .... Maxiter - #DIIS iter
   Number of Davidson start vectors     ....     2
   Converg. threshold    (grad. norm)   ....   1.000e-05
   Grad. Scal. Fac. for Micro threshold ....   0.100
   Minimum threshold for Micro iter.    ....   1.000e-02
   NR start threshold (gradient norm)   ....   1.000e-04
   Initial trust radius                 ....   0.400
   Minimum AH scaling param. (alpha)    ....   1.000
   Maximum AH scaling param. (alpha)    .... 1000.000
   Quad. conv. algorithm                .... NR
   White noise on init. David. guess    .... on
   Maximum white noise                  ....   0.010
   Pseudo random numbers                .... off
   Inactive MOs                         .... canonical
   Orbital update algorithm             .... Taylor
   Preconditioner                       .... Diag
   Full preconditioner red. dimension   ....   250
 SOSCF                  CNVSOSCF        .... on
   Start iteration      SOSCFMaxIt      ....   150
   Startup grad/error   SOSCFStart      ....  0.003300
   Hessian update       SOSCFHessUp     .... L-BFGS
 Level Shifting         CNVShift        .... on
   Level shift para.    LevelShift      ....    0.2500
   Turn off err/grad.   ShiftErr        ....    0.0010
 Zerner damping         CNVZerner       .... off
 Static damping         CNVDamp         .... on
   Fraction old density DampFac         ....    0.7000
   Max. Damping (<1)    DampMax         ....    0.9800
   Min. Damping (>=0)   DampMin         ....    0.0000
   Turn off err/grad.   DampErr         ....    0.1000

SCF Procedure:
 Maximum # iterations   MaxIter         ....   125
 SCF integral mode      SCFMode         .... Direct
   Integral package                     .... SHARK and LIBINT hybrid scheme
 Reset frequency        DirectResetFreq ....    20
 Integral Threshold     Thresh          ....  2.500e-11 Eh
 Primitive CutOff       TCut            ....  2.500e-12 Eh

Convergence Tolerance:
 Convergence Check Mode ConvCheckMode   .... Total+1el-Energy
 Convergence forced     ConvForced      .... 1
 Energy Change          TolE            ....  1.000e-08 Eh
 1-El. energy change                    ....  1.000e-05 Eh
 Orbital Gradient       TolG            ....  1.000e-05
 Orbital Rotation angle TolX            ....  1.000e-05
 DIIS Error             TolErr          ....  5.000e-07

------------------------------
INITIAL GUESS: MODEL POTENTIAL
------------------------------
Loading Hartree-Fock densities                     ... done
Calculating cut-offs                               ... done
Initializing the effective Hamiltonian             ... done
Setting up the integral package (SHARK)            ... done
Starting the Coulomb interaction                   ... done (   0.0 sec)
Making the grid                                    ... done (   0.0 sec)
Mapping shells                                     ... done
Starting the XC term evaluation                    ... done (   0.0 sec)
  promolecular density results
     # of electrons  =     23.998922906
     EX              =    -19.444167431
     EC              =     -0.762929545
     EX+EC           =    -20.207096977
Transforming the Hamiltonian                       ... done (   0.0 sec)
Diagonalizing the Hamiltonian                      ... done (   0.0 sec)
Back transforming the eigenvectors                 ... done (   0.0 sec)
Now organizing SCF variables                       ... done
                      ------------------
                      INITIAL GUESS DONE (   0.1 sec)
                      ------------------
             **** ENERGY FILE WAS UPDATED (orca.en.tmp) ****
Finished Guess after   1.7 sec
Maximum memory used throughout the entire GUESS-calculation: 9.5 MB
[1741611491.540374] [ohm:3508855:0]        ib_iface.c:1059 UCX  ERROR ibv_create_cq(cqe=256) failed: Connection timed out
[1741611491.543666] [ohm:3508862:0]        ib_iface.c:1059 UCX  ERROR ibv_create_cq(cqe=256) failed: Connection timed out
[1741611491.549873] [ohm:3508853:0]        ib_iface.c:1059 UCX  ERROR ibv_create_cq(cqe=256) failed: Connection timed out
[1741611491.576798] [ohm:3508863:0]        ib_iface.c:1059 UCX  ERROR ibv_create_cq(cqe=256) failed: Connection timed out
[1741611491.588722] [ohm:3508857:0]        ib_iface.c:1059 UCX  ERROR ibv_create_cq(cqe=256) failed: Connection timed out
[1741611491.595781] [ohm:3508867:0]        ib_iface.c:1059 UCX  ERROR ibv_create_cq(cqe=256) failed: Connection timed out
[1741611491.603186] [ohm:3508879:0]        ib_iface.c:1059 UCX  ERROR ibv_create_cq(cqe=256) failed: Connection timed out
[1741611491.607177] [ohm:3508854:0]        ib_iface.c:1059 UCX  ERROR ibv_create_cq(cqe=256) failed: Connection timed out
[1741611491.607170] [ohm:3508851:0]        ib_iface.c:1059 UCX  ERROR ibv_create_cq(cqe=256) failed: Connection timed out
[1741611491.612311] [ohm:3508931:0]        ib_iface.c:1059 UCX  ERROR ibv_create_cq(cqe=256) failed: Connection timed out
[1741611491.627393] [ohm:3508924:0]        ib_iface.c:1059 UCX  ERROR ibv_create_cq(cqe=256) failed: Connection timed out
[1741611491.642990] [ohm:3508921:0]        ib_iface.c:1059 UCX  ERROR ibv_create_cq(cqe=256) failed: Connection timed out
[1741611491.645351] [ohm:3508856:0]        ib_iface.c:1059 UCX  ERROR ibv_create_cq(cqe=256) failed: Connection timed out
[1741611491.651433] [ohm:3508869:0]        ib_iface.c:1059 UCX  ERROR ibv_create_cq(cqe=256) failed: Connection timed out
[1741611491.666667] [ohm:3508871:0]        ib_iface.c:1059 UCX  ERROR ibv_create_cq(cqe=256) failed: Connection timed out
[1741611491.666668] [ohm:3508880:0]        ib_iface.c:1059 UCX  ERROR ibv_create_cq(cqe=256) failed: Connection timed out
[1741611491.668217] [ohm:3508878:0]        ib_iface.c:1059 UCX  ERROR ibv_create_cq(cqe=256) failed: Connection timed out
[1741611491.678324] [ohm:3508865:0]        ib_iface.c:1059 UCX  ERROR ibv_create_cq(cqe=256) failed: Connection timed out
[1741611491.679823] [ohm:3508927:0]        ib_iface.c:1059 UCX  ERROR ibv_create_cq(cqe=256) failed: Connection timed out
[1741611491.687976] [ohm:3508915:0]        ib_iface.c:1059 UCX  ERROR ibv_create_cq(cqe=256) failed: Connection timed out
[1741611491.689720] [ohm:3508874:0]        ib_iface.c:1059 UCX  ERROR ibv_create_cq(cqe=256) failed: Connection timed out
[1741611491.690347] [ohm:3508858:0]        ib_iface.c:1059 UCX  ERROR ibv_create_cq(cqe=256) failed: Connection timed out
[1741611491.697648] [ohm:3508893:0]        ib_iface.c:1059 UCX  ERROR ibv_create_cq(cqe=256) failed: Connection timed out
[1741611491.726350] [ohm:3508975:0]        ib_iface.c:1059 UCX  ERROR ibv_create_cq(cqe=256) failed: Connection timed out
[1741611491.730122] [ohm:3508950:0]        ib_iface.c:1059 UCX  ERROR ibv_create_cq(cqe=256) failed: Connection timed out
[1741611491.735935] [ohm:3508980:0]        ib_iface.c:1059 UCX  ERROR ibv_create_cq(cqe=256) failed: Connection timed out
[1741611491.737720] [ohm:3508961:0]        ib_iface.c:1059 UCX  ERROR ibv_create_cq(cqe=256) failed: Connection timed out
[1741611491.741061] [ohm:3508883:0]        ib_iface.c:1059 UCX  ERROR ibv_create_cq(cqe=256) failed: Connection timed out
[1741611491.755289] [ohm:3508873:0]        ib_iface.c:1059 UCX  ERROR ibv_create_cq(cqe=256) failed: Connection timed out
[1741611491.764383] [ohm:3508872:0]        ib_iface.c:1059 UCX  ERROR ibv_create_cq(cqe=256) failed: Connection timed out
[1741611491.764863] [ohm:3508881:0]        ib_iface.c:1059 UCX  ERROR ibv_create_cq(cqe=256) failed: Connection timed out
[1741611491.772569] [ohm:3508864:0]        ib_iface.c:1059 UCX  ERROR ibv_create_cq(cqe=256) failed: Connection timed out
[1741611491.782213] [ohm:3508952:0]        ib_iface.c:1059 UCX  ERROR ibv_create_cq(cqe=256) failed: Connection timed out
[1741611491.784772] [ohm:3508918:0]        ib_iface.c:1059 UCX  ERROR ibv_create_cq(cqe=256) failed: Connection timed out
[1741611491.786366] [ohm:3508870:0]        ib_iface.c:1059 UCX  ERROR ibv_create_cq(cqe=256) failed: Connection timed out
[1741611491.792796] [ohm:3508866:0]        ib_iface.c:1059 UCX  ERROR ibv_create_cq(cqe=256) failed: Connection timed out
[1741611491.797516] [ohm:3508938:0]        ib_iface.c:1059 UCX  ERROR ibv_create_cq(cqe=256) failed: Connection timed out
[1741611491.800075] [ohm:3508957:0]        ib_iface.c:1059 UCX  ERROR ibv_create_cq(cqe=256) failed: Connection timed out
[1741611491.802483] [ohm:3508943:0]        ib_iface.c:1059 UCX  ERROR ibv_create_cq(cqe=256) failed: Connection timed out
[1741611491.804661] [ohm:3508965:0]        ib_iface.c:1059 UCX  ERROR ibv_create_cq(cqe=256) failed: Connection timed out
[1741611491.806326] [ohm:3508941:0]        ib_iface.c:1059 UCX  ERROR ibv_create_cq(cqe=256) failed: Connection timed out
[1741611491.807187] [ohm:3508861:0]        ib_iface.c:1059 UCX  ERROR ibv_create_cq(cqe=256) failed: Connection timed out
[1741611491.812292] [ohm:3508901:0]        ib_iface.c:1059 UCX  ERROR ibv_create_cq(cqe=256) failed: Connection timed out
[1741611491.822741] [ohm:3508860:0]        ib_iface.c:1059 UCX  ERROR ibv_create_cq(cqe=256) failed: Connection timed out
[1741611491.829162] [ohm:3508969:0]        ib_iface.c:1059 UCX  ERROR ibv_create_cq(cqe=256) failed: Connection timed out
[1741611491.834934] [ohm:3508979:0]        ib_iface.c:1059 UCX  ERROR ibv_create_cq(cqe=256) failed: Connection timed out
[1741611491.835821] [ohm:3508859:0]        ib_iface.c:1059 UCX  ERROR ibv_create_cq(cqe=256) failed: Connection timed out
[1741611491.836803] [ohm:3508875:0]        ib_iface.c:1059 UCX  ERROR ibv_create_cq(cqe=256) failed: Connection timed out
[1741611491.838113] [ohm:3508891:0]        ib_iface.c:1059 UCX  ERROR ibv_create_cq(cqe=256) failed: Connection timed out
[1741611491.840854] [ohm:3508876:0]        ib_iface.c:1059 UCX  ERROR ibv_create_cq(cqe=256) failed: Connection timed out
[1741611491.840891] [ohm:3508986:0]        ib_iface.c:1059 UCX  ERROR ibv_create_cq(cqe=256) failed: Connection timed out
[1741611491.847978] [ohm:3508935:0]        ib_iface.c:1059 UCX  ERROR ibv_create_cq(cqe=256) failed: Connection timed out
[1741611491.848652] [ohm:3508987:0]        ib_iface.c:1059 UCX  ERROR ibv_create_cq(cqe=256) failed: Connection timed out
[1741611491.849924] [ohm:3508882:0]        ib_iface.c:1059 UCX  ERROR ibv_create_cq(cqe=256) failed: Connection timed out
[1741611491.852981] [ohm:3508905:0]        ib_iface.c:1059 UCX  ERROR ibv_create_cq(cqe=256) failed: Connection timed out
[1741611491.853400] [ohm:3508888:0]        ib_iface.c:1059 UCX  ERROR ibv_create_cq(cqe=256) failed: Connection timed out
[1741611491.854474] [ohm:3508964:0]        ib_iface.c:1059 UCX  ERROR ibv_create_cq(cqe=256) failed: Connection timed out
[1741611491.855836] [ohm:3508992:0]        ib_iface.c:1059 UCX  ERROR ibv_create_cq(cqe=256) failed: Connection timed out
[1741611491.855885] [ohm:3508852:0]        ib_iface.c:1059 UCX  ERROR ibv_create_cq(cqe=256) failed: Connection timed out
[1741611491.858273] [ohm:3508877:0]        ib_iface.c:1059 UCX  ERROR ibv_create_cq(cqe=256) failed: Connection timed out
[1741611491.858296] [ohm:3508908:0]        ib_iface.c:1059 UCX  ERROR ibv_create_cq(cqe=256) failed: Connection timed out
[1741611491.859370] [ohm:3508972:0]        ib_iface.c:1059 UCX  ERROR ibv_create_cq(cqe=256) failed: Connection timed out
[1741611491.859468] [ohm:3508994:0]        ib_iface.c:1059 UCX  ERROR ibv_create_cq(cqe=256) failed: Connection timed out
[1741611491.859651] [ohm:3508868:0]        ib_iface.c:1059 UCX  ERROR ibv_create_cq(cqe=256) failed: Connection timed out


           ************************************************************
           *        Program running with 64 parallel MPI-processes    *
           *              working on a common directory               *
           ************************************************************

-------------------------------------------------------------------------------------------
                                      ORCA LEAN-SCF
                              memory conserving SCF solver
-------------------------------------------------------------------------------------------

----------------------------------------D-I-I-S--------------------------------------------
Iteration    Energy (Eh)           Delta-E    RMSDP     MaxDP     DIISErr   Damp  Time(sec)
-------------------------------------------------------------------------------------------
               ***  Starting incremental Fock matrix formation  ***
    1    -153.7072394265037190     0.00e+00  8.33e-04  2.24e-02  6.94e-02  0.700   0.3
    2    -153.7310446669663975    -2.38e-02  7.35e-04  1.95e-02  3.90e-02  0.700   0.3
                               ***Turning on AO-DIIS***
    3    -153.7444062565585909    -1.34e-02  5.92e-04  1.61e-02  2.18e-02  0.700   0.3
    4    -153.7528658951860336    -8.46e-03  1.49e-03  3.91e-02  1.76e-02  0.000   0.3
    5    -153.7734205520448256    -2.06e-02  1.61e-04  5.48e-03  6.41e-03  0.000   0.3
    6    -153.7740834275440136    -6.63e-04  1.02e-04  2.39e-03  3.68e-03  0.000   0.3
                              *** Initializing SOSCF ***
---------------------------------------S-O-S-C-F--------------------------------------
Iteration    Energy (Eh)           Delta-E    RMSDP     MaxDP     MaxGrad    Time(sec)
--------------------------------------------------------------------------------------
    7    -153.7744033675966477    -3.20e-04  5.80e-05  1.43e-03  2.82e-03     0.3
               *** Restarting incremental Fock matrix formation ***
    8    -153.7745364250002353    -1.33e-04  2.64e-05  5.74e-04  2.05e-03     0.3
    9    -153.7745727238245479    -3.63e-05  4.24e-05  1.30e-03  1.07e-03     0.3
   10    -153.7745920764835716    -1.94e-05  1.36e-05  4.93e-04  5.30e-04     0.3
   11    -153.7745947550920391    -2.68e-06  1.26e-05  5.19e-04  4.74e-04     0.3
   12    -153.7745980154379595    -3.26e-06  1.03e-04  4.46e-03  4.47e-04     0.3
   13    -153.7746134979061594    -1.55e-05  5.10e-05  2.30e-03  4.60e-04     0.3
   14    -153.7746187559068289    -5.26e-06  5.04e-05  2.09e-03  3.43e-04     0.3
   15    -153.7746223560013448    -3.60e-06  6.89e-06  2.48e-04  1.42e-04     0.3
   16    -153.7746227972477868    -4.41e-07  2.94e-06  9.38e-05  6.38e-05     0.2
   17    -153.7746228552737477    -5.80e-08  1.15e-06  3.21e-05  2.07e-05     0.2
   18    -153.7746228627018468    -7.43e-09  4.10e-07  1.03e-05  7.89e-06     0.3
                 **** Energy Check signals convergence ****

               *****************************************************
               *                     SUCCESS                       *
               *           SCF CONVERGED AFTER  18 CYCLES          *
               *****************************************************

Recomputing exchange energy using gridx3       ... done (    0.172 sec)
Old exchange energy                            :     -6.189339684 Eh
New exchange energy                            :     -6.189347866 Eh
Exchange energy change after final integration :     -0.000008182 Eh
Total energy after final integration           :   -153.774631044 Eh
             **** ENERGY FILE WAS UPDATED (orca.en.tmp) ****

----------------
TOTAL SCF ENERGY
----------------

Total Energy       :       -153.77463104442035 Eh           -4184.42044 eV

Components:
Nuclear Repulsion  :         67.34857060293683 Eh            1832.64778 eV
Electronic Energy  :       -221.12319346563868 Eh           -6017.06800 eV
One Electron Energy:       -341.25718957888387 Eh           -9286.08022 eV
Two Electron Energy:        120.13399611324519 Eh            3269.01223 eV

Virial components:
Potential Energy   :       -306.94577479112877 Eh           -8352.41916 eV
Kinetic Energy     :        153.17114374670840 Eh            4167.99872 eV
Virial Ratio       :          2.00393995424301

DFT components:
N(Alpha)           :       12.999987253970 electrons
N(Beta)            :       10.999981730113 electrons
N(Total)           :       23.999968984083 electrons
E(XC)              :      -14.667619494703 Eh       

---------------
SCF CONVERGENCE
---------------

  Last Energy change         ...    7.4281e-09  Tolerance :   1.0000e-08
  Last MAX-Density change    ...    1.0321e-05  Tolerance :   1.0000e-07
  Last RMS-Density change    ...    4.0957e-07  Tolerance :   5.0000e-09
  Last DIIS Error            ...    2.8221e-03  Tolerance :   5.0000e-07
  Last Orbital Gradient      ...    7.8893e-06  Tolerance :   1.0000e-05
  Last Orbital Rotation      ...    4.2283e-05  Tolerance :   1.0000e-05


----------------------
UHF SPIN CONTAMINATION
----------------------

Warning: in a DFT calculation there is little theoretical justification to 
         calculate <S**2> as in Hartree-Fock theory. We will do it anyways
         but you should keep in mind that the values have only limited relevance

Expectation value of <S**2>     :     2.008593
Ideal value S*(S+1) for S=1.0   :     2.000000
Deviation                       :     0.008593

----------------
ORBITAL ENERGIES
----------------
                 SPIN UP ORBITALS
  NO   OCC          E(Eh)            E(eV) 
   0   1.0000     -19.390945      -527.6544 
   1   1.0000     -10.413580      -283.3679 
   2   1.0000     -10.381811      -282.5034 
   3   1.0000      -1.170000       -31.8373 
   4   1.0000      -0.873156       -23.7598 
   5   1.0000      -0.733156       -19.9502 
   6   1.0000      -0.619961       -16.8700 
   7   1.0000      -0.583696       -15.8832 
   8   1.0000      -0.552973       -15.0472 
   9   1.0000      -0.505374       -13.7519 
  10   1.0000      -0.436667       -11.8823 
  11   1.0000      -0.417213       -11.3529 
  12   1.0000      -0.328082        -8.9276 
  13   0.0000       0.040776         1.1096 
  14   0.0000       0.059864         1.6290 
  15   0.0000       0.076916         2.0930 
  16   0.0000       0.088331         2.4036 
  17   0.0000       0.112888         3.0718 
  18   0.0000       0.122640         3.3372 
  19   0.0000       0.134294         3.6543 
  20   0.0000       0.137333         3.7370 
  21   0.0000       0.174770         4.7557 
  22   0.0000       0.188742         5.1359 
  23   0.0000       0.202583         5.5126 

                 SPIN DOWN ORBITALS
  NO   OCC          E(Eh)            E(eV) 
   0   1.0000     -19.366633      -526.9929 
   1   1.0000     -10.414938      -283.4049 
   2   1.0000     -10.368098      -282.1303 
   3   1.0000      -1.115458       -30.3532 
   4   1.0000      -0.840877       -22.8814 
   5   1.0000      -0.705423       -19.1955 
   6   1.0000      -0.589492       -16.0409 
   7   1.0000      -0.543195       -14.7811 
   8   1.0000      -0.529628       -14.4119 
   9   1.0000      -0.478676       -13.0254 
  10   1.0000      -0.386537       -10.5182 
  11   0.0000      -0.053623        -1.4592 
  12   0.0000      -0.004204        -0.1144 
  13   0.0000       0.040685         1.1071 
  14   0.0000       0.060709         1.6520 
  15   0.0000       0.077252         2.1021 
  16   0.0000       0.090259         2.4561 
  17   0.0000       0.114194         3.1074 
  18   0.0000       0.125291         3.4093 
  19   0.0000       0.136719         3.7203 
  20   0.0000       0.140704         3.8287 
  21   0.0000       0.181462         4.9378 
*Only the first 10 virtual orbitals were printed.

                    ********************************
                    * MULLIKEN POPULATION ANALYSIS *
                    ********************************

--------------------------------------------
MULLIKEN ATOMIC CHARGES AND SPIN POPULATIONS
--------------------------------------------
   0 O :   -0.332978    0.930643
   1 C :    0.065223   -0.005989
   2 C :   -0.574795    0.903087
   3 H :    0.222922    0.029376
   4 H :    0.158300    0.115369
   5 H :    0.204110    0.007331
   6 H :    0.257219    0.020184
Sum of atomic charges         :   -0.0000000
Sum of atomic spin populations:    2.0000000

-----------------------------------------------------
MULLIKEN REDUCED ORBITAL CHARGES AND SPIN POPULATIONS
-----------------------------------------------------
CHARGE
  0 O s       :     4.001959  s :     4.001959
      pz      :     1.293611  p :     4.308202
      px      :     1.647403
      py      :     1.367188
      dz2     :     0.002751  d :     0.021573
      dxz     :     0.003081
      dyz     :     0.004637
      dx2y2   :     0.005217
      dxy     :     0.005887
      f0      :     0.000112  f :     0.001244
      f+1     :     0.000063
      f-1     :     0.000155
      f+2     :     0.000059
      f-2     :     0.000216
      f+3     :     0.000379
      f-3     :     0.000259

  1 C s       :     3.189447  s :     3.189447
      pz      :     0.892501  p :     2.564890
      px      :     0.884708
      py      :     0.787680
      dz2     :     0.037637  d :     0.170166
      dxz     :     0.016518
      dyz     :     0.015569
      dx2y2   :     0.061154
      dxy     :     0.039287
      f0      :     0.001093  f :     0.010275
      f+1     :     0.001266
      f-1     :     0.000866
      f+2     :     0.000952
      f-2     :     0.001546
      f+3     :     0.001657
      f-3     :     0.002894

  2 C s       :     3.573031  s :     3.573031
      pz      :     0.938216  p :     2.971052
      px      :     0.965780
      py      :     1.067057
      dz2     :    -0.000165  d :     0.026876
      dxz     :    -0.000888
      dyz     :     0.010188
      dx2y2   :     0.001954
      dxy     :     0.015787
      f0      :     0.000643  f :     0.003836
      f+1     :     0.000700
      f-1     :     0.000310
      f+2     :     0.000811
      f-2     :     0.000713
      f+3     :     0.000293
      f-3     :     0.000367

  3 H s       :     0.731884  s :     0.731884
      pz      :     0.007832  p :     0.042495
      px      :     0.014752
      py      :     0.019910
      dz2     :     0.000247  d :     0.002700
      dxz     :     0.000336
      dyz     :     0.000606
      dx2y2   :     0.000884
      dxy     :     0.000627

  4 H s       :     0.802195  s :     0.802195
      pz      :     0.016499  p :     0.036880
      px      :     0.012112
      py      :     0.008269
      dz2     :     0.000693  d :     0.002624
      dxz     :     0.000758
      dyz     :     0.000554
      dx2y2   :     0.000239
      dxy     :     0.000379

  5 H s       :     0.763249  s :     0.763249
      pz      :     0.013607  p :     0.030610
      px      :     0.010718
      py      :     0.006285
      dz2     :     0.000348  d :     0.002031
      dxz     :     0.000169
      dyz     :     0.000581
      dx2y2   :     0.000458
      dxy     :     0.000474

  6 H s       :     0.698745  s :     0.698745
      pz      :     0.017481  p :     0.041837
      px      :     0.016550
      py      :     0.007806
      dz2     :     0.000358  d :     0.002199
      dxz     :     0.000399
      dyz     :     0.000346
      dx2y2   :     0.000678
      dxy     :     0.000419


SPIN
  0 O s       :     0.006467  s :     0.006467
      pz      :     0.634221  p :     0.928837
      px      :     0.156495
      py      :     0.138121
      dz2     :    -0.000137  d :    -0.004488
      dxz     :    -0.001893
      dyz     :    -0.001477
      dx2y2   :    -0.001067
      dxy     :     0.000085
      f0      :    -0.000027  f :    -0.000173
      f+1     :    -0.000004
      f-1     :    -0.000067
      f+2     :    -0.000008
      f-2     :    -0.000005
      f+3     :    -0.000049
      f-3     :    -0.000014

  1 C s       :     0.007904  s :     0.007904
      pz      :    -0.029189  p :    -0.080625
      px      :    -0.031181
      py      :    -0.020255
      dz2     :     0.032975  d :     0.063801
      dxz     :     0.017125
      dyz     :     0.001241
      dx2y2   :     0.008540
      dxy     :     0.003920
      f0      :     0.000901  f :     0.002930
      f+1     :     0.000271
      f-1     :     0.000273
      f+2     :     0.000107
      f-2     :     0.000718
      f+3     :     0.000182
      f-3     :     0.000478

  2 C s       :    -0.015296  s :    -0.015296
      pz      :     0.374270  p :     0.931806
      px      :     0.411419
      py      :     0.146117
      dz2     :    -0.002236  d :    -0.012483
      dxz     :    -0.001671
      dyz     :    -0.002150
      dx2y2   :    -0.001087
      dxy     :    -0.005340
      f0      :    -0.000119  f :    -0.000940
      f+1     :    -0.000217
      f-1     :    -0.000059
      f+2     :    -0.000245
      f-2     :    -0.000133
      f+3     :    -0.000102
      f-3     :    -0.000065

  3 H s       :     0.026859  s :     0.026859
      pz      :    -0.002661  p :     0.002561
      px      :     0.000682
      py      :     0.004540
      dz2     :     0.000004  d :    -0.000044
      dxz     :     0.000014
      dyz     :    -0.000028
      dx2y2   :    -0.000026
      dxy     :    -0.000008

  4 H s       :     0.105596  s :     0.105596
      pz      :     0.002797  p :     0.009628
      px      :     0.004966
      py      :     0.001865
      dz2     :     0.000031  d :     0.000145
      dxz     :     0.000042
      dyz     :     0.000023
      dx2y2   :    -0.000006
      dxy     :     0.000055

  5 H s       :    -0.014207  s :    -0.014207
      pz      :     0.010189  p :     0.020745
      px      :     0.009154
      py      :     0.001402
      dz2     :     0.000216  d :     0.000793
      dxz     :     0.000124
      dyz     :     0.000055
      dx2y2   :     0.000129
      dxy     :     0.000269

  6 H s       :    -0.002276  s :    -0.002276
      pz      :     0.010306  p :     0.021459
      px      :     0.008399
      py      :     0.002753
      dz2     :     0.000196  d :     0.001002
      dxz     :     0.000045
      dyz     :     0.000232
      dx2y2   :     0.000487
      dxy     :     0.000041



                     *******************************
                     * LOEWDIN POPULATION ANALYSIS *
                     *******************************

-------------------------------------------
LOEWDIN ATOMIC CHARGES AND SPIN POPULATIONS
-------------------------------------------
   0 O :    0.056342    0.870376
   1 C :   -0.254957    0.194969
   2 C :    0.213938    0.703830
   3 H :   -0.031776    0.009141
   4 H :    0.058341    0.086692
   5 H :    0.012461    0.060671
   6 H :   -0.054350    0.074321

----------------------------------------------------
LOEWDIN REDUCED ORBITAL CHARGES AND SPIN POPULATIONS
----------------------------------------------------
CHARGE
  0 O s       :     3.478637  s :     3.478637
      pz      :     1.204046  p :     4.202355
      px      :     1.567959
      py      :     1.430349
      dz2     :     0.023656  d :     0.258694
      dxz     :     0.035712
      dyz     :     0.057635
      dx2y2   :     0.071427
      dxy     :     0.070265
      f0      :     0.000462  f :     0.003972
      f+1     :     0.000191
      f-1     :     0.000486
      f+2     :     0.000190
      f-2     :     0.000720
      f+3     :     0.000895
      f-3     :     0.001027

  1 C s       :     2.648087  s :     2.648087
      pz      :     0.880178  p :     2.602561
      px      :     0.867449
      py      :     0.854934
      dz2     :     0.159695  d :     0.921229
      dxz     :     0.155623
      dyz     :     0.167387
      dx2y2   :     0.196655
      dxy     :     0.241869
      f0      :     0.009048  f :     0.083080
      f+1     :     0.009350
      f-1     :     0.011082
      f+2     :     0.010095
      f-2     :     0.010159
      f+3     :     0.015582
      f-3     :     0.017764

  2 C s       :     2.766683  s :     2.766683
      pz      :     0.847727  p :     2.603169
      px      :     0.843184
      py      :     0.912259
      dz2     :     0.077189  d :     0.395859
      dxz     :     0.086864
      dyz     :     0.094449
      dx2y2   :     0.068224
      dxy     :     0.069133
      f0      :     0.003926  f :     0.020350
      f+1     :     0.003222
      f-1     :     0.001662
      f+2     :     0.003884
      f-2     :     0.004045
      f+3     :     0.001565
      f-3     :     0.002046

  3 H s       :     0.705283  s :     0.705283
      pz      :     0.085649  p :     0.290404
      px      :     0.090904
      py      :     0.113851
      dz2     :     0.003923  d :     0.036089
      dxz     :     0.004408
      dyz     :     0.008428
      dx2y2   :     0.009723
      dxy     :     0.009608

  4 H s       :     0.658189  s :     0.658189
      pz      :     0.108601  p :     0.255441
      px      :     0.083678
      py      :     0.063163
      dz2     :     0.008712  d :     0.028029
      dxz     :     0.008268
      dyz     :     0.005448
      dx2y2   :     0.002305
      dxy     :     0.003295

  5 H s       :     0.719469  s :     0.719469
      pz      :     0.071828  p :     0.246624
      px      :     0.062284
      py      :     0.112512
      dz2     :     0.003353  d :     0.021446
      dxz     :     0.001470
      dyz     :     0.006866
      dx2y2   :     0.005261
      dxy     :     0.004495

  6 H s       :     0.734989  s :     0.734989
      pz      :     0.079567  p :     0.290189
      px      :     0.102260
      py      :     0.108362
      dz2     :     0.004229  d :     0.029171
      dxz     :     0.005467
      dyz     :     0.004919
      dx2y2   :     0.007308
      dxy     :     0.007248


SPIN
  0 O s       :     0.016666  s :     0.016666
      pz      :     0.573444  p :     0.838115
      px      :     0.145798
      py      :     0.118873
      dz2     :     0.001733  d :     0.015591
      dxz     :     0.005682
      dyz     :     0.005240
      dx2y2   :     0.001855
      dxy     :     0.001081
      f0      :     0.000037  f :     0.000005
      f+1     :    -0.000016
      f-1     :    -0.000026
      f+2     :    -0.000019
      f-2     :     0.000074
      f+3     :    -0.000084
      f-3     :     0.000039

  1 C s       :    -0.002989  s :    -0.002989
      pz      :    -0.004495  p :    -0.016812
      px      :    -0.007520
      py      :    -0.004796
      dz2     :     0.089306  d :     0.191226
      dxz     :     0.050350
      dyz     :     0.014755
      dx2y2   :     0.021397
      dxy     :     0.015418
      f0      :     0.006250  f :     0.023543
      f+1     :     0.002266
      f-1     :     0.002600
      f+2     :     0.001773
      f-2     :     0.004788
      f+3     :     0.001829
      f-3     :     0.004038

  2 C s       :     0.016962  s :     0.016962
      pz      :     0.260211  p :     0.690870
      px      :     0.312016
      py      :     0.118643
      dz2     :     0.002336  d :    -0.003301
      dxz     :    -0.001193
      dyz     :    -0.001710
      dx2y2   :    -0.002289
      dxy     :    -0.000446
      f0      :    -0.000010  f :    -0.000701
      f+1     :    -0.000126
      f-1     :    -0.000009
      f+2     :    -0.000268
      f-2     :    -0.000107
      f+3     :    -0.000103
      f-3     :    -0.000078

  3 H s       :     0.007085  s :     0.007085
      pz      :    -0.000939  p :     0.002345
      px      :     0.000831
      py      :     0.002452
      dz2     :    -0.000017  d :    -0.000289
      dxz     :     0.000216
      dyz     :    -0.000031
      dx2y2   :    -0.000369
      dxy     :    -0.000088

  4 H s       :     0.074424  s :     0.074424
      pz      :     0.003432  p :     0.012598
      px      :     0.003994
      py      :     0.005172
      dz2     :    -0.000123  d :    -0.000330
      dxz     :    -0.000203
      dyz     :    -0.000040
      dx2y2   :    -0.000079
      dxy     :     0.000114

  5 H s       :    -0.014083  s :    -0.014083
      pz      :     0.025958  p :     0.067684
      px      :     0.028814
      py      :     0.012912
      dz2     :     0.001677  d :     0.007071
      dxz     :     0.000970
      dyz     :     0.001012
      dx2y2   :     0.001463
      dxy     :     0.001950

  6 H s       :    -0.013569  s :    -0.013569
      pz      :     0.027976  p :     0.077748
      px      :     0.036317
      py      :     0.013454
      dz2     :     0.001734  d :     0.010142
      dxz     :     0.000434
      dyz     :     0.002663
      dx2y2   :     0.004724
      dxy     :     0.000587



                      *****************************
                      * MAYER POPULATION ANALYSIS *
                      *****************************

  NA   - Mulliken gross atomic population
  ZA   - Total nuclear charge
  QA   - Mulliken gross atomic charge
  VA   - Mayer's total valence
  BVA  - Mayer's bonded valence
  FA   - Mayer's free valence

  ATOM       NA         ZA         QA         VA         BVA        FA
  0 O      8.3330     8.0000    -0.3330     1.8403     1.0719     0.7684
  1 C      5.9348     6.0000     0.0652     3.5314     3.5175     0.0139
  2 C      6.5748     6.0000    -0.5748     3.5388     2.7608     0.7780
  3 H      0.7771     1.0000     0.2229     1.0266     1.0260     0.0005
  4 H      0.8417     1.0000     0.1583     1.0301     1.0186     0.0116
  5 H      0.7959     1.0000     0.2041     0.9576     0.9572     0.0003
  6 H      0.7428     1.0000     0.2572     0.9616     0.9617    -0.0001

  Mayer bond orders larger than 0.100000
B(  0-O ,  1-C ) :   0.8761 B(  1-C ,  2-C ) :   0.7520 B(  1-C ,  3-H ) :   0.9996 
B(  1-C ,  4-H ) :   0.9389 B(  2-C ,  5-H ) :   0.9809 B(  2-C ,  6-H ) :   0.9528 


-------
TIMINGS
-------

Total SCF time: 0 days 0 hours 0 min 7 sec 

Total time                  ....       7.074 sec
Sum of individual times     ....       7.043 sec  ( 99.6%)

SCF preparation             ....       1.699 sec  ( 24.0%)
Fock matrix formation       ....       4.112 sec  ( 58.1%)
  Startup                   ....       0.076 sec  (  1.9% of F)
  Split-RI-J                ....       0.418 sec  ( 10.2% of F)
  Chain of spheres X        ....       2.337 sec  ( 56.8% of F)
  XC integration            ....       1.028 sec  ( 25.0% of F)
    XC Preparation          ....       0.000 sec  (  0.0% of XC)
    Basis function eval.    ....       0.058 sec  (  5.7% of XC)
    Density eval.           ....       0.217 sec  ( 21.1% of XC)
    XC-Functional eval.     ....       0.014 sec  (  1.3% of XC)
    XC-Potential eval.      ....       0.324 sec  ( 31.6% of XC)
Diagonalization             ....       0.000 sec  (  0.0%)
Density matrix formation    ....       0.159 sec  (  2.2%)
Total Energy calculation    ....       0.120 sec  (  1.7%)
Population analysis         ....       0.039 sec  (  0.5%)
Orbital Transformation      ....       0.094 sec  (  1.3%)
Orbital Orthonormalization  ....       0.000 sec  (  0.0%)
DIIS solution               ....       0.487 sec  (  6.9%)
SOSCF solution              ....       0.327 sec  (  4.6%)
[...]
[1741611509.690687] [ohm:3510075:0]        ib_iface.c:1059 UCX  ERROR ibv_create_cq(cqe=256) failed: Connection timed out
[1741611509.691691] [ohm:3510056:0]        ib_iface.c:1059 UCX  ERROR ibv_create_cq(cqe=256) failed: Connection timed out
[1741611509.691912] [ohm:3510003:0]        ib_iface.c:1059 UCX  ERROR ibv_create_cq(cqe=256) failed: Connection timed out
[1741611509.692329] [ohm:3509944:0]        ib_iface.c:1059 UCX  ERROR ibv_create_cq(cqe=256) failed: Connection timed out
[1741611509.693275] [ohm:3510012:0]        ib_iface.c:1059 UCX  ERROR ibv_create_cq(cqe=256) failed: Connection timed out
[1741611509.698053] [ohm:3510042:0]        ib_iface.c:1059 UCX  ERROR ibv_create_cq(cqe=256) failed: Connection timed out
[1741611509.698420] [ohm:3510050:0]        ib_iface.c:1059 UCX  ERROR ibv_create_cq(cqe=256) failed: Connection timed out
[1741611509.700225] [ohm:3510083:0]        ib_iface.c:1059 UCX  ERROR ibv_create_cq(cqe=256) failed: Connection timed out
[1741611509.700472] [ohm:3509993:0]        ib_iface.c:1059 UCX  ERROR ibv_create_cq(cqe=256) failed: Connection timed out
[1741611509.700581] [ohm:3509936:0]        ib_iface.c:1059 UCX  ERROR ibv_create_cq(cqe=256) failed: Connection timed out


           ************************************************************
           *        Program running with 64 parallel MPI-processes    *
           *              working on a common directory               *
           ************************************************************

------------------------------------------------------------------------------
                              ORCA PROPERTY CALCULATIONS
------------------------------------------------------------------------------

GBWName                                 ... orca.gbw
Number of atoms                         ...      7
Number of basis functions               ...    182
Max core memory                         ...   1024 MB

Electric properties:
Dipole moment                           ... YES
Quadrupole moment                       ...  NO
Static polarizability (Dipole/Dipole)   ...  NO
Static polarizability (Dipole/Quad.)    ...  NO
Static polarizability (Quad./Quad.)     ...  NO
Static polarizability (Velocity)        ...  NO

Atomic electric properties:
Dipole moment                           ...  NO
Quadrupole moment                       ...  NO
Static polarizability                   ...  NO

Choice of electric origin               ... Center of mass
Position of electric origin             ...     0.755747     0.124507     0.138129

General magnetic properties:
Magnetizability                         ...  NO

EPR properties:
g-Tensor (aka g-matrix)                 ...  NO
Zero-Field splitting spin-orbit         ...  NO
Zero-field splitting spin-spin          ...  NO
Hyperfine couplings                     ...  NO (   0 nuclei)
Quadrupole couplings                    ...  NO (   0 nuclei)
Contact density                         ...  NO (   0 nuclei)

NMR properties:
Chemical shifts                         ...  NO (   0 nuclei)
Spin-rotation constants                 ...  NO (   0 nuclei)
Spin-spin couplings                     ...  NO (   0 nuclei,    0 pairs)

Choice of magnetic origin               ... GIAO
Position of magnetic origin             ...     0.000000     0.000000     0.000000

Properties with geometric perturbations:
SCF Hessian                             ...  NO
IR spectrum                             ...  NO
VCD spectrum                            ...  NO
X-ray spectroscopy properties:
SCF XES/XAS/RIXS spectra                ...  NO


-------------
DIPOLE MOMENT
-------------

Method             : SCF
Type of density    : Electron Density
Multiplicity       :   3
Irrep              :   0
Energy             :  -153.7746310444203459 Eh
Relativity type    : 
Basis              : AO
                                X                 Y                 Z
Electronic contribution:      1.715499264      -2.039682027       0.503203842
Nuclear contribution   :     -2.121165845       2.652499615      -0.335326800
                        -----------------------------------------
Total Dipole Moment    :     -0.405666582       0.612817588       0.167877042
                        -----------------------------------------
Magnitude (a.u.)       :      0.753852422
Magnitude (Debye)      :      1.916140578



--------------------
Rotational spectrum 
--------------------
 
Rotational constants in cm-1:             1.395487             0.346660             0.304911 
Rotational constants in MHz :         41835.646788         10392.613239          9141.001262 

Dipole components along the rotational axes: 
x,y,z [a.u.] :     0.584369     0.462513     0.113526 
x,y,z [Debye]:     1.485348     1.175614     0.288560 

 

-------------
DIPOLE MOMENT
-------------

Method             : TDA/CIS
Type of density    : Electron Density
Level              : Relaxed density
State              :   2
Multiplicity       :   3
Irrep              :   0
Energy             :     0.0000000000000000 Eh
Relativity type    : 
Basis              : AO
                                X                 Y                 Z
Electronic contribution:      1.777799485      -2.023884700       0.518922377
Nuclear contribution   :     -2.121165845       2.652499615      -0.335326800
                        -----------------------------------------
Total Dipole Moment    :     -0.343366361       0.628614915       0.183595578
                        -----------------------------------------
Magnitude (a.u.)       :      0.739435261
Magnitude (Debye)      :      1.879495068



--------------------
Rotational spectrum 
--------------------
 
Rotational constants in cm-1:             1.395487             0.346660             0.304911 
Rotational constants in MHz :         41835.646788         10392.613239          9141.001262 

Dipole components along the rotational axes: 
x,y,z [a.u.] :     0.546719     0.493117     0.068539 
x,y,z [Debye]:     1.389650     1.253405     0.174213 

 

Dipole moment calculation done in   0.0 sec 

Maximum memory used throughout the entire PROP-calculation: 7.4 MB
[1741611511.461481] [ohm:3510276:0]        ib_iface.c:1059 UCX  ERROR ibv_create_cq(cqe=256) failed: Connection timed out
[1741611511.467703] [ohm:3510277:0]        ib_iface.c:1059 UCX  ERROR ibv_create_cq(cqe=256) failed: Connection timed out
[1741611511.474923] [ohm:3510285:0]        ib_iface.c:1059 UCX  ERROR ibv_create_cq(cqe=256) failed: Connection timed out
[1741611511.484104] [ohm:3510271:0]        ib_iface.c:1059 UCX  ERROR ibv_create_cq(cqe=256) failed: Connection timed out
[1741611511.484713] [ohm:3510283:0]        ib_iface.c:1059 UCX  ERROR ibv_create_cq(cqe=256) failed: Connection timed out
[1741611511.487844] [ohm:3510268:0]        ib_iface.c:1059 UCX  ERROR ibv_create_cq(cqe=256) failed: Connection timed out
[1741611511.492477] [ohm:3510267:0]        ib_iface.c:1059 UCX  ERROR ibv_create_cq(cqe=256) failed: Connection timed out
[1741611511.495772] [ohm:3510282:0]        ib_iface.c:1059 UCX  ERROR ibv_create_cq(cqe=256) failed: Connection timed out
[1741611511.496801] [ohm:3510292:0]        ib_iface.c:1059 UCX  ERROR ibv_create_cq(cqe=256) failed: Connection timed out
[1741611511.498374] [ohm:3510270:0]        ib_iface.c:1059 UCX  ERROR ibv_create_cq(cqe=256) failed: Connection timed out
[1741611511.515202] [ohm:3510269:0]        ib_iface.c:1059 UCX  ERROR ibv_create_cq(cqe=256) failed: Connection timed out
[1741611511.522707] [ohm:3510274:0]        ib_iface.c:1059 UCX  ERROR ibv_create_cq(cqe=256) failed: Connection timed out
[1741611511.530419] [ohm:3510275:0]        ib_iface.c:1059 UCX  ERROR ibv_create_cq(cqe=256) failed: Connection timed out
[1741611511.530477] [ohm:3510291:0]        ib_iface.c:1059 UCX  ERROR ibv_create_cq(cqe=256) failed: Connection timed out
[1741611511.535572] [ohm:3510295:0]        ib_iface.c:1059 UCX  ERROR ibv_create_cq(cqe=256) failed: Connection timed out
[1741611511.582839] [ohm:3510300:0]        ib_iface.c:1059 UCX  ERROR ibv_create_cq(cqe=256) failed: Connection timed out
[1741611511.626190] [ohm:3510308:0]        ib_iface.c:1059 UCX  ERROR ibv_create_cq(cqe=256) failed: Connection timed out
[1741611511.632373] [ohm:3510296:0]        ib_iface.c:1059 UCX  ERROR ibv_create_cq(cqe=256) failed: Connection timed out
[1741611511.644864] [ohm:3510317:0]        ib_iface.c:1059 UCX  ERROR ibv_create_cq(cqe=256) failed: Connection timed out
[1741611511.654369] [ohm:3510316:0]        ib_iface.c:1059 UCX  ERROR ibv_create_cq(cqe=256) failed: Connection timed out
[1741611511.656477] [ohm:3510322:0]        ib_iface.c:1059 UCX  ERROR ibv_create_cq(cqe=256) failed: Connection timed out
[1741611511.657994] [ohm:3510303:0]        ib_iface.c:1059 UCX  ERROR ibv_create_cq(cqe=256) failed: Connection timed out
[1741611511.662028] [ohm:3510319:0]        ib_iface.c:1059 UCX  ERROR ibv_create_cq(cqe=256) failed: Connection timed out
[1741611511.662070] [ohm:3510356:0]        ib_iface.c:1059 UCX  ERROR ibv_create_cq(cqe=256) failed: Connection timed out
[1741611511.662650] [ohm:3510390:0]        ib_iface.c:1059 UCX  ERROR ibv_create_cq(cqe=256) failed: Connection timed out
[1741611511.664736] [ohm:3510318:0]        ib_iface.c:1059 UCX  ERROR ibv_create_cq(cqe=256) failed: Connection timed out
[1741611511.665305] [ohm:3510323:0]        ib_iface.c:1059 UCX  ERROR ibv_create_cq(cqe=256) failed: Connection timed out
[1741611511.665613] [ohm:3510313:0]        ib_iface.c:1059 UCX  ERROR ibv_create_cq(cqe=256) failed: Connection timed out
[1741611511.665767] [ohm:3510357:0]        ib_iface.c:1059 UCX  ERROR ibv_create_cq(cqe=256) failed: Connection timed out
[1741611511.672579] [ohm:3510321:0]        ib_iface.c:1059 UCX  ERROR ibv_create_cq(cqe=256) failed: Connection timed out
[1741611511.672912] [ohm:3510297:0]        ib_iface.c:1059 UCX  ERROR ibv_create_cq(cqe=256) failed: Connection timed out
[1741611511.673881] [ohm:3510340:0]        ib_iface.c:1059 UCX  ERROR ibv_create_cq(cqe=256) failed: Connection timed out
[1741611511.701466] [ohm:3510294:0]        ib_iface.c:1059 UCX  ERROR ibv_create_cq(cqe=256) failed: Connection timed out
[1741611511.704949] [ohm:3510370:0]        ib_iface.c:1059 UCX  ERROR ibv_create_cq(cqe=256) failed: Connection timed out
[1741611511.708406] [ohm:3510351:0]        ib_iface.c:1059 UCX  ERROR ibv_create_cq(cqe=256) failed: Connection timed out
[1741611511.715763] [ohm:3510290:0]        ib_iface.c:1059 UCX  ERROR ibv_create_cq(cqe=256) failed: Connection timed out
[1741611511.720650] [ohm:3510384:0]        ib_iface.c:1059 UCX  ERROR ibv_create_cq(cqe=256) failed: Connection timed out
[1741611511.724876] [ohm:3510315:0]        ib_iface.c:1059 UCX  ERROR ibv_create_cq(cqe=256) failed: Connection timed out
[1741611511.730641] [ohm:3510377:0]        ib_iface.c:1059 UCX  ERROR ibv_create_cq(cqe=256) failed: Connection timed out
[1741611511.740041] [ohm:3510397:0]        ib_iface.c:1059 UCX  ERROR ibv_create_cq(cqe=256) failed: Connection timed out
[1741611511.741206] [ohm:3510299:0]        ib_iface.c:1059 UCX  ERROR ibv_create_cq(cqe=256) failed: Connection timed out
[1741611511.742890] [ohm:3510366:0]        ib_iface.c:1059 UCX  ERROR ibv_create_cq(cqe=256) failed: Connection timed out
[1741611511.748541] [ohm:3510327:0]        ib_iface.c:1059 UCX  ERROR ibv_create_cq(cqe=256) failed: Connection timed out
[1741611511.749000] [ohm:3510389:0]        ib_iface.c:1059 UCX  ERROR ibv_create_cq(cqe=256) failed: Connection timed out
[1741611511.750173] [ohm:3510335:0]        ib_iface.c:1059 UCX  ERROR ibv_create_cq(cqe=256) failed: Connection timed out
[1741611511.750376] [ohm:3510355:0]        ib_iface.c:1059 UCX  ERROR ibv_create_cq(cqe=256) failed: Connection timed out
[1741611511.755826] [ohm:3510414:0]        ib_iface.c:1059 UCX  ERROR ibv_create_cq(cqe=256) failed: Connection timed out
[1741611511.757171] [ohm:3510362:0]        ib_iface.c:1059 UCX  ERROR ibv_create_cq(cqe=256) failed: Connection timed out
[1741611511.759470] [ohm:3510371:0]        ib_iface.c:1059 UCX  ERROR ibv_create_cq(cqe=256) failed: Connection timed out
[1741611511.766934] [ohm:3510359:0]        ib_iface.c:1059 UCX  ERROR ibv_create_cq(cqe=256) failed: Connection timed out
[1741611511.767194] [ohm:3510404:0]        ib_iface.c:1059 UCX  ERROR ibv_create_cq(cqe=256) failed: Connection timed out
[1741611511.769783] [ohm:3510395:0]        ib_iface.c:1059 UCX  ERROR ibv_create_cq(cqe=256) failed: Connection timed out
[1741611511.775202] [ohm:3510320:0]        ib_iface.c:1059 UCX  ERROR ibv_create_cq(cqe=256) failed: Connection timed out
[1741611511.781305] [ohm:3510364:0]        ib_iface.c:1059 UCX  ERROR ibv_create_cq(cqe=256) failed: Connection timed out
[1741611511.781975] [ohm:3510330:0]        ib_iface.c:1059 UCX  ERROR ibv_create_cq(cqe=256) failed: Connection timed out
[1741611511.782384] [ohm:3510408:0]        ib_iface.c:1059 UCX  ERROR ibv_create_cq(cqe=256) failed: Connection timed out
[1741611511.783587] [ohm:3510349:0]        ib_iface.c:1059 UCX  ERROR ibv_create_cq(cqe=256) failed: Connection timed out
[1741611511.783902] [ohm:3510326:0]        ib_iface.c:1059 UCX  ERROR ibv_create_cq(cqe=256) failed: Connection timed out
[1741611511.786072] [ohm:3510379:0]        ib_iface.c:1059 UCX  ERROR ibv_create_cq(cqe=256) failed: Connection timed out
[1741611511.787902] [ohm:3510386:0]        ib_iface.c:1059 UCX  ERROR ibv_create_cq(cqe=256) failed: Connection timed out
[1741611511.789160] [ohm:3510343:0]        ib_iface.c:1059 UCX  ERROR ibv_create_cq(cqe=256) failed: Connection timed out
[1741611511.795200] [ohm:3510403:0]        ib_iface.c:1059 UCX  ERROR ibv_create_cq(cqe=256) failed: Connection timed out
[1741611511.798775] [ohm:3510352:0]        ib_iface.c:1059 UCX  ERROR ibv_create_cq(cqe=256) failed: Connection timed out
[1741611511.799553] [ohm:3510346:0]        ib_iface.c:1059 UCX  ERROR ibv_create_cq(cqe=256) failed: Connection timed out

--------------------------------
SUGGESTED CITATIONS FOR THIS RUN
--------------------------------

Below you find a list of papers that are relevant to this ORCA run
We neither can nor want to force you to cite these papers, but we appreciate if you do
You receive ORCA, which is the product of decades of hard work by many enthusiastic individuals, for free
The only thing we kindly ask in return is that you cite our papers,
We deeply appreciate it, if you show your appreciation for ORCA by not just citing the generic ORCA reference.

Please note that relegating all ORCA citations to the supporting information does *not* help us.
SI sections are not indexed - citations you put there will not count into any citation statistics
But we need these citations in order to attract the funding resources that allow us to do what we are doing

Therefore, if you are a happy ORCA user, please consider citing a few of the papers listed below in the main body of your paper

In addition to the list printed below, the program has created the file orca.bibtex that contains the list in bibtex format
You can import this file easily into all common literature databanks and citation aid programs


List of essential papers. We consider these as the minimum necessary citations

  1. Neese,F.
     Software update: the ORCA program system, version 5.0
     WIRES Comput. Molec. Sci., 2022 12(1)e1606
     doi.org/10.1002/wcms.1606

List of papers to cite with high priority. The work reported in these papers was absolutely
necessary for this run to complete.
Our perspective: the developers of density functionals and basis sets usually get cited in chemistry papers
Good! But without the algorithms to do something with them, the functionals or basis sets would not do anything.
Hence, in our opinion, the algorithm design and method developments papers are equally worthy of getting cited

  1. Neese,F.; Olbrich,G.
     Efficient use of the resolution of the identity approximation in time-dependent density functional calculations with hybrid density functionals
     Chem. Phys. Lett., 2002 362 170-178
     doi.org/10.1016/s0009-2614(02)01053-9
  2. Neese,F.
     An improvement of the resolution of the identity approximation for the formation of the Coulomb matrix
     J. Comp. Chem., 2003 24(14)1740-1747
     doi.org/10.1002/jcc.10318
  3. Neese,F.; Wennmohs,F.; Hansen,A.; Becker,U.
     Efficient, approximate and parallel Hartree-Fock and hybrid DFT calculations. A 'chain-of-spheres' algorithm for the Hartree-Fock exchange
     Chem. Phys., 2009 356(1-3)98-109
     doi.org/10.1016/j.chemphys.2008.10.036
  4. Petrenko,T.; Kossmann,S.; Neese,F.
     Efficient time-dependent density functional theory approximations for hybrid density functionals: Analytical gradients and parallelization
     J. Chem. Phys., 2011 134 054116
     doi.org/10.1063/1.3533441
  5. Helmich-Paris,B.; de Souza,B.; Neese,F.; Izsák,R.
     An improved chain of spheres for exchange algorithm
     J. Chem. Phys., 2021 155 104109
     doi.org/doi: 10.1063/5.0058766.
  6. Neese,F.
     The SHARK Integral Generation and Digestion System
     J. Comp. Chem., 2022  1-16
     doi.org/10.1002/jcc.26942
  7. Lehtola,S.; Steigemann,C.; Oliveira,M.; Marques,M.
     Recent developments in Libxc - A comprehensive library of functionals for density functional theory
     Software X, 2018 7 
     doi.org/10.1016/j.softx.2017.11.002
  8. Grimme,S.; Antony,J.; Ehrlich,S.; Krieg,H.
     A consistent and accurate ab initio parametrization of density functional dispersion correction (DFT-D) for the 94 elements H-Pu
     J. Chem. Phys., 2010 132 154104-XXXX
     doi.org/10.1063/1.3382344
  9. Grimme,S.; Ehrlich,S.; Goerigk,L.
     Effect of the damping function in dispersion corrected density functional theory
     J. Comput. Chem., 2011 32(7)1456-1465
     doi.org/10.1002/jcc.21759

List of suggested additional citations. These are papers that are important in the 'surrounding' of 
of this run, or papers that preceded the highly important papers. If you like your results we are grateful for a citation.

  1. Izsak,R.; Neese,F.
     An overlap fitted chain of spheres exchange method
     J. Chem. Phys., 2011 135 144105
     doi.org/10.1063/1.3646921
  2. Izsak,R.; Hansen,A.; Neese,F.
     The resolution of identity and chain of spheres approximations for the LPNO-CCSD singles Fock term
     Molec. Phys., 2012 110 2413-2417
     doi.org/10.1080/00268976.2012.687466
  3. Neese,F.
     The ORCA program system
     WIRES Comput. Molec. Sci., 2012 2(1)73-78
     doi.org/10.1002/wcms.81
  4. Izsak,R.; Neese,F.; Klopper,W.
     Robust fitting techniques in the chain of spheres approximation to the Fock exchange: The role of the complementary space
     J. Chem. Phys., 2013 139 
     doi.org/10.1063/1.4819264
  5. Neese,F.
     Software update: the ORCA program system, version 4.0
     WIRES Comput. Molec. Sci., 2018 8(1)1-6
     doi.org/10.1002/wcms.1327
  6. Neese,F.; Wennmohs,F.; Becker,U.; Riplinger,C.
     The ORCA quantum chemistry program package
     J. Chem. Phys., 2020 152 Art. No. L224108
     doi.org/10.1063/5.0004608

List of optional additional citations

  1. Neese,F.
     Approximate second-order SCF convergence for spin unrestricted wavefunctions
     Chem. Phys. Lett., 2000 325(1-3)93-98
     doi.org/10.1016/s0009-2614(00)00662-x

Timings for individual modules:

Sum of individual times          ...       24.561 sec (=   0.409 min)
Startup calculation              ...        2.496 sec (=   0.042 min)  10.2 %
SCF iterations                   ...        9.638 sec (=   0.161 min)  39.2 %
Property integrals               ...        2.084 sec (=   0.035 min)   8.5 %
Property calculations            ...        2.179 sec (=   0.036 min)   8.9 %
CIS module                       ...        8.164 sec (=   0.136 min)  33.2 %
                             ****ORCA TERMINATED NORMALLY****
TOTAL RUN TIME: 0 days 0 hours 0 minutes 26 seconds 692 msec
