
                                 *****************
                                 * O   R   C   A *
                                 *****************

                                            #,                                       
                                            ###                                      
                                            ####                                     
                                            #####                                    
                                            ######                                   
                                           ########,                                 
                                     ,,################,,,,,                         
                               ,,#################################,,                 
                          ,,##########################################,,             
                       ,#########################################, ''#####,          
                    ,#############################################,,   '####,        
                  ,##################################################,,,,####,       
                ,###########''''           ''''###############################       
              ,#####''   ,,,,##########,,,,          '''####'''          '####       
            ,##' ,,,,###########################,,,                        '##       
           ' ,,###''''                  '''############,,,                           
         ,,##''                                '''############,,,,        ,,,,,,###''
      ,#''                                            '''#######################'''  
     '                                                          ''''####''''         
             ,#######,   #######,   ,#######,      ##                                
            ,#'     '#,  ##    ##  ,#'     '#,    #''#        ,####,   ,####,        
            ##       ##  ##   ,#'  ##            #'  '#       #'       #'  '#        
            ##       ##  #######   ##           ,######,      #####,   #    #        
            '#,     ,#'  ##    ##  '#,     ,#' ,#      #,     #,   #   #,  ,#        
             '#######'   ##     ##  '#######'  #'      '#     '####' # '####'        



                #########################################################
                #                        -***-                          #
                #          Department of theory and spectroscopy        #
                #                                                       #
                #                      Frank Neese                      #
                #                                                       #
                #     Directorship, Architecture, Infrastructure        #
                #                    SHARK, DRIVERS                     #
                #        Core code/Algorithms in most modules           #
                #                                                       #
                #        Max Planck Institute fuer Kohlenforschung      #
                #                Kaiser Wilhelm Platz 1                 #
                #                 D-45470 Muelheim/Ruhr                 #
                #                      Germany                          #
                #                                                       #
                #                  All rights reserved                  #
                #                        -***-                          #
                #########################################################


                         Program Version 6.0.0  -   RELEASE  -


 With contributions from (in alphabetic order):
   Daniel Aravena         : Magnetic Suceptibility
   Michael Atanasov       : Ab Initio Ligand Field Theory (pilot matlab implementation)
   Alexander A. Auer      : GIAO ZORA, VPT2 properties, NMR spectrum
   Ute Becker             : All parallelization in ORCA, NUMFREQ, NUMCALC
   Giovanni Bistoni       : ED, misc. LED, open-shell LED, HFLD
   Martin Brehm           : Molecular dynamics
   Dmytro Bykov           : pre 5.0 version of the SCF Hessian
   Marcos Casanova-Páez   : Triplet and SCS-CIS(D). UHF-(DLPNO)-IP/EA/STEOM-CCSD. UHF-CVS-IP/STEOM-CCSD
   Vijay G. Chilkuri      : MRCI spin determinant printing, contributions to CSF-ICE
   Pauline Colinet        : FMM embedding
   Dipayan Datta          : RHF DLPNO-CCSD density
   Achintya Kumar Dutta   : EOM-CC, STEOM-CC
   Nicolas Foglia         : Exact transition moments, OPA infrastructure, MCD improvements
   Dmitry Ganyushin       : Spin-Orbit,Spin-Spin,Magnetic field MRCI
   Miquel Garcia          : C-PCM and meta-GGA Hessian, CCSD/C-PCM, Gaussian charge scheme
   Tiago L. C. Gouveia    : GS-ROHF, GS-ROCIS
   Yang Guo               : DLPNO-NEVPT2, F12-NEVPT2, CIM, IAO-localization
   Andreas Hansen         : Spin unrestricted coupled pair/coupled cluster methods
   Ingolf Harden          : AUTO-CI MPn and infrastructure 
   Benjamin Helmich-Paris : MC-RPA, TRAH-(SCF,CASSCF), AVAS, COSX integrals, SCF dyn. polar.
   Lee Huntington         : MR-EOM, pCC
   Robert Izsak           : Overlap fitted RIJCOSX, COSX-SCS-MP3, EOM
   Riya Kayal             : Wick's Theorem for AUTO-CI, AUTO-CI UHF-CCSDT
   Emily Kempfer          : AUTO-CI, RHF CISDT and CCSDT
   Christian Kollmar      : KDIIS, OOCD, Brueckner-CCSD(T), CCSD density, CASPT2, CASPT2-K, improved NEVPT2
   Axel Koslowski         : Symmetry handling
   Simone Kossmann        : Meta GGA functionals, TD-DFT gradient, OOMP2, (MP2 Hessian; deprecated post 5.0)
   Lucas Lang             : DCDCAS
   Marvin Lechner         : AUTO-CI (C++ implementation), FIC-MRCC
   Spencer Leger          : CASSCF response
   Dagmar Lenk            : GEPOL surface, SMD, ORCA-2-JSON
   Dimitrios Liakos       : Extrapolation schemes; Compound Job, initial MDCI parallelization
   Dimitrios Manganas     : Further ROCIS development; embedding schemes. LFT, Crystal Embedding
   Dimitrios Pantazis     : SARC Basis sets
   Anastasios Papadopoulos: AUTO-CI, single reference methods and gradients
   Taras Petrenko         : pre 6.0 DFT Hessian and TD-DFT gradient, (ASA, deprecated), ECA, 1-Electron XAS/XES, NRVS
   Peter Pinski           : DLPNO-MP2, DLPNO-MP2 Gradient
   Christoph Reimann      : Effective Core Potentials
   Marius Retegan         : Local ZFS, SOC
   Christoph Riplinger    : Optimizer, TS searches, QM/MM, DLPNO-CCSD(T), (RO)-DLPNO pert. Triples
   Michael Roemelt        : Original ROCIS implementation
   Masaaki Saitow         : Open-shell DLPNO-CCSD energy and density
   Barbara Sandhoefer     : DKH picture change effects
   Kantharuban Sivalingam : CASSCF convergence/infrastructure, NEVPT2 and variants, FIC-MRCI
   Bernardo de Souza      : ESD, SOC TD-DFT
   Georgi Stoychev        : AutoAux, RI-MP2 NMR, DLPNO-MP2 response, X2C
   Van Anh Tran           : RI-MP2 g-tensors
   Willem Van den Heuvel  : Paramagnetic NMR
   Zikuan Wang            : NOTCH, Electric field optimization 
   Frank Wennmohs         : Technical directorship and infrastructure
   Hang Xu                : AUTO-CI-Response properties 


 We gratefully acknowledge several colleagues who have allowed us to
 interface, adapt or use parts of their codes:
   Stefan Grimme, W. Hujo, H. Kruse, P. Pracht,  : VdW corrections, initial TS optimization,
                  C. Bannwarth, S. Ehlert,         DFT functionals, gCP, sTDA/sTD-DF
                  L. Wittmann, M. Mueller
   Ed Valeev, F. Pavosevic, A. Kumar             : LibInt (2-el integral package), F12 methods
   Garnet Chan, S. Sharma, J. Yang, R. Olivares  : DMRG
   Ulf Ekstrom                                   : XCFun DFT Library
   Mihaly Kallay                                 : mrcc  (arbitrary order and MRCC methods)
   Frank Weinhold                                : gennbo (NPA and NBO analysis)
   Simon Mueller                                 : openCOSMO-RS
   Christopher J. Cramer and Donald G. Truhlar   : smd solvation model
   Lars Goerigk                                  : TD-DFT with DH, B97 family of functionals
   V. Asgeirsson, H. Jonsson                     : NEB implementation
   FAccTs GmbH                                   : IRC, NEB, NEB-TS, DLPNO-Multilevel, CI-OPT
                                                   MM, QMMM, 2- and 3-layer-ONIOM, Crystal-QMMM,
                                                   LR-CPCM, SF, NACMEs, symmetry and pop. for TD-DFT,
                                                   nearIR, NL-DFT gradient (VV10), updates on ESD,
                                                   ML-optimized integration grids, MBIS, APM,
                                                   GOAT, DOCKER, SOLVATOR, interface openCOSMO-RS
   S Lehtola, MJT Oliveira, MAL Marques          : LibXC Library
   Liviu Ungur et al                             : ANISO software


 Your calculation uses the libint2 library for the computation of 2-el integrals
 For citations please refer to: http://libint.valeyev.net

 Your ORCA version has been built with support for libXC version: 6.2.2
 For citations please refer to: https://libxc.gitlab.io

 This ORCA versions uses:
   CBLAS   interface :  Fast vector & matrix operations
   LAPACKE interface :  Fast linear algebra routines
   SCALAPACK package :  Parallel linear algebra routines
   Shared memory     :  Shared parallel matrices
   BLAS/LAPACK       :  OpenBLAS 0.3.27  USE64BITINT DYNAMIC_ARCH NO_AFFINITY Zen SINGLE_THREADED
        Core in use  :  Zen
   Copyright (c) 2011-2014, The OpenBLAS Project


Your calculation utilizes the atom-pairwise dispersion correction
with the Becke-Johnson damping scheme (D3BJ)


Warning: RI is on but no J-basis has been assigned. Assigning Def2/J (nothing to worry about!)
================================================================================

----- Orbital basis set information -----
Your calculation utilizes the basis: def2-TZVPPD
   F. Weigend and R. Ahlrichs, Phys. Chem. Chem. Phys. 7, 3297 (2005).
   D. Rappoport and F. Furche, J. Chem. Phys. 133, 134105 (2010)
   D. Rappoport, J. Chem. Phys. 155, 124102 (2021).

----- AuxJ basis set information -----
Your calculation utilizes the auxiliary basis: def2/J
   F. Weigend, Phys. Chem. Chem. Phys. 8, 1057 (2006).

================================================================================
                                        WARNINGS
                       Please study these warnings very carefully!
================================================================================

Using LibXC functional ID 531 : wB97M-V exchange-correlation functional
[ 1]  N. Mardirossian and M. Head-Gordon.,  J. Chem. Phys. 144, 214110 (2016)
Using LibXC functional ID 531 : wB97M-V exchange-correlation functional
[ 1]  N. Mardirossian and M. Head-Gordon.,  J. Chem. Phys. 144, 214110 (2016)

WARNING: B97M-V or wB97M-V functional requested.
  ===> : libXC variant has now been activated.
         Any manually given DFX/HFX/RangeSep scaling parameters are IGNORED!

Your calculation utilizes LibXC
 by S Lehtola, C Steigemann, MJT Oliveira & MAL Marques
Please cite in your paper:
 S Lehtola, C Steigemann, MJT Oliveira & MAL Marques, SoftwareX, 7, (2018), 1.
   


WARNING: your system is open-shell and RHF/RKS was chosen
  ===> : WILL SWITCH to UHF/UKS

INFO   : Checking CIS options ...

WARNING: CIS/ROCIS methods need fully converged wavefunctions
  ===> : Setting SCFConvForced true
         You can overwrite this default with %scf ConvForced false 


================================================================================
                                       INPUT FILE
================================================================================
NAME = orca.inp
|  1> ! Engrad def2-TZVPPD wB97M-D3BJ 
|  2> %pal nprocs 8 end%pal nprocs 64 end 
|  3> %tddft 
|  4>  Iroot 1 Nroots 3 
|  5> sf true 
|  6> end 
|  7> *xyz 0 3 
|  8> O   0.79458171 -0.77433163 -0.70078338
|  9> C   0.7585554 0.10685644 0.43051219
| 10> C   -0.4154955 0.94371591 0.55612827
| 11> H   1.64093546 0.76139107 0.22475663
| 12> H   0.91970469 -0.50611426 1.36761125
| 13> H   -0.33240379 1.94364233 0.46052358
| 14> H   -1.42726551 0.57346644 0.54487249
| 15> *
| 16> 
| 17>                          ****END OF INPUT****
================================================================================

                     *******************************
                     * Energy+Gradient Calculation *
                     *******************************

---------------------------------
CARTESIAN COORDINATES (ANGSTROEM)
---------------------------------
  O      0.794582   -0.774332   -0.700783
  C      0.758555    0.106856    0.430512
  C     -0.415496    0.943716    0.556128
  H      1.640935    0.761391    0.224757
  H      0.919705   -0.506114    1.367611
  H     -0.332404    1.943642    0.460524
  H     -1.427266    0.573466    0.544872

----------------------------
CARTESIAN COORDINATES (A.U.)
----------------------------
  NO LB      ZA    FRAG     MASS         X           Y           Z
   0 O     8.0000    0    15.999    1.501542   -1.463275   -1.324289
   1 C     6.0000    0    12.011    1.433462    0.201929    0.813550
   2 C     6.0000    0    12.011   -0.785173    1.783365    1.050930
   3 H     1.0000    0     1.008    3.100919    1.438821    0.424728
   4 H     1.0000    0     1.008    1.737990   -0.956417    2.584411
   5 H     1.0000    0     1.008   -0.628152    3.672952    0.870263
   6 H     1.0000    0     1.008   -2.697141    1.083695    1.029660

--------------------------------
INTERNAL COORDINATES (ANGSTROEM)
--------------------------------
 O      0   0   0     0.000000000000     0.00000000     0.00000000
 C      1   0   0     1.434440649321     0.00000000     0.00000000
 C      2   1   0     1.447241751704   116.36245804     0.00000000
 H      2   1   3     1.117741250302   101.22864996   242.61480019
 H      2   1   3     1.131307571343   108.47274836   125.84548917
 H      3   2   1     1.007917325198   119.90409729   246.38198123
 H      3   2   1     1.077446015239   124.20614102    53.05497149

---------------------------
INTERNAL COORDINATES (A.U.)
---------------------------
 O      0   0   0     0.000000000000     0.00000000     0.00000000
 C      1   0   0     2.710699982581     0.00000000     0.00000000
 C      2   1   0     2.734890560296   116.36245804     0.00000000
 H      2   1   3     2.112224851657   101.22864996   242.61480019
 H      2   1   3     2.137861483071   108.47274836   125.84548917
 H      3   2   1     1.904687710259   119.90409729   246.38198123
 H      3   2   1     2.036077892886   124.20614102    53.05497149

---------------------
BASIS SET INFORMATION
---------------------
There are 3 groups of distinct atoms

 Group   1 Type O   : 12s7p3d1f contracted to 6s4p3d1f pattern {621111/4111/111/1}
 Group   2 Type C   : 12s6p3d1f contracted to 6s3p3d1f pattern {621111/411/111/1}
 Group   3 Type H   : 5s3p1d contracted to 3s3p1d pattern {311/111/1}

Atom   0O    basis set group =>   1
Atom   1C    basis set group =>   2
Atom   2C    basis set group =>   2
Atom   3H    basis set group =>   3
Atom   4H    basis set group =>   3
Atom   5H    basis set group =>   3
Atom   6H    basis set group =>   3
---------------------------------
AUXILIARY/J BASIS SET INFORMATION
---------------------------------
There are 3 groups of distinct atoms

 Group   1 Type O   : 12s5p4d2f1g contracted to 6s4p3d1f1g pattern {711111/2111/211/2/1}
 Group   2 Type C   : 12s5p4d2f1g contracted to 6s4p3d1f1g pattern {711111/2111/211/2/1}
 Group   3 Type H   : 5s2p1d contracted to 3s1p1d pattern {311/2/1}

Atom   0O    basis set group =>   1
Atom   1C    basis set group =>   2
Atom   2C    basis set group =>   2
Atom   3H    basis set group =>   3
Atom   4H    basis set group =>   3
Atom   5H    basis set group =>   3
Atom   6H    basis set group =>   3
[1741606260.578460] [ohm:3028480:0]        ib_iface.c:1059 UCX  ERROR ibv_create_cq(cqe=256) failed: Connection timed out
[1741606260.602845] [ohm:3028481:0]        ib_iface.c:1059 UCX  ERROR ibv_create_cq(cqe=256) failed: Connection timed out
[1741606260.607479] [ohm:3028478:0]        ib_iface.c:1059 UCX  ERROR ibv_create_cq(cqe=256) failed: Connection timed out
[1741606260.623630] [ohm:3028500:0]        ib_iface.c:1059 UCX  ERROR ibv_create_cq(cqe=256) failed: Connection timed out
[1741606260.623988] [ohm:3028476:0]        ib_iface.c:1059 UCX  ERROR ibv_create_cq(cqe=256) failed: Connection timed out
[1741606260.625489] [ohm:3028477:0]        ib_iface.c:1059 UCX  ERROR ibv_create_cq(cqe=256) failed: Connection timed out
[1741606260.629129] [ohm:3028479:0]        ib_iface.c:1059 UCX  ERROR ibv_create_cq(cqe=256) failed: Connection timed out
[1741606260.629515] [ohm:3028475:0]        ib_iface.c:1059 UCX  ERROR ibv_create_cq(cqe=256) failed: Connection timed out
[1741606260.630460] [ohm:3028482:0]        ib_iface.c:1059 UCX  ERROR ibv_create_cq(cqe=256) failed: Connection timed out
[1741606260.637623] [ohm:3028483:0]        ib_iface.c:1059 UCX  ERROR ibv_create_cq(cqe=256) failed: Connection timed out
[1741606260.717969] [ohm:3028498:0]        ib_iface.c:1059 UCX  ERROR ibv_create_cq(cqe=256) failed: Connection timed out
[1741606260.743220] [ohm:3028559:0]        ib_iface.c:1059 UCX  ERROR ibv_create_cq(cqe=256) failed: Connection timed out
[1741606260.750418] [ohm:3028544:0]        ib_iface.c:1059 UCX  ERROR ibv_create_cq(cqe=256) failed: Connection timed out
[1741606260.750741] [ohm:3028517:0]        ib_iface.c:1059 UCX  ERROR ibv_create_cq(cqe=256) failed: Connection timed out
[1741606260.752730] [ohm:3028510:0]        ib_iface.c:1059 UCX  ERROR ibv_create_cq(cqe=256) failed: Connection timed out
[1741606260.753915] [ohm:3028518:0]        ib_iface.c:1059 UCX  ERROR ibv_create_cq(cqe=256) failed: Connection timed out
[1741606260.758271] [ohm:3028600:0]        ib_iface.c:1059 UCX  ERROR ibv_create_cq(cqe=256) failed: Connection timed out
[1741606260.758726] [ohm:3028506:0]        ib_iface.c:1059 UCX  ERROR ibv_create_cq(cqe=256) failed: Connection timed out
[1741606260.760259] [ohm:3028534:0]        ib_iface.c:1059 UCX  ERROR ibv_create_cq(cqe=256) failed: Connection timed out
[1741606260.760484] [ohm:3028524:0]        ib_iface.c:1059 UCX  ERROR ibv_create_cq(cqe=256) failed: Connection timed out
[1741606260.766413] [ohm:3028607:0]        ib_iface.c:1059 UCX  ERROR ibv_create_cq(cqe=256) failed: Connection timed out
[1741606260.766566] [ohm:3028526:0]        ib_iface.c:1059 UCX  ERROR ibv_create_cq(cqe=256) failed: Connection timed out
[1741606260.766585] [ohm:3028578:0]        ib_iface.c:1059 UCX  ERROR ibv_create_cq(cqe=256) failed: Connection timed out
[1741606260.767018] [ohm:3028527:0]        ib_iface.c:1059 UCX  ERROR ibv_create_cq(cqe=256) failed: Connection timed out
[1741606260.780921] [ohm:3028521:0]        ib_iface.c:1059 UCX  ERROR ibv_create_cq(cqe=256) failed: Connection timed out
[1741606260.781902] [ohm:3028553:0]        ib_iface.c:1059 UCX  ERROR ibv_create_cq(cqe=256) failed: Connection timed out
[1741606260.794640] [ohm:3028508:0]        ib_iface.c:1059 UCX  ERROR ibv_create_cq(cqe=256) failed: Connection timed out
[1741606260.801448] [ohm:3028617:0]        ib_iface.c:1059 UCX  ERROR ibv_create_cq(cqe=256) failed: Connection timed out
[1741606260.824285] [ohm:3028523:0]        ib_iface.c:1059 UCX  ERROR ibv_create_cq(cqe=256) failed: Connection timed out
[1741606260.832805] [ohm:3028519:0]        ib_iface.c:1059 UCX  ERROR ibv_create_cq(cqe=256) failed: Connection timed out
[1741606260.839089] [ohm:3028497:0]        ib_iface.c:1059 UCX  ERROR ibv_create_cq(cqe=256) failed: Connection timed out
[1741606260.839612] [ohm:3028549:0]        ib_iface.c:1059 UCX  ERROR ibv_create_cq(cqe=256) failed: Connection timed out
[1741606260.847124] [ohm:3028484:0]        ib_iface.c:1059 UCX  ERROR ibv_create_cq(cqe=256) failed: Connection timed out
[1741606260.851390] [ohm:3028565:0]        ib_iface.c:1059 UCX  ERROR ibv_create_cq(cqe=256) failed: Connection timed out
[1741606260.853784] [ohm:3028615:0]        ib_iface.c:1059 UCX  ERROR ibv_create_cq(cqe=256) failed: Connection timed out
[1741606260.865647] [ohm:3028597:0]        ib_iface.c:1059 UCX  ERROR ibv_create_cq(cqe=256) failed: Connection timed out
[1741606260.865655] [ohm:3028556:0]        ib_iface.c:1059 UCX  ERROR ibv_create_cq(cqe=256) failed: Connection timed out
[1741606260.872153] [ohm:3028514:0]        ib_iface.c:1059 UCX  ERROR ibv_create_cq(cqe=256) failed: Connection timed out
[1741606260.878448] [ohm:3028539:0]        ib_iface.c:1059 UCX  ERROR ibv_create_cq(cqe=256) failed: Connection timed out
[1741606260.880820] [ohm:3028502:0]        ib_iface.c:1059 UCX  ERROR ibv_create_cq(cqe=256) failed: Connection timed out
[1741606260.884039] [ohm:3028571:0]        ib_iface.c:1059 UCX  ERROR ibv_create_cq(cqe=256) failed: Connection timed out
[1741606260.886519] [ohm:3028628:0]        ib_iface.c:1059 UCX  ERROR ibv_create_cq(cqe=256) failed: Connection timed out
[1741606260.888258] [ohm:3028567:0]        ib_iface.c:1059 UCX  ERROR ibv_create_cq(cqe=256) failed: Connection timed out
[1741606260.888252] [ohm:3028603:0]        ib_iface.c:1059 UCX  ERROR ibv_create_cq(cqe=256) failed: Connection timed out
[1741606260.888274] [ohm:3028499:0]        ib_iface.c:1059 UCX  ERROR ibv_create_cq(cqe=256) failed: Connection timed out
[1741606260.891846] [ohm:3028528:0]        ib_iface.c:1059 UCX  ERROR ibv_create_cq(cqe=256) failed: Connection timed out
[1741606260.891898] [ohm:3028612:0]        ib_iface.c:1059 UCX  ERROR ibv_create_cq(cqe=256) failed: Connection timed out
[1741606260.891907] [ohm:3028525:0]        ib_iface.c:1059 UCX  ERROR ibv_create_cq(cqe=256) failed: Connection timed out
[1741606260.910620] [ohm:3028522:0]        ib_iface.c:1059 UCX  ERROR ibv_create_cq(cqe=256) failed: Connection timed out
[1741606260.911220] [ohm:3028496:0]        ib_iface.c:1059 UCX  ERROR ibv_create_cq(cqe=256) failed: Connection timed out
[1741606260.914636] [ohm:3028580:0]        ib_iface.c:1059 UCX  ERROR ibv_create_cq(cqe=256) failed: Connection timed out
[1741606260.917594] [ohm:3028622:0]        ib_iface.c:1059 UCX  ERROR ibv_create_cq(cqe=256) failed: Connection timed out
[1741606260.920551] [ohm:3028530:0]        ib_iface.c:1059 UCX  ERROR ibv_create_cq(cqe=256) failed: Connection timed out
[1741606260.921412] [ohm:3028520:0]        ib_iface.c:1059 UCX  ERROR ibv_create_cq(cqe=256) failed: Connection timed out
[1741606260.922814] [ohm:3028590:0]        ib_iface.c:1059 UCX  ERROR ibv_create_cq(cqe=256) failed: Connection timed out
[1741606260.923231] [ohm:3028624:0]        ib_iface.c:1059 UCX  ERROR ibv_create_cq(cqe=256) failed: Connection timed out
[1741606260.923836] [ohm:3028594:0]        ib_iface.c:1059 UCX  ERROR ibv_create_cq(cqe=256) failed: Connection timed out
[1741606260.924809] [ohm:3028574:0]        ib_iface.c:1059 UCX  ERROR ibv_create_cq(cqe=256) failed: Connection timed out
[1741606260.925661] [ohm:3028618:0]        ib_iface.c:1059 UCX  ERROR ibv_create_cq(cqe=256) failed: Connection timed out
[1741606260.925638] [ohm:3028495:0]        ib_iface.c:1059 UCX  ERROR ibv_create_cq(cqe=256) failed: Connection timed out
[1741606260.926247] [ohm:3028584:0]        ib_iface.c:1059 UCX  ERROR ibv_create_cq(cqe=256) failed: Connection timed out
[1741606260.926509] [ohm:3028582:0]        ib_iface.c:1059 UCX  ERROR ibv_create_cq(cqe=256) failed: Connection timed out
[1741606260.927612] [ohm:3028619:0]        ib_iface.c:1059 UCX  ERROR ibv_create_cq(cqe=256) failed: Connection timed out
[1741606260.928323] [ohm:3028501:0]        ib_iface.c:1059 UCX  ERROR ibv_create_cq(cqe=256) failed: Connection timed out


           ************************************************************
           *        Program running with 64 parallel MPI-processes    *
           *              working on a common directory               *
           ************************************************************
------------------------------------------------------------------------------
                             ORCA STARTUP CALCULATIONS
                           -- RI-GTO INTEGRALS CHOSEN --
------------------------------------------------------------------------------
------------------------------------------------------------------------------
                   ___                                                        
                  /   \      - P O W E R E D   B Y -                         
                 /     \                                                     
                 |  |  |   _    _      __       _____    __    __             
                 |  |  |  | |  | |    /  \     |  _  \  |  |  /  |          
                  \  \/   | |  | |   /    \    | | | |  |  | /  /          
                 / \  \   | |__| |  /  /\  \   | |_| |  |  |/  /          
                |  |  |   |  __  | /  /__\  \  |    /   |      \           
                |  |  |   | |  | | |   __   |  |    \   |  |\   \          
                \     /   | |  | | |  |  |  |  | |\  \  |  | \   \       
                 \___/    |_|  |_| |__|  |__|  |_| \__\ |__|  \__/        
                                                                              
                      - O R C A' S   B I G   F R I E N D -                    
                                      &                                       
                       - I N T E G R A L  F E E D E R -                       
                                                                              
 v1 FN, 2020, v2 2021, v3 2022-2024                                           
------------------------------------------------------------------------------


----------------------
SHARK INTEGRAL PACKAGE
----------------------

Number of atoms                             ...      7
Number of basis functions                   ...    182
Number of shells                            ...     68
Maximum angular momentum                    ...      3
Integral batch strategy                     ... SHARK/LIBINT Hybrid
RI-J (if used) integral strategy            ... SPLIT-RIJ (Revised 2003 algorithm where possible)
Printlevel                                  ...      1
Contraction scheme used                     ... SEGMENTED contraction
Prescreening option                         ... SCHWARTZ
   Thresh                                   ... 2.500e-11
   Tcut                                     ... 2.500e-12
   Tpresel                                  ... 2.500e-12 
Coulomb Range Separation                    ... NOT USED
Exchange Range Separation                   ... Long Range
   Mu parameter                             ... 3.000e-01
   Scaling (regular/separated)              ... 1.500e-01 8.500e-01
Multipole approximations                    ... NOT USED
Finite Nucleus Model                        ... NOT USED
CABS basis                                  ... NOT available
Auxiliary Coulomb fitting basis             ... AVAILABLE
   # of basis functions in Aux-J            ...    191
   # of shells in Aux-J                     ...     65
   Maximum angular momentum in Aux-J        ...      4
Auxiliary J/K fitting basis                 ... NOT available
Auxiliary Correlation fitting basis         ... NOT available
Auxiliary 'external' fitting basis          ... NOT available

Checking pre-screening integrals            ... done (  0.0 sec) Dimension = 68
Check shell pair data                       ... done (  0.0 sec)
Shell pair information
Shell pair cut-off parameter TPreSel        ...   2.5e-12
Total number of shell pairs                 ...      2346
Shell pairs after pre-screening             ...      2326
Total number of primitive shell pairs       ...      5434
Primitive shell pairs kept                  ...      4800
          la=0 lb=0:    454 shell pairs
          la=1 lb=0:    655 shell pairs
          la=1 lb=1:    253 shell pairs
          la=2 lb=0:    386 shell pairs
          la=2 lb=1:    286 shell pairs
          la=2 lb=2:     91 shell pairs
          la=3 lb=0:     90 shell pairs
          la=3 lb=1:     66 shell pairs
          la=3 lb=2:     39 shell pairs
          la=3 lb=3:      6 shell pairs

Calculating one electron integrals          ... done (  0.0 sec)
Calculating RI/J V-Matrix + Cholesky decomp.... done (  0.0 sec)
Calculating Nuclear repulsion               ... done (  0.0 sec) ENN=     67.234566075541 Eh

Diagonalization of the overlap matrix:
Smallest eigenvalue                        ... 1.745e-05
Time for diagonalization                   ...    0.003 sec
Threshold for overlap eigenvalues          ... 1.000e-07
Number of eigenvalues below threshold      ... 0
Time for construction of square roots      ...    0.003 sec
Total time needed                          ...    0.008 sec

-------------------
DFT GRID GENERATION
-------------------

General Integration Accuracy     IntAcc      ... 4.388
Radial Grid Type                 RadialGrid  ... OptM3 with GC (2021)
Angular Grid (max. ang.)         AngularGrid ... 4 (Lebedev-302)
Angular grid pruning method      GridPruning ... 4 (adaptive)
Weight generation scheme         WeightScheme... mBecke (2022)
Basis function cutoff            BFCut       ... 1.0000e-11
Integration weight cutoff        WCut        ... 1.0000e-14
Partially contracted basis set               ... off
Rotationally invariant grid construction     ... off
Angular grids for H and He will be reduced by one unit
Diffuse basis detected: some atoms will have their outermost
                        angular grid increased by 1.

Total number of grid points                  ...    33140
Total number of batches                      ...      522
Average number of points per batch           ...       63
Average number of grid points per atom       ...     4734

--------------------
COSX GRID GENERATION
--------------------

GRIDX 1
-------
General Integration Accuracy     IntAcc      ... 3.816
Radial Grid Type                 RadialGrid  ... OptM3 with GC (2021)
Angular Grid (max. ang.)         AngularGrid ... 1 (Lebedev-50)
Angular grid pruning method      GridPruning ... 4 (adaptive)
Weight generation scheme         WeightScheme... mBecke (2022)
Basis function cutoff            BFCut       ... 1.0000e-11
Integration weight cutoff        WCut        ... 1.0000e-14
Partially contracted basis set               ... on
Rotationally invariant grid construction     ... off
Angular grids for H and He will be reduced by one unit
Diffuse basis detected: some atoms will have their outermost
                        angular grid increased by 1.

Total number of grid points                  ...     4180
Total number of batches                      ...       37
Average number of points per batch           ...      112
Average number of grid points per atom       ...      597
UseSFitting                                  ... on

GRIDX 2
-------
General Integration Accuracy     IntAcc      ... 4.020
Radial Grid Type                 RadialGrid  ... OptM3 with GC (2021)
Angular Grid (max. ang.)         AngularGrid ... 2 (Lebedev-110)
Angular grid pruning method      GridPruning ... 4 (adaptive)
Weight generation scheme         WeightScheme... mBecke (2022)
Basis function cutoff            BFCut       ... 1.0000e-11
Integration weight cutoff        WCut        ... 1.0000e-14
Partially contracted basis set               ... on
Rotationally invariant grid construction     ... off
Angular grids for H and He will be reduced by one unit
Diffuse basis detected: some atoms will have their outermost
                        angular grid increased by 1.

Total number of grid points                  ...    10291
Total number of batches                      ...       84
Average number of points per batch           ...      122
Average number of grid points per atom       ...     1470
UseSFitting                                  ... on

GRIDX 3
-------
General Integration Accuracy     IntAcc      ... 4.338
Radial Grid Type                 RadialGrid  ... OptM3 with GC (2021)
Angular Grid (max. ang.)         AngularGrid ... 3 (Lebedev-194)
Angular grid pruning method      GridPruning ... 4 (adaptive)
Weight generation scheme         WeightScheme... mBecke (2022)
Basis function cutoff            BFCut       ... 1.0000e-11
Integration weight cutoff        WCut        ... 1.0000e-14
Partially contracted basis set               ... on
Rotationally invariant grid construction     ... off
Angular grids for H and He will be reduced by one unit
Diffuse basis detected: some atoms will have their outermost
                        angular grid increased by 1.

Total number of grid points                  ...    23113
Total number of batches                      ...      184
Average number of points per batch           ...      125
Average number of grid points per atom       ...     3302
UseSFitting                                  ... on
Initializing property integral containers    ... done (  0.0 sec)

SHARK setup successfully completed in   0.4 seconds

Maximum memory used throughout the entire STARTUP-calculation: 13.8 MB
[1741606262.969754] [ohm:3028895:0]        ib_iface.c:1059 UCX  ERROR ibv_create_cq(cqe=256) failed: Connection timed out
[1741606262.971288] [ohm:3028934:0]        ib_iface.c:1059 UCX  ERROR ibv_create_cq(cqe=256) failed: Connection timed out
[1741606262.974493] [ohm:3028826:0]        ib_iface.c:1059 UCX  ERROR ibv_create_cq(cqe=256) failed: Connection timed out
[1741606263.013555] [ohm:3028875:0]        ib_iface.c:1059 UCX  ERROR ibv_create_cq(cqe=256) failed: Connection timed out
[1741606263.017710] [ohm:3028885:0]        ib_iface.c:1059 UCX  ERROR ibv_create_cq(cqe=256) failed: Connection timed out
[1741606263.042398] [ohm:3028918:0]        ib_iface.c:1059 UCX  ERROR ibv_create_cq(cqe=256) failed: Connection timed out
[1741606263.046936] [ohm:3028899:0]        ib_iface.c:1059 UCX  ERROR ibv_create_cq(cqe=256) failed: Connection timed out
[1741606263.046954] [ohm:3028912:0]        ib_iface.c:1059 UCX  ERROR ibv_create_cq(cqe=256) failed: Connection timed out
[1741606263.050675] [ohm:3028929:0]        ib_iface.c:1059 UCX  ERROR ibv_create_cq(cqe=256) failed: Connection timed out
[1741606263.055621] [ohm:3028909:0]        ib_iface.c:1059 UCX  ERROR ibv_create_cq(cqe=256) failed: Connection timed out
[1741606263.055710] [ohm:3028825:0]        ib_iface.c:1059 UCX  ERROR ibv_create_cq(cqe=256) failed: Connection timed out
[1741606263.059829] [ohm:3028846:0]        ib_iface.c:1059 UCX  ERROR ibv_create_cq(cqe=256) failed: Connection timed out
[1741606263.065059] [ohm:3028838:0]        ib_iface.c:1059 UCX  ERROR ibv_create_cq(cqe=256) failed: Connection timed out
[1741606263.069364] [ohm:3028920:0]        ib_iface.c:1059 UCX  ERROR ibv_create_cq(cqe=256) failed: Connection timed out
[1741606263.075564] [ohm:3028877:0]        ib_iface.c:1059 UCX  ERROR ibv_create_cq(cqe=256) failed: Connection timed out
[1741606263.077067] [ohm:3028842:0]        ib_iface.c:1059 UCX  ERROR ibv_create_cq(cqe=256) failed: Connection timed out
[1741606263.130285] [ohm:3028824:0]        ib_iface.c:1059 UCX  ERROR ibv_create_cq(cqe=256) failed: Connection timed out
[1741606263.132112] [ohm:3028900:0]        ib_iface.c:1059 UCX  ERROR ibv_create_cq(cqe=256) failed: Connection timed out
[1741606263.132081] [ohm:3028925:0]        ib_iface.c:1059 UCX  ERROR ibv_create_cq(cqe=256) failed: Connection timed out
[1741606263.134665] [ohm:3028843:0]        ib_iface.c:1059 UCX  ERROR ibv_create_cq(cqe=256) failed: Connection timed out
[1741606263.146027] [ohm:3028953:0]        ib_iface.c:1059 UCX  ERROR ibv_create_cq(cqe=256) failed: Connection timed out
[1741606263.150893] [ohm:3028930:0]        ib_iface.c:1059 UCX  ERROR ibv_create_cq(cqe=256) failed: Connection timed out
[1741606263.155465] [ohm:3028922:0]        ib_iface.c:1059 UCX  ERROR ibv_create_cq(cqe=256) failed: Connection timed out
[1741606263.156873] [ohm:3028935:0]        ib_iface.c:1059 UCX  ERROR ibv_create_cq(cqe=256) failed: Connection timed out
[1741606263.158339] [ohm:3028941:0]        ib_iface.c:1059 UCX  ERROR ibv_create_cq(cqe=256) failed: Connection timed out
[1741606263.158964] [ohm:3028946:0]        ib_iface.c:1059 UCX  ERROR ibv_create_cq(cqe=256) failed: Connection timed out
[1741606263.161697] [ohm:3028967:0]        ib_iface.c:1059 UCX  ERROR ibv_create_cq(cqe=256) failed: Connection timed out
[1741606263.168303] [ohm:3028948:0]        ib_iface.c:1059 UCX  ERROR ibv_create_cq(cqe=256) failed: Connection timed out
[1741606263.168969] [ohm:3028852:0]        ib_iface.c:1059 UCX  ERROR ibv_create_cq(cqe=256) failed: Connection timed out
[1741606263.177950] [ohm:3028836:0]        ib_iface.c:1059 UCX  ERROR ibv_create_cq(cqe=256) failed: Connection timed out
[1741606263.185306] [ohm:3028845:0]        ib_iface.c:1059 UCX  ERROR ibv_create_cq(cqe=256) failed: Connection timed out
[1741606263.187613] [ohm:3028839:0]        ib_iface.c:1059 UCX  ERROR ibv_create_cq(cqe=256) failed: Connection timed out
[1741606263.188009] [ohm:3028837:0]        ib_iface.c:1059 UCX  ERROR ibv_create_cq(cqe=256) failed: Connection timed out
[1741606263.196907] [ohm:3028866:0]        ib_iface.c:1059 UCX  ERROR ibv_create_cq(cqe=256) failed: Connection timed out
[1741606263.200490] [ohm:3028894:0]        ib_iface.c:1059 UCX  ERROR ibv_create_cq(cqe=256) failed: Connection timed out
[1741606263.203367] [ohm:3028850:0]        ib_iface.c:1059 UCX  ERROR ibv_create_cq(cqe=256) failed: Connection timed out
[1741606263.206858] [ohm:3028835:0]        ib_iface.c:1059 UCX  ERROR ibv_create_cq(cqe=256) failed: Connection timed out
[1741606263.209687] [ohm:3028841:0]        ib_iface.c:1059 UCX  ERROR ibv_create_cq(cqe=256) failed: Connection timed out
[1741606263.217658] [ohm:3028844:0]        ib_iface.c:1059 UCX  ERROR ibv_create_cq(cqe=256) failed: Connection timed out
[1741606263.221465] [ohm:3028957:0]        ib_iface.c:1059 UCX  ERROR ibv_create_cq(cqe=256) failed: Connection timed out
[1741606263.224393] [ohm:3028831:0]        ib_iface.c:1059 UCX  ERROR ibv_create_cq(cqe=256) failed: Connection timed out
[1741606263.230701] [ohm:3028966:0]        ib_iface.c:1059 UCX  ERROR ibv_create_cq(cqe=256) failed: Connection timed out
[1741606263.231996] [ohm:3028821:0]        ib_iface.c:1059 UCX  ERROR ibv_create_cq(cqe=256) failed: Connection timed out
[1741606263.233835] [ohm:3028834:0]        ib_iface.c:1059 UCX  ERROR ibv_create_cq(cqe=256) failed: Connection timed out
[1741606263.244067] [ohm:3028833:0]        ib_iface.c:1059 UCX  ERROR ibv_create_cq(cqe=256) failed: Connection timed out
[1741606263.254820] [ohm:3028823:0]        ib_iface.c:1059 UCX  ERROR ibv_create_cq(cqe=256) failed: Connection timed out
[1741606263.255488] [ohm:3028854:0]        ib_iface.c:1059 UCX  ERROR ibv_create_cq(cqe=256) failed: Connection timed out
[1741606263.257934] [ohm:3028862:0]        ib_iface.c:1059 UCX  ERROR ibv_create_cq(cqe=256) failed: Connection timed out
[1741606263.260098] [ohm:3028859:0]        ib_iface.c:1059 UCX  ERROR ibv_create_cq(cqe=256) failed: Connection timed out
[1741606263.260737] [ohm:3028960:0]        ib_iface.c:1059 UCX  ERROR ibv_create_cq(cqe=256) failed: Connection timed out
[1741606263.260821] [ohm:3028869:0]        ib_iface.c:1059 UCX  ERROR ibv_create_cq(cqe=256) failed: Connection timed out
[1741606263.261456] [ohm:3028829:0]        ib_iface.c:1059 UCX  ERROR ibv_create_cq(cqe=256) failed: Connection timed out
[1741606263.266278] [ohm:3028847:0]        ib_iface.c:1059 UCX  ERROR ibv_create_cq(cqe=256) failed: Connection timed out
[1741606263.268840] [ohm:3028889:0]        ib_iface.c:1059 UCX  ERROR ibv_create_cq(cqe=256) failed: Connection timed out
[1741606263.272120] [ohm:3028828:0]        ib_iface.c:1059 UCX  ERROR ibv_create_cq(cqe=256) failed: Connection timed out
[1741606263.278091] [ohm:3028832:0]        ib_iface.c:1059 UCX  ERROR ibv_create_cq(cqe=256) failed: Connection timed out
[1741606263.280552] [ohm:3028951:0]        ib_iface.c:1059 UCX  ERROR ibv_create_cq(cqe=256) failed: Connection timed out
[1741606263.282396] [ohm:3028840:0]        ib_iface.c:1059 UCX  ERROR ibv_create_cq(cqe=256) failed: Connection timed out
[1741606263.283198] [ohm:3028830:0]        ib_iface.c:1059 UCX  ERROR ibv_create_cq(cqe=256) failed: Connection timed out
[1741606263.284881] [ohm:3028903:0]        ib_iface.c:1059 UCX  ERROR ibv_create_cq(cqe=256) failed: Connection timed out
[1741606263.286207] [ohm:3028827:0]        ib_iface.c:1059 UCX  ERROR ibv_create_cq(cqe=256) failed: Connection timed out
[1741606263.286922] [ohm:3028822:0]        ib_iface.c:1059 UCX  ERROR ibv_create_cq(cqe=256) failed: Connection timed out
[1741606263.286948] [ohm:3028905:0]        ib_iface.c:1059 UCX  ERROR ibv_create_cq(cqe=256) failed: Connection timed out
[1741606263.297065] [ohm:3028940:0]        ib_iface.c:1059 UCX  ERROR ibv_create_cq(cqe=256) failed: Connection timed out


           ************************************************************
           *        Program running with 64 parallel MPI-processes    *
           *              working on a common directory               *
           ************************************************************
-------------------------------------------------------------------------------
                                 ORCA GUESS
                   Start orbitals & Density for SCF / CASSCF
-------------------------------------------------------------------------------

------------
SCF SETTINGS
------------
Hamiltonian:
 Density Functional     Method          .... DFT(GTOs)
  Functional kind                       .... Exchange-Correlation
  Functional name                       .... wB97M-V exchange-correlation functional
  Functional family                     .... Hybrid MGGA
  Functional refs                              
    [ 0] N. Mardirossian and M. Head-Gordon.,  J. Chem. Phys. 144, 214110 (2016), doi: 10.1063/1.4952647
  Fraction of HF Exchange (short range) .... 0.1500
  Fraction of HF Exchange (long range)  .... 1.0000
  Range separation parameter mu         .... 0.3000
  Functional external parameters        .... 17
    Parameter  0 _cx00      =  8.500000e-01 : u^00 coefficient for exchange
    Parameter  1 _cx01      =  1.007000e+00 : u^01 coefficient for exchange
    Parameter  2 _cx10      =  2.590000e-01 : u^10 coefficient for exchange
    Parameter  3 _css00     =  4.430000e-01 : u^00 coefficient for same-spin correlation
    Parameter  4 _css04     = -1.437000e+00 : u^04 coefficient for same-spin correlation
    Parameter  5 _css10     = -4.535000e+00 : u^10 coefficient for same-spin correlation
    Parameter  6 _css20     = -3.390000e+00 : u^20 coefficient for same-spin correlation
    Parameter  7 _css43     =  4.278000e+00 : u^43 coefficient for same-spin correlation
    Parameter  8 _cos00     =  1.000000e+00 : u^00 coefficient for opposite-spin correlation
    Parameter  9 _cos10     =  1.358000e+00 : u^10 coefficient for opposite-spin correlation
    Parameter 10 _cos20     =  2.924000e+00 : u^20 coefficient for opposite-spin correlation
    Parameter 11 _cos21     = -8.812000e+00 : u^21 coefficient for opposite-spin correlation
    Parameter 12 _cos60     = -1.390000e+00 : u^60 coefficient for opposite-spin correlation
    Parameter 13 _cos61     =  9.142000e+00 : u^61 coefficient for opposite-spin correlation
    Parameter 14 _alpha     =  1.000000e+00 : fraction of HF exchange
    Parameter 15 _beta      = -8.500000e-01 : fraction of short-range exchange
    Parameter 16 _omega     =  3.000000e-01 : range-separation constant
 Long-range corrected/Screened/Range-Separated Hybrid DFT is turned on
   Amount of maximum screened exact exchange              ....  0.850000
   Range separation parameter mu (erf(mu*r12)/r12)        ....  0.300000
 RI-approximation to the Coulomb term is turned on
   Number of AuxJ basis functions       .... 191
   RIJ-COSX (HFX calculated with COS-X)).... on


General Settings:
 Integral files         IntName         .... orca
 Hartree-Fock type      HFTyp           .... UHF
 Total Charge           Charge          ....    0
 Multiplicity           Mult            ....    3
 Number of Electrons    NEL             ....   24
 Basis Dimension        Dim             ....  182
 Nuclear Repulsion      ENuc            ....     67.2345660755 Eh

Convergence Acceleration:
 AO-DIIS                CNVDIIS         .... on
   Start iteration      DIISMaxIt       ....    12
   Startup error        DIISStart       ....  0.200000
   # of expansion vecs  DIISMaxEq       ....     5
   Bias factor          DIISBfac        ....   1.050
   Max. coefficient     DIISMaxC        ....  10.000
 MO-DIIS                CNVKDIIS        .... off
 Trust-Rad. Augm. Hess. CNVTRAH         .... auto
   Auto Start mean grad. ratio tolernc. ....  1.125000
   Auto Start start iteration           ....    50
   Auto Start num. interpolation iter.  ....    10
   Max. Number of Micro iterations      ....    24
   Max. Number of Macro iterations      .... Maxiter - #DIIS iter
   Number of Davidson start vectors     ....     2
   Converg. threshold    (grad. norm)   ....   1.000e-05
   Grad. Scal. Fac. for Micro threshold ....   0.100
   Minimum threshold for Micro iter.    ....   1.000e-02
   NR start threshold (gradient norm)   ....   1.000e-04
   Initial trust radius                 ....   0.400
   Minimum AH scaling param. (alpha)    ....   1.000
   Maximum AH scaling param. (alpha)    .... 1000.000
   Quad. conv. algorithm                .... NR
   White noise on init. David. guess    .... on
   Maximum white noise                  ....   0.010
   Pseudo random numbers                .... off
   Inactive MOs                         .... canonical
   Orbital update algorithm             .... Taylor
   Preconditioner                       .... Diag
   Full preconditioner red. dimension   ....   250
 SOSCF                  CNVSOSCF        .... on
   Start iteration      SOSCFMaxIt      ....   150
   Startup grad/error   SOSCFStart      ....  0.003300
   Hessian update       SOSCFHessUp     .... L-BFGS
 Level Shifting         CNVShift        .... on
   Level shift para.    LevelShift      ....    0.2500
   Turn off err/grad.   ShiftErr        ....    0.0010
 Zerner damping         CNVZerner       .... off
 Static damping         CNVDamp         .... on
   Fraction old density DampFac         ....    0.7000
   Max. Damping (<1)    DampMax         ....    0.9800
   Min. Damping (>=0)   DampMin         ....    0.0000
   Turn off err/grad.   DampErr         ....    0.1000

SCF Procedure:
 Maximum # iterations   MaxIter         ....   125
 SCF integral mode      SCFMode         .... Direct
   Integral package                     .... SHARK and LIBINT hybrid scheme
 Reset frequency        DirectResetFreq ....    20
 Integral Threshold     Thresh          ....  2.500e-11 Eh
 Primitive CutOff       TCut            ....  2.500e-12 Eh

Convergence Tolerance:
 Convergence Check Mode ConvCheckMode   .... Total+1el-Energy
 Convergence forced     ConvForced      .... 1
 Energy Change          TolE            ....  1.000e-08 Eh
 1-El. energy change                    ....  1.000e-05 Eh
 Orbital Gradient       TolG            ....  1.000e-05
 Orbital Rotation angle TolX            ....  1.000e-05
 DIIS Error             TolErr          ....  5.000e-07

------------------------------
INITIAL GUESS: MODEL POTENTIAL
------------------------------
Loading Hartree-Fock densities                     ... done
Calculating cut-offs                               ... done
Initializing the effective Hamiltonian             ... done
Setting up the integral package (SHARK)            ... done
Starting the Coulomb interaction                   ... done (   0.0 sec)
Making the grid                                    ... done (   0.0 sec)
Mapping shells                                     ... done
Starting the XC term evaluation                    ... done (   0.0 sec)
  promolecular density results
     # of electrons  =     23.998206993
     EX              =    -19.456577254
     EC              =     -0.764053199
     EX+EC           =    -20.220630452
Transforming the Hamiltonian                       ... done (   0.0 sec)
Diagonalizing the Hamiltonian                      ... done (   0.0 sec)
Back transforming the eigenvectors                 ... done (   0.0 sec)
Now organizing SCF variables                       ... done
                      ------------------
                      INITIAL GUESS DONE (   0.1 sec)
                      ------------------
             **** ENERGY FILE WAS UPDATED (orca.en.tmp) ****
Finished Guess after   1.7 sec
Maximum memory used throughout the entire GUESS-calculation: 9.5 MB
[1741606265.121400] [ohm:3029154:0]        ib_iface.c:1059 UCX  ERROR ibv_create_cq(cqe=256) failed: Connection timed out
[1741606265.131597] [ohm:3029152:0]        ib_iface.c:1059 UCX  ERROR ibv_create_cq(cqe=256) failed: Connection timed out
[1741606265.139916] [ohm:3029223:0]        ib_iface.c:1059 UCX  ERROR ibv_create_cq(cqe=256) failed: Connection timed out
[1741606265.162666] [ohm:3029155:0]        ib_iface.c:1059 UCX  ERROR ibv_create_cq(cqe=256) failed: Connection timed out
[1741606265.164265] [ohm:3029153:0]        ib_iface.c:1059 UCX  ERROR ibv_create_cq(cqe=256) failed: Connection timed out
[1741606265.166121] [ohm:3029161:0]        ib_iface.c:1059 UCX  ERROR ibv_create_cq(cqe=256) failed: Connection timed out
[1741606265.166944] [ohm:3029160:0]        ib_iface.c:1059 UCX  ERROR ibv_create_cq(cqe=256) failed: Connection timed out
[1741606265.169291] [ohm:3029268:0]        ib_iface.c:1059 UCX  ERROR ibv_create_cq(cqe=256) failed: Connection timed out
[1741606265.176339] [ohm:3029301:0]        ib_iface.c:1059 UCX  ERROR ibv_create_cq(cqe=256) failed: Connection timed out
[1741606265.176900] [ohm:3029158:0]        ib_iface.c:1059 UCX  ERROR ibv_create_cq(cqe=256) failed: Connection timed out
[1741606265.180914] [ohm:3029293:0]        ib_iface.c:1059 UCX  ERROR ibv_create_cq(cqe=256) failed: Connection timed out
[1741606265.181341] [ohm:3029246:0]        ib_iface.c:1059 UCX  ERROR ibv_create_cq(cqe=256) failed: Connection timed out
[1741606265.181663] [ohm:3029156:0]        ib_iface.c:1059 UCX  ERROR ibv_create_cq(cqe=256) failed: Connection timed out
[1741606265.181933] [ohm:3029278:0]        ib_iface.c:1059 UCX  ERROR ibv_create_cq(cqe=256) failed: Connection timed out
[1741606265.183293] [ohm:3029245:0]        ib_iface.c:1059 UCX  ERROR ibv_create_cq(cqe=256) failed: Connection timed out
[1741606265.183281] [ohm:3029282:0]        ib_iface.c:1059 UCX  ERROR ibv_create_cq(cqe=256) failed: Connection timed out
[1741606265.184083] [ohm:3029162:0]        ib_iface.c:1059 UCX  ERROR ibv_create_cq(cqe=256) failed: Connection timed out
[1741606265.225760] [ohm:3029168:0]        ib_iface.c:1059 UCX  ERROR ibv_create_cq(cqe=256) failed: Connection timed out
[1741606265.233668] [ohm:3029288:0]        ib_iface.c:1059 UCX  ERROR ibv_create_cq(cqe=256) failed: Connection timed out
[1741606265.239987] [ohm:3029284:0]        ib_iface.c:1059 UCX  ERROR ibv_create_cq(cqe=256) failed: Connection timed out
[1741606265.241580] [ohm:3029253:0]        ib_iface.c:1059 UCX  ERROR ibv_create_cq(cqe=256) failed: Connection timed out
[1741606265.243233] [ohm:3029238:0]        ib_iface.c:1059 UCX  ERROR ibv_create_cq(cqe=256) failed: Connection timed out
[1741606265.251284] [ohm:3029270:0]        ib_iface.c:1059 UCX  ERROR ibv_create_cq(cqe=256) failed: Connection timed out
[1741606265.276340] [ohm:3029289:0]        ib_iface.c:1059 UCX  ERROR ibv_create_cq(cqe=256) failed: Connection timed out
[1741606265.281740] [ohm:3029260:0]        ib_iface.c:1059 UCX  ERROR ibv_create_cq(cqe=256) failed: Connection timed out
[1741606265.284848] [ohm:3029265:0]        ib_iface.c:1059 UCX  ERROR ibv_create_cq(cqe=256) failed: Connection timed out
[1741606265.289355] [ohm:3029183:0]        ib_iface.c:1059 UCX  ERROR ibv_create_cq(cqe=256) failed: Connection timed out
[1741606265.289850] [ohm:3029163:0]        ib_iface.c:1059 UCX  ERROR ibv_create_cq(cqe=256) failed: Connection timed out
[1741606265.295103] [ohm:3029221:0]        ib_iface.c:1059 UCX  ERROR ibv_create_cq(cqe=256) failed: Connection timed out
[1741606265.300925] [ohm:3029219:0]        ib_iface.c:1059 UCX  ERROR ibv_create_cq(cqe=256) failed: Connection timed out
[1741606265.301766] [ohm:3029232:0]        ib_iface.c:1059 UCX  ERROR ibv_create_cq(cqe=256) failed: Connection timed out
[1741606265.335305] [ohm:3029226:0]        ib_iface.c:1059 UCX  ERROR ibv_create_cq(cqe=256) failed: Connection timed out
[1741606265.336552] [ohm:3029224:0]        ib_iface.c:1059 UCX  ERROR ibv_create_cq(cqe=256) failed: Connection timed out
[1741606265.336697] [ohm:3029229:0]        ib_iface.c:1059 UCX  ERROR ibv_create_cq(cqe=256) failed: Connection timed out
[1741606265.338793] [ohm:3029220:0]        ib_iface.c:1059 UCX  ERROR ibv_create_cq(cqe=256) failed: Connection timed out
[1741606265.342379] [ohm:3029235:0]        ib_iface.c:1059 UCX  ERROR ibv_create_cq(cqe=256) failed: Connection timed out
[1741606265.343014] [ohm:3029186:0]        ib_iface.c:1059 UCX  ERROR ibv_create_cq(cqe=256) failed: Connection timed out
[1741606265.344116] [ohm:3029188:0]        ib_iface.c:1059 UCX  ERROR ibv_create_cq(cqe=256) failed: Connection timed out
[1741606265.349957] [ohm:3029259:0]        ib_iface.c:1059 UCX  ERROR ibv_create_cq(cqe=256) failed: Connection timed out
[1741606265.361179] [ohm:3029249:0]        ib_iface.c:1059 UCX  ERROR ibv_create_cq(cqe=256) failed: Connection timed out
[1741606265.369343] [ohm:3029166:0]        ib_iface.c:1059 UCX  ERROR ibv_create_cq(cqe=256) failed: Connection timed out
[1741606265.371182] [ohm:3029215:0]        ib_iface.c:1059 UCX  ERROR ibv_create_cq(cqe=256) failed: Connection timed out
[1741606265.372143] [ohm:3029225:0]        ib_iface.c:1059 UCX  ERROR ibv_create_cq(cqe=256) failed: Connection timed out
[1741606265.372515] [ohm:3029216:0]        ib_iface.c:1059 UCX  ERROR ibv_create_cq(cqe=256) failed: Connection timed out
[1741606265.375804] [ohm:3029167:0]        ib_iface.c:1059 UCX  ERROR ibv_create_cq(cqe=256) failed: Connection timed out
[1741606265.385455] [ohm:3029197:0]        ib_iface.c:1059 UCX  ERROR ibv_create_cq(cqe=256) failed: Connection timed out
[1741606265.385456] [ohm:3029205:0]        ib_iface.c:1059 UCX  ERROR ibv_create_cq(cqe=256) failed: Connection timed out
[1741606265.388864] [ohm:3029185:0]        ib_iface.c:1059 UCX  ERROR ibv_create_cq(cqe=256) failed: Connection timed out
[1741606265.388860] [ohm:3029218:0]        ib_iface.c:1059 UCX  ERROR ibv_create_cq(cqe=256) failed: Connection timed out
[1741606265.389379] [ohm:3029210:0]        ib_iface.c:1059 UCX  ERROR ibv_create_cq(cqe=256) failed: Connection timed out
[1741606265.401039] [ohm:3029213:0]        ib_iface.c:1059 UCX  ERROR ibv_create_cq(cqe=256) failed: Connection timed out
[1741606265.401371] [ohm:3029227:0]        ib_iface.c:1059 UCX  ERROR ibv_create_cq(cqe=256) failed: Connection timed out
[1741606265.403234] [ohm:3029217:0]        ib_iface.c:1059 UCX  ERROR ibv_create_cq(cqe=256) failed: Connection timed out
[1741606265.407909] [ohm:3029165:0]        ib_iface.c:1059 UCX  ERROR ibv_create_cq(cqe=256) failed: Connection timed out
[1741606265.408212] [ohm:3029189:0]        ib_iface.c:1059 UCX  ERROR ibv_create_cq(cqe=256) failed: Connection timed out
[1741606265.413617] [ohm:3029159:0]        ib_iface.c:1059 UCX  ERROR ibv_create_cq(cqe=256) failed: Connection timed out
[1741606265.415324] [ohm:3029187:0]        ib_iface.c:1059 UCX  ERROR ibv_create_cq(cqe=256) failed: Connection timed out
[1741606265.418335] [ohm:3029184:0]        ib_iface.c:1059 UCX  ERROR ibv_create_cq(cqe=256) failed: Connection timed out
[1741606265.421338] [ohm:3029222:0]        ib_iface.c:1059 UCX  ERROR ibv_create_cq(cqe=256) failed: Connection timed out
[1741606265.421517] [ohm:3029199:0]        ib_iface.c:1059 UCX  ERROR ibv_create_cq(cqe=256) failed: Connection timed out
[1741606265.424179] [ohm:3029241:0]        ib_iface.c:1059 UCX  ERROR ibv_create_cq(cqe=256) failed: Connection timed out
[1741606265.425593] [ohm:3029157:0]        ib_iface.c:1059 UCX  ERROR ibv_create_cq(cqe=256) failed: Connection timed out
[1741606265.426580] [ohm:3029255:0]        ib_iface.c:1059 UCX  ERROR ibv_create_cq(cqe=256) failed: Connection timed out
[1741606265.427265] [ohm:3029164:0]        ib_iface.c:1059 UCX  ERROR ibv_create_cq(cqe=256) failed: Connection timed out


           ************************************************************
           *        Program running with 64 parallel MPI-processes    *
           *              working on a common directory               *
           ************************************************************

-------------------------------------------------------------------------------------------
                                      ORCA LEAN-SCF
                              memory conserving SCF solver
-------------------------------------------------------------------------------------------

----------------------------------------D-I-I-S--------------------------------------------
Iteration    Energy (Eh)           Delta-E    RMSDP     MaxDP     DIISErr   Damp  Time(sec)
-------------------------------------------------------------------------------------------
               ***  Starting incremental Fock matrix formation  ***
    1    -153.7036427767067153     0.00e+00  8.53e-04  1.93e-02  6.80e-02  0.700   0.3
    2    -153.7294138658144220    -2.58e-02  7.66e-04  1.80e-02  4.27e-02  0.700   0.3
                               ***Turning on AO-DIIS***
    3    -153.7441391951515470    -1.47e-02  6.38e-04  2.40e-02  2.43e-02  0.700   0.3
    4    -153.7534265375562086    -9.29e-03  1.62e-03  6.43e-02  1.64e-02  0.000   0.3
    5    -153.7755504479363253    -2.21e-02  1.81e-04  6.38e-03  5.29e-03  0.000   0.3
                              *** Initializing SOSCF ***
---------------------------------------S-O-S-C-F--------------------------------------
Iteration    Energy (Eh)           Delta-E    RMSDP     MaxDP     MaxGrad    Time(sec)
--------------------------------------------------------------------------------------
    6    -153.7761644815743693    -6.14e-04  1.10e-04  3.53e-03  3.24e-03     0.3
               *** Restarting incremental Fock matrix formation ***
    7    -153.7764450752374046    -2.81e-04  5.64e-05  1.49e-03  4.51e-03     0.3
    8    -153.7765417108185488    -9.66e-05  6.16e-05  1.46e-03  1.62e-03     0.3
    9    -153.7766021175399942    -6.04e-05  1.62e-05  7.18e-04  4.52e-04     0.3
   10    -153.7766044852085656    -2.37e-06  1.54e-05  5.24e-04  3.05e-04     0.3
   11    -153.7766060294327417    -1.54e-06  7.87e-06  3.12e-04  2.19e-04     0.3
   12    -153.7766067807090735    -7.51e-07  1.46e-05  5.47e-04  2.12e-04     0.3
   13    -153.7766078701312153    -1.09e-06  2.02e-05  8.70e-04  2.27e-04     0.2
   14    -153.7766092659876449    -1.40e-06  3.92e-05  1.81e-03  3.45e-04     0.3
   15    -153.7766117189660804    -2.45e-06  5.01e-05  2.36e-03  4.23e-04     0.3
   16    -153.7766144463990372    -2.73e-06  3.71e-05  1.72e-03  3.60e-04     0.3
   17    -153.7766162033052524    -1.76e-06  9.03e-06  2.59e-04  1.65e-04     0.3
   18    -153.7766166893921422    -4.86e-07  4.44e-06  1.95e-04  4.69e-05     0.3
   19    -153.7766167584255186    -6.90e-08  1.67e-06  7.64e-05  2.46e-05     0.3
   20    -153.7766167679655496    -9.54e-09  5.11e-07  1.87e-05  1.08e-05     0.3
                 **** Energy Check signals convergence ****

               *****************************************************
               *                     SUCCESS                       *
               *           SCF CONVERGED AFTER  20 CYCLES          *
               *****************************************************

Recomputing exchange energy using gridx3       ... done (    0.177 sec)
Old exchange energy                            :     -6.199835186 Eh
New exchange energy                            :     -6.199838145 Eh
Exchange energy change after final integration :     -0.000002959 Eh
Total energy after final integration           :   -153.776619727 Eh
             **** ENERGY FILE WAS UPDATED (orca.en.tmp) ****

----------------
TOTAL SCF ENERGY
----------------

Total Energy       :       -153.77661972686613 Eh           -4184.47456 eV

Components:
Nuclear Repulsion  :         67.23456607554139 Eh            1829.54556 eV
Electronic Energy  :       -221.01118284350693 Eh           -6014.02003 eV
One Electron Energy:       -341.04320332125252 Eh           -9280.25736 eV
Two Electron Energy:        120.03202047774559 Eh            3266.23733 eV

Virial components:
Potential Energy   :       -307.11024824312346 Eh           -8356.89471 eV
Kinetic Energy     :        153.33362851625736 Eh            4172.42015 eV
Virial Ratio       :          2.00288906755090

DFT components:
N(Alpha)           :       12.999986896293 electrons
N(Beta)            :       10.999978671664 electrons
N(Total)           :       23.999965567958 electrons
E(XC)              :      -14.700142477646 Eh       

---------------
SCF CONVERGENCE
---------------

  Last Energy change         ...    9.5400e-09  Tolerance :   1.0000e-08
  Last MAX-Density change    ...    1.8738e-05  Tolerance :   1.0000e-07
  Last RMS-Density change    ...    5.1132e-07  Tolerance :   5.0000e-09
  Last DIIS Error            ...    3.2381e-03  Tolerance :   5.0000e-07
  Last Orbital Gradient      ...    1.0776e-05  Tolerance :   1.0000e-05
  Last Orbital Rotation      ...    5.6855e-05  Tolerance :   1.0000e-05


----------------------
UHF SPIN CONTAMINATION
----------------------

Warning: in a DFT calculation there is little theoretical justification to 
         calculate <S**2> as in Hartree-Fock theory. We will do it anyways
         but you should keep in mind that the values have only limited relevance

Expectation value of <S**2>     :     2.007852
Ideal value S*(S+1) for S=1.0   :     2.000000
Deviation                       :     0.007852

----------------
ORBITAL ENERGIES
----------------
                 SPIN UP ORBITALS
  NO   OCC          E(Eh)            E(eV) 
   0   1.0000     -19.390669      -527.6469 
   1   1.0000     -10.416566      -283.4492 
   2   1.0000     -10.358449      -281.8677 
   3   1.0000      -1.147483       -31.2246 
   4   1.0000      -0.890829       -24.2407 
   5   1.0000      -0.734830       -19.9957 
   6   1.0000      -0.619693       -16.8627 
   7   1.0000      -0.571567       -15.5531 
   8   1.0000      -0.556496       -15.1430 
   9   1.0000      -0.519754       -14.1432 
  10   1.0000      -0.443077       -12.0567 
  11   1.0000      -0.416228       -11.3261 
  12   1.0000      -0.329908        -8.9773 
  13   0.0000       0.041548         1.1306 
  14   0.0000       0.062168         1.6917 
  15   0.0000       0.077263         2.1024 
  16   0.0000       0.088317         2.4032 
  17   0.0000       0.114611         3.1187 
  18   0.0000       0.124565         3.3896 
  19   0.0000       0.128681         3.5016 
  20   0.0000       0.140123         3.8129 
  21   0.0000       0.172880         4.7043 
  22   0.0000       0.185520         5.0483 
  23   0.0000       0.204408         5.5622 

                 SPIN DOWN ORBITALS
  NO   OCC          E(Eh)            E(eV) 
   0   1.0000     -19.365452      -526.9607 
   1   1.0000     -10.417993      -283.4880 
   2   1.0000     -10.345741      -281.5219 
   3   1.0000      -1.088767       -29.6268 
   4   1.0000      -0.857849       -23.3433 
   5   1.0000      -0.710020       -19.3206 
   6   1.0000      -0.590584       -16.0706 
   7   1.0000      -0.548717       -14.9314 
   8   1.0000      -0.526659       -14.3311 
   9   1.0000      -0.483701       -13.1622 
  10   1.0000      -0.384821       -10.4715 
  11   0.0000      -0.050624        -1.3775 
  12   0.0000      -0.006745        -0.1835 
  13   0.0000       0.040309         1.0969 
  14   0.0000       0.062284         1.6948 
  15   0.0000       0.077301         2.1035 
  16   0.0000       0.090454         2.4614 
  17   0.0000       0.115114         3.1324 
  18   0.0000       0.128806         3.5050 
  19   0.0000       0.130086         3.5398 
  20   0.0000       0.144143         3.9223 
  21   0.0000       0.180708         4.9173 
*Only the first 10 virtual orbitals were printed.

                    ********************************
                    * MULLIKEN POPULATION ANALYSIS *
                    ********************************

--------------------------------------------
MULLIKEN ATOMIC CHARGES AND SPIN POPULATIONS
--------------------------------------------
   0 O :   -0.314102    0.976951
   1 C :    0.014375    0.002447
   2 C :   -0.654134    0.809267
   3 H :    0.179399    0.064695
   4 H :    0.217080    0.077496
   5 H :    0.292018    0.040352
   6 H :    0.265364    0.028792
Sum of atomic charges         :   -0.0000000
Sum of atomic spin populations:    2.0000000

-----------------------------------------------------
MULLIKEN REDUCED ORBITAL CHARGES AND SPIN POPULATIONS
-----------------------------------------------------
CHARGE
  0 O s       :     3.989194  s :     3.989194
      pz      :     1.324525  p :     4.304878
      px      :     1.745445
      py      :     1.234908
      dz2     :     0.005123  d :     0.018991
      dxz     :     0.002319
      dyz     :     0.006558
      dx2y2   :     0.002323
      dxy     :     0.002668
      f0      :     0.000166  f :     0.001038
      f+1     :     0.000069
      f-1     :     0.000303
      f+2     :     0.000228
      f-2     :     0.000148
      f+3     :     0.000056
      f-3     :     0.000068

  1 C s       :     3.229576  s :     3.229576
      pz      :     0.833750  p :     2.614094
      px      :     0.920767
      py      :     0.859577
      dz2     :     0.037333  d :     0.132710
      dxz     :     0.023085
      dyz     :     0.035621
      dx2y2   :    -0.005756
      dxy     :     0.042427
      f0      :     0.001418  f :     0.009245
      f+1     :     0.000867
      f-1     :     0.001838
      f+2     :     0.001067
      f-2     :     0.002131
      f+3     :     0.001091
      f-3     :     0.000833

  2 C s       :     3.633452  s :     3.633452
      pz      :     0.911180  p :     3.001466
      px      :     1.016284
      py      :     1.074002
      dz2     :     0.005428  d :     0.015512
      dxz     :     0.002284
      dyz     :     0.008745
      dx2y2   :    -0.002434
      dxy     :     0.001489
      f0      :     0.000434  f :     0.003704
      f+1     :     0.000568
      f-1     :     0.000480
      f+2     :     0.000062
      f-2     :     0.000512
      f+3     :     0.001003
      f-3     :     0.000645

  3 H s       :     0.774718  s :     0.774718
      pz      :     0.009381  p :     0.043306
      px      :     0.017813
      py      :     0.016112
      dz2     :     0.000208  d :     0.002577
      dxz     :     0.000465
      dyz     :     0.000410
      dx2y2   :     0.000831
      dxy     :     0.000664

  4 H s       :     0.751894  s :     0.751894
      pz      :     0.016623  p :     0.028701
      px      :    -0.001237
      py      :     0.013315
      dz2     :     0.000824  d :     0.002325
      dxz     :     0.000466
      dyz     :     0.000588
      dx2y2   :     0.000158
      dxy     :     0.000289

  5 H s       :     0.666706  s :     0.666706
      pz      :     0.027304  p :     0.038968
      px      :     0.008196
      py      :     0.003469
      dz2     :     0.000110  d :     0.002308
      dxz     :     0.000013
      dyz     :     0.000917
      dx2y2   :     0.000312
      dxy     :     0.000956

  6 H s       :     0.695441  s :     0.695441
      pz      :     0.020860  p :     0.036970
      px      :     0.014031
      py      :     0.002079
      dz2     :     0.000144  d :     0.002225
      dxz     :     0.000766
      dyz     :     0.000094
      dx2y2   :     0.000589
      dxy     :     0.000633


SPIN
  0 O s       :     0.005109  s :     0.005109
      pz      :     0.258706  p :     0.975922
      px      :     0.204474
      py      :     0.512743
      dz2     :    -0.002375  d :    -0.003951
      dxz     :    -0.000165
      dyz     :    -0.000265
      dx2y2   :    -0.000593
      dxy     :    -0.000553
      f0      :    -0.000023  f :    -0.000130
      f+1     :     0.000014
      f-1     :    -0.000136
      f+2     :    -0.000026
      f-2     :    -0.000014
      f+3     :     0.000021
      f-3     :     0.000032

  1 C s       :     0.025043  s :     0.025043
      pz      :    -0.056751  p :    -0.096552
      px      :    -0.009613
      py      :    -0.030188
      dz2     :     0.024581  d :     0.071296
      dxz     :     0.010896
      dyz     :     0.025444
      dx2y2   :     0.000506
      dxy     :     0.009868
      f0      :     0.001027  f :     0.002661
      f+1     :     0.000174
      f-1     :     0.000182
      f+2     :     0.000353
      f-2     :     0.000712
      f+3     :     0.000087
      f-3     :     0.000126

  2 C s       :    -0.052785  s :    -0.052785
      pz      :     0.847463  p :     0.873895
      px      :     0.022115
      py      :     0.004317
      dz2     :    -0.004192  d :    -0.010712
      dxz     :    -0.000548
      dyz     :     0.000079
      dx2y2   :     0.000237
      dxy     :    -0.006287
      f0      :    -0.000133  f :    -0.001131
      f+1     :    -0.000446
      f-1     :    -0.000439
      f+2     :    -0.000005
      f-2     :     0.000007
      f+3     :     0.000055
      f-3     :    -0.000169

  3 H s       :     0.058542  s :     0.058542
      pz      :     0.000637  p :     0.006115
      px      :     0.001910
      py      :     0.003567
      dz2     :     0.000018  d :     0.000038
      dxz     :     0.000001
      dyz     :     0.000023
      dx2y2   :    -0.000014
      dxy     :     0.000009

  4 H s       :     0.074089  s :     0.074089
      pz      :     0.003174  p :     0.003355
      px      :     0.000023
      py      :     0.000157
      dz2     :     0.000013  d :     0.000052
      dxz     :    -0.000002
      dyz     :     0.000024
      dx2y2   :    -0.000011
      dxy     :     0.000029

  5 H s       :     0.008852  s :     0.008852
      pz      :     0.026879  p :     0.030398
      px      :     0.003366
      py      :     0.000153
      dz2     :    -0.000003  d :     0.001101
      dxz     :     0.000004
      dyz     :     0.000884
      dx2y2   :     0.000022
      dxy     :     0.000193

  6 H s       :     0.006123  s :     0.006123
      pz      :     0.020836  p :     0.021659
      px      :     0.000989
      py      :    -0.000165
      dz2     :    -0.000017  d :     0.001009
      dxz     :     0.000746
      dyz     :     0.000094
      dx2y2   :     0.000074
      dxy     :     0.000112



                     *******************************
                     * LOEWDIN POPULATION ANALYSIS *
                     *******************************

-------------------------------------------
LOEWDIN ATOMIC CHARGES AND SPIN POPULATIONS
-------------------------------------------
   0 O :    0.023063    0.919765
   1 C :   -0.216759    0.186021
   2 C :    0.263303    0.633505
   3 H :    0.039040    0.036384
   4 H :    0.045923    0.051818
   5 H :   -0.114512    0.097962
   6 H :   -0.040058    0.074544

----------------------------------------------------
LOEWDIN REDUCED ORBITAL CHARGES AND SPIN POPULATIONS
----------------------------------------------------
CHARGE
  0 O s       :     3.525172  s :     3.525172
      pz      :     1.365959  p :     4.208428
      px      :     1.607670
      py      :     1.234799
      dz2     :     0.073611  d :     0.240224
      dxz     :     0.041151
      dyz     :     0.061693
      dx2y2   :     0.022154
      dxy     :     0.041616
      f0      :     0.000631  f :     0.003114
      f+1     :     0.000216
      f-1     :     0.000797
      f+2     :     0.000590
      f-2     :     0.000588
      f+3     :     0.000160
      f-3     :     0.000132

  1 C s       :     2.664304  s :     2.664304
      pz      :     0.818906  p :     2.601144
      px      :     0.925815
      py      :     0.856424
      dz2     :     0.164103  d :     0.877069
      dxz     :     0.135906
      dyz     :     0.228496
      dx2y2   :     0.147404
      dxy     :     0.201160
      f0      :     0.009400  f :     0.074242
      f+1     :     0.008496
      f-1     :     0.015556
      f+2     :     0.012100
      f-2     :     0.013015
      f+3     :     0.008448
      f-3     :     0.007229

  2 C s       :     2.710587  s :     2.710587
      pz      :     0.672762  p :     2.588966
      px      :     0.943471
      py      :     0.972733
      dz2     :     0.036879  d :     0.411722
      dxz     :     0.047143
      dyz     :     0.039476
      dx2y2   :     0.176833
      dxy     :     0.111391
      f0      :     0.002712  f :     0.025422
      f+1     :     0.002901
      f-1     :     0.002516
      f+2     :     0.000794
      f-2     :     0.003623
      f+3     :     0.006624
      f-3     :     0.006252

  3 H s       :     0.673027  s :     0.673027
      pz      :     0.063021  p :     0.259524
      px      :     0.106589
      py      :     0.089914
      dz2     :     0.003087  d :     0.028408
      dxz     :     0.004671
      dyz     :     0.003630
      dx2y2   :     0.008359
      dxy     :     0.008662

  4 H s       :     0.682805  s :     0.682805
      pz      :     0.101476  p :     0.244924
      px      :     0.065298
      py      :     0.078150
      dz2     :     0.008094  d :     0.026348
      dxz     :     0.005467
      dyz     :     0.007780
      dx2y2   :     0.001919
      dxy     :     0.003088

  5 H s       :     0.742810  s :     0.742810
      pz      :     0.097580  p :     0.331399
      px      :     0.090668
      py      :     0.143152
      dz2     :     0.003622  d :     0.040303
      dxz     :     0.000160
      dyz     :     0.012921
      dx2y2   :     0.010683
      dxy     :     0.012916

  6 H s       :     0.726751  s :     0.726751
      pz      :     0.079556  p :     0.282354
      px      :     0.120701
      py      :     0.082097
      dz2     :     0.002835  d :     0.030953
      dxz     :     0.008539
      dyz     :     0.001176
      dx2y2   :     0.009436
      dxy     :     0.008967


SPIN
  0 O s       :     0.015667  s :     0.015667
      pz      :     0.231126  p :     0.892388
      px      :     0.194691
      py      :     0.466571
      dz2     :     0.004703  d :     0.011730
      dxz     :     0.000335
      dyz     :     0.000522
      dx2y2   :     0.000881
      dxy     :     0.005288
      f0      :     0.000048  f :    -0.000020
      f+1     :     0.000014
      f-1     :    -0.000149
      f+2     :    -0.000017
      f-2     :     0.000045
      f+3     :     0.000016
      f-3     :     0.000023

  1 C s       :    -0.004316  s :    -0.004316
      pz      :    -0.011005  p :    -0.022139
      px      :    -0.008060
      py      :    -0.003074
      dz2     :     0.055321  d :     0.192254
      dxz     :     0.048755
      dyz     :     0.063375
      dx2y2   :     0.004572
      dxy     :     0.020231
      f0      :     0.006897  f :     0.020222
      f+1     :     0.001895
      f-1     :     0.001766
      f+2     :     0.003106
      f-2     :     0.004754
      f+3     :     0.000355
      f-3     :     0.001449

  2 C s       :     0.011055  s :     0.011055
      pz      :     0.599899  p :     0.624769
      px      :     0.013225
      py      :     0.011645
      dz2     :    -0.001024  d :    -0.001773
      dxz     :     0.000512
      dyz     :     0.002083
      dx2y2   :    -0.002876
      dxy     :    -0.000469
      f0      :     0.000784  f :    -0.000546
      f+1     :    -0.000436
      f-1     :    -0.000447
      f+2     :    -0.000015
      f-2     :    -0.000110
      f+3     :     0.000097
      f-3     :    -0.000420

  3 H s       :     0.033721  s :     0.033721
      pz      :     0.000891  p :     0.003108
      px      :    -0.000326
      py      :     0.002543
      dz2     :     0.000004  d :    -0.000446
      dxz     :    -0.000174
      dyz     :    -0.000012
      dx2y2   :    -0.000101
      dxy     :    -0.000162

  4 H s       :     0.042738  s :     0.042738
      pz      :     0.001505  p :     0.009447
      px      :     0.001646
      py      :     0.006297
      dz2     :    -0.000198  d :    -0.000366
      dxz     :    -0.000079
      dyz     :    -0.000086
      dx2y2   :    -0.000058
      dxy     :     0.000055

  5 H s       :    -0.008890  s :    -0.008890
      pz      :     0.088549  p :     0.093350
      px      :     0.000885
      py      :     0.003916
      dz2     :     0.000310  d :     0.013503
      dxz     :     0.000071
      dyz     :     0.011966
      dx2y2   :     0.000531
      dxy     :     0.000625

  6 H s       :    -0.011606  s :    -0.011606
      pz      :     0.071109  p :     0.075886
      px      :     0.003937
      py      :     0.000839
      dz2     :     0.000014  d :     0.010265
      dxz     :     0.008202
      dyz     :     0.001141
      dx2y2   :     0.000469
      dxy     :     0.000439



                      *****************************
                      * MAYER POPULATION ANALYSIS *
                      *****************************

  NA   - Mulliken gross atomic population
  ZA   - Total nuclear charge
  QA   - Mulliken gross atomic charge
  VA   - Mayer's total valence
  BVA  - Mayer's bonded valence
  FA   - Mayer's free valence

  ATOM       NA         ZA         QA         VA         BVA        FA
  0 O      8.3141     8.0000    -0.3141     1.8406     1.0125     0.8281
  1 C      5.9856     6.0000     0.0144     3.4902     3.4780     0.0123
  2 C      6.6541     6.0000    -0.6541     3.4092     2.6648     0.7444
  3 H      0.8206     1.0000     0.1794     1.0369     1.0341     0.0027
  4 H      0.7829     1.0000     0.2171     0.9866     0.9817     0.0049
  5 H      0.7080     1.0000     0.2920     0.8822     0.8817     0.0005
  6 H      0.7346     1.0000     0.2654     0.9303     0.9298     0.0005

  Mayer bond orders larger than 0.100000
B(  0-O ,  1-C ) :   0.8476 B(  1-C ,  2-C ) :   0.7500 B(  1-C ,  3-H ) :   0.9803 
B(  1-C ,  4-H ) :   0.9622 B(  2-C ,  5-H ) :   0.9233 B(  2-C ,  6-H ) :   0.9547 


-------
TIMINGS
-------

Total SCF time: 0 days 0 hours 0 min 7 sec 

Total time                  ....       7.490 sec
Sum of individual times     ....       7.451 sec  ( 99.5%)

SCF preparation             ....       1.605 sec  ( 21.4%)
Fock matrix formation       ....       4.648 sec  ( 62.1%)
  Startup                   ....       0.076 sec  (  1.6% of F)
  Split-RI-J                ....       0.503 sec  ( 10.8% of F)
  Chain of spheres X        ....       2.543 sec  ( 54.7% of F)
  XC integration            ....       1.220 sec  ( 26.2% of F)
    XC Preparation          ....       0.000 sec  (  0.0% of XC)
    Basis function eval.    ....       0.059 sec  (  4.8% of XC)
    Density eval.           ....       0.218 sec  ( 17.9% of XC)
    XC-Functional eval.     ....       0.015 sec  (  1.2% of XC)
    XC-Potential eval.      ....       0.310 sec  ( 25.4% of XC)
Diagonalization             ....       0.000 sec  (  0.0%)
Density matrix formation    ....       0.150 sec  (  2.0%)
Total Energy calculation    ....       0.141 sec  (  1.9%)
Population analysis         ....       0.044 sec  (  0.6%)
Orbital Transformation      ....       0.078 sec  (  1.0%)
[...]
[1741606283.793176] [ohm:3030378:0]        ib_iface.c:1059 UCX  ERROR ibv_create_cq(cqe=256) failed: Connection timed out
[1741606283.801269] [ohm:3030341:0]        ib_iface.c:1059 UCX  ERROR ibv_create_cq(cqe=256) failed: Connection timed out
[1741606283.802863] [ohm:3030322:0]        ib_iface.c:1059 UCX  ERROR ibv_create_cq(cqe=256) failed: Connection timed out
[1741606283.803330] [ohm:3030371:0]        ib_iface.c:1059 UCX  ERROR ibv_create_cq(cqe=256) failed: Connection timed out
[1741606283.803521] [ohm:3030355:0]        ib_iface.c:1059 UCX  ERROR ibv_create_cq(cqe=256) failed: Connection timed out
[1741606283.803506] [ohm:3030399:0]        ib_iface.c:1059 UCX  ERROR ibv_create_cq(cqe=256) failed: Connection timed out
[1741606283.804110] [ohm:3030331:0]        ib_iface.c:1059 UCX  ERROR ibv_create_cq(cqe=256) failed: Connection timed out
[1741606283.804095] [ohm:3030299:0]        ib_iface.c:1059 UCX  ERROR ibv_create_cq(cqe=256) failed: Connection timed out
[1741606283.804340] [ohm:3030390:0]        ib_iface.c:1059 UCX  ERROR ibv_create_cq(cqe=256) failed: Connection timed out
[1741606283.804340] [ohm:3030363:0]        ib_iface.c:1059 UCX  ERROR ibv_create_cq(cqe=256) failed: Connection timed out


           ************************************************************
           *        Program running with 64 parallel MPI-processes    *
           *              working on a common directory               *
           ************************************************************

------------------------------------------------------------------------------
                              ORCA PROPERTY CALCULATIONS
------------------------------------------------------------------------------

GBWName                                 ... orca.gbw
Number of atoms                         ...      7
Number of basis functions               ...    182
Max core memory                         ...   1024 MB

Electric properties:
Dipole moment                           ... YES
Quadrupole moment                       ...  NO
Static polarizability (Dipole/Dipole)   ...  NO
Static polarizability (Dipole/Quad.)    ...  NO
Static polarizability (Quad./Quad.)     ...  NO
Static polarizability (Velocity)        ...  NO

Atomic electric properties:
Dipole moment                           ...  NO
Quadrupole moment                       ...  NO
Static polarizability                   ...  NO

Choice of electric origin               ... Center of mass
Position of electric origin             ...     0.756713     0.129739     0.139725

General magnetic properties:
Magnetizability                         ...  NO

EPR properties:
g-Tensor (aka g-matrix)                 ...  NO
Zero-Field splitting spin-orbit         ...  NO
Zero-field splitting spin-spin          ...  NO
Hyperfine couplings                     ...  NO (   0 nuclei)
Quadrupole couplings                    ...  NO (   0 nuclei)
Contact density                         ...  NO (   0 nuclei)

NMR properties:
Chemical shifts                         ...  NO (   0 nuclei)
Spin-rotation constants                 ...  NO (   0 nuclei)
Spin-spin couplings                     ...  NO (   0 nuclei,    0 pairs)

Choice of magnetic origin               ... GIAO
Position of magnetic origin             ...     0.000000     0.000000     0.000000

Properties with geometric perturbations:
SCF Hessian                             ...  NO
IR spectrum                             ...  NO
VCD spectrum                            ...  NO
X-ray spectroscopy properties:
SCF XES/XAS/RIXS spectra                ...  NO


-------------
DIPOLE MOMENT
-------------

Method             : SCF
Type of density    : Electron Density
Multiplicity       :   3
Irrep              :   0
Energy             :  -153.7766197268661301 Eh
Relativity type    : 
Basis              : AO
                                X                 Y                 Z
Electronic contribution:      0.716663046      -1.818382857      -1.563186377
Nuclear contribution   :     -0.745435357       2.330877692       2.148230552
                        -----------------------------------------
Total Dipole Moment    :     -0.028772311       0.512494835       0.585044175
                        -----------------------------------------
Magnitude (a.u.)       :      0.778302954
Magnitude (Debye)      :      1.978288892



--------------------
Rotational spectrum 
--------------------
 
Rotational constants in cm-1:             1.469313             0.335060             0.300293 
Rotational constants in MHz :         44048.885819         10044.846990          9002.568718 

Dipole components along the rotational axes: 
x,y,z [a.u.] :     0.665663    -0.403253     0.005950 
x,y,z [Debye]:     1.691981    -1.024987     0.015123 

 

-------------
DIPOLE MOMENT
-------------

Method             : TDA/CIS
Type of density    : Electron Density
Level              : Relaxed density
State              :   1
Multiplicity       :   3
Irrep              :   0
Energy             :     0.0000000000000000 Eh
Relativity type    : 
Basis              : AO
                                X                 Y                 Z
Electronic contribution:      0.624277358      -1.562726074      -1.480735057
Nuclear contribution   :     -0.745435357       2.330877692       2.148230552
                        -----------------------------------------
Total Dipole Moment    :     -0.121157999       0.768151618       0.667495495
                        -----------------------------------------
Magnitude (a.u.)       :      1.024834818
Magnitude (Debye)      :      2.604923091



--------------------
Rotational spectrum 
--------------------
 
Rotational constants in cm-1:             1.469313             0.335060             0.300293 
Rotational constants in MHz :         44048.885819         10044.846990          9002.568718 

Dipole components along the rotational axes: 
x,y,z [a.u.] :     0.933849    -0.413052    -0.087185 
x,y,z [Debye]:     2.373655    -1.049894    -0.221607 

 

Dipole moment calculation done in   0.0 sec 

Maximum memory used throughout the entire PROP-calculation: 7.4 MB
[1741606285.523214] [ohm:3030580:0]        ib_iface.c:1059 UCX  ERROR ibv_create_cq(cqe=256) failed: Connection timed out
[1741606285.528990] [ohm:3030610:0]        ib_iface.c:1059 UCX  ERROR ibv_create_cq(cqe=256) failed: Connection timed out
[1741606285.530613] [ohm:3030583:0]        ib_iface.c:1059 UCX  ERROR ibv_create_cq(cqe=256) failed: Connection timed out
[1741606285.539600] [ohm:3030579:0]        ib_iface.c:1059 UCX  ERROR ibv_create_cq(cqe=256) failed: Connection timed out
[1741606285.543428] [ohm:3030613:0]        ib_iface.c:1059 UCX  ERROR ibv_create_cq(cqe=256) failed: Connection timed out
[1741606285.543966] [ohm:3030578:0]        ib_iface.c:1059 UCX  ERROR ibv_create_cq(cqe=256) failed: Connection timed out
[1741606285.577301] [ohm:3030582:0]        ib_iface.c:1059 UCX  ERROR ibv_create_cq(cqe=256) failed: Connection timed out
[1741606285.580294] [ohm:3030590:0]        ib_iface.c:1059 UCX  ERROR ibv_create_cq(cqe=256) failed: Connection timed out
[1741606285.583901] [ohm:3030589:0]        ib_iface.c:1059 UCX  ERROR ibv_create_cq(cqe=256) failed: Connection timed out
[1741606285.584466] [ohm:3030592:0]        ib_iface.c:1059 UCX  ERROR ibv_create_cq(cqe=256) failed: Connection timed out
[1741606285.597785] [ohm:3030611:0]        ib_iface.c:1059 UCX  ERROR ibv_create_cq(cqe=256) failed: Connection timed out
[1741606285.600378] [ohm:3030591:0]        ib_iface.c:1059 UCX  ERROR ibv_create_cq(cqe=256) failed: Connection timed out
[1741606285.606938] [ohm:3030581:0]        ib_iface.c:1059 UCX  ERROR ibv_create_cq(cqe=256) failed: Connection timed out
[1741606285.633153] [ohm:3030664:0]        ib_iface.c:1059 UCX  ERROR ibv_create_cq(cqe=256) failed: Connection timed out
[1741606285.637675] [ohm:3030588:0]        ib_iface.c:1059 UCX  ERROR ibv_create_cq(cqe=256) failed: Connection timed out
[1741606285.641065] [ohm:3030646:0]        ib_iface.c:1059 UCX  ERROR ibv_create_cq(cqe=256) failed: Connection timed out
[1741606285.648457] [ohm:3030608:0]        ib_iface.c:1059 UCX  ERROR ibv_create_cq(cqe=256) failed: Connection timed out
[1741606285.651187] [ohm:3030595:0]        ib_iface.c:1059 UCX  ERROR ibv_create_cq(cqe=256) failed: Connection timed out
[1741606285.659323] [ohm:3030638:0]        ib_iface.c:1059 UCX  ERROR ibv_create_cq(cqe=256) failed: Connection timed out
[1741606285.659590] [ohm:3030585:0]        ib_iface.c:1059 UCX  ERROR ibv_create_cq(cqe=256) failed: Connection timed out
[1741606285.682495] [ohm:3030634:0]        ib_iface.c:1059 UCX  ERROR ibv_create_cq(cqe=256) failed: Connection timed out
[1741606285.693462] [ohm:3030621:0]        ib_iface.c:1059 UCX  ERROR ibv_create_cq(cqe=256) failed: Connection timed out
[1741606285.693626] [ohm:3030667:0]        ib_iface.c:1059 UCX  ERROR ibv_create_cq(cqe=256) failed: Connection timed out
[1741606285.695314] [ohm:3030641:0]        ib_iface.c:1059 UCX  ERROR ibv_create_cq(cqe=256) failed: Connection timed out
[1741606285.695980] [ohm:3030660:0]        ib_iface.c:1059 UCX  ERROR ibv_create_cq(cqe=256) failed: Connection timed out
[1741606285.699316] [ohm:3030639:0]        ib_iface.c:1059 UCX  ERROR ibv_create_cq(cqe=256) failed: Connection timed out
[1741606285.706977] [ohm:3030647:0]        ib_iface.c:1059 UCX  ERROR ibv_create_cq(cqe=256) failed: Connection timed out
[1741606285.709887] [ohm:3030701:0]        ib_iface.c:1059 UCX  ERROR ibv_create_cq(cqe=256) failed: Connection timed out
[1741606285.716103] [ohm:3030721:0]        ib_iface.c:1059 UCX  ERROR ibv_create_cq(cqe=256) failed: Connection timed out
[1741606285.731054] [ohm:3030719:0]        ib_iface.c:1059 UCX  ERROR ibv_create_cq(cqe=256) failed: Connection timed out
[1741606285.732182] [ohm:3030644:0]        ib_iface.c:1059 UCX  ERROR ibv_create_cq(cqe=256) failed: Connection timed out
[1741606285.733499] [ohm:3030694:0]        ib_iface.c:1059 UCX  ERROR ibv_create_cq(cqe=256) failed: Connection timed out
[1741606285.745600] [ohm:3030735:0]        ib_iface.c:1059 UCX  ERROR ibv_create_cq(cqe=256) failed: Connection timed out
[1741606285.750944] [ohm:3030645:0]        ib_iface.c:1059 UCX  ERROR ibv_create_cq(cqe=256) failed: Connection timed out
[1741606285.754755] [ohm:3030676:0]        ib_iface.c:1059 UCX  ERROR ibv_create_cq(cqe=256) failed: Connection timed out
[1741606285.757111] [ohm:3030655:0]        ib_iface.c:1059 UCX  ERROR ibv_create_cq(cqe=256) failed: Connection timed out
[1741606285.758123] [ohm:3030665:0]        ib_iface.c:1059 UCX  ERROR ibv_create_cq(cqe=256) failed: Connection timed out
[1741606285.772401] [ohm:3030609:0]        ib_iface.c:1059 UCX  ERROR ibv_create_cq(cqe=256) failed: Connection timed out
[1741606285.777171] [ohm:3030586:0]        ib_iface.c:1059 UCX  ERROR ibv_create_cq(cqe=256) failed: Connection timed out
[1741606285.779616] [ohm:3030686:0]        ib_iface.c:1059 UCX  ERROR ibv_create_cq(cqe=256) failed: Connection timed out
[1741606285.796212] [ohm:3030713:0]        ib_iface.c:1059 UCX  ERROR ibv_create_cq(cqe=256) failed: Connection timed out
[1741606285.797193] [ohm:3030616:0]        ib_iface.c:1059 UCX  ERROR ibv_create_cq(cqe=256) failed: Connection timed out
[1741606285.804077] [ohm:3030689:0]        ib_iface.c:1059 UCX  ERROR ibv_create_cq(cqe=256) failed: Connection timed out
[1741606285.806768] [ohm:3030681:0]        ib_iface.c:1059 UCX  ERROR ibv_create_cq(cqe=256) failed: Connection timed out
[1741606285.811648] [ohm:3030633:0]        ib_iface.c:1059 UCX  ERROR ibv_create_cq(cqe=256) failed: Connection timed out
[1741606285.812004] [ohm:3030650:0]        ib_iface.c:1059 UCX  ERROR ibv_create_cq(cqe=256) failed: Connection timed out
[1741606285.817268] [ohm:3030625:0]        ib_iface.c:1059 UCX  ERROR ibv_create_cq(cqe=256) failed: Connection timed out
[1741606285.817260] [ohm:3030724:0]        ib_iface.c:1059 UCX  ERROR ibv_create_cq(cqe=256) failed: Connection timed out
[1741606285.818935] [ohm:3030637:0]        ib_iface.c:1059 UCX  ERROR ibv_create_cq(cqe=256) failed: Connection timed out
[1741606285.820145] [ohm:3030691:0]        ib_iface.c:1059 UCX  ERROR ibv_create_cq(cqe=256) failed: Connection timed out
[1741606285.823850] [ohm:3030643:0]        ib_iface.c:1059 UCX  ERROR ibv_create_cq(cqe=256) failed: Connection timed out
[1741606285.825356] [ohm:3030696:0]        ib_iface.c:1059 UCX  ERROR ibv_create_cq(cqe=256) failed: Connection timed out
[1741606285.825383] [ohm:3030640:0]        ib_iface.c:1059 UCX  ERROR ibv_create_cq(cqe=256) failed: Connection timed out
[1741606285.825819] [ohm:3030636:0]        ib_iface.c:1059 UCX  ERROR ibv_create_cq(cqe=256) failed: Connection timed out
[1741606285.826322] [ohm:3030709:0]        ib_iface.c:1059 UCX  ERROR ibv_create_cq(cqe=256) failed: Connection timed out
[1741606285.826739] [ohm:3030584:0]        ib_iface.c:1059 UCX  ERROR ibv_create_cq(cqe=256) failed: Connection timed out
[1741606285.827708] [ohm:3030587:0]        ib_iface.c:1059 UCX  ERROR ibv_create_cq(cqe=256) failed: Connection timed out
[1741606285.827755] [ohm:3030648:0]        ib_iface.c:1059 UCX  ERROR ibv_create_cq(cqe=256) failed: Connection timed out
[1741606285.831270] [ohm:3030716:0]        ib_iface.c:1059 UCX  ERROR ibv_create_cq(cqe=256) failed: Connection timed out
[1741606285.832869] [ohm:3030674:0]        ib_iface.c:1059 UCX  ERROR ibv_create_cq(cqe=256) failed: Connection timed out
[1741606285.834987] [ohm:3030706:0]        ib_iface.c:1059 UCX  ERROR ibv_create_cq(cqe=256) failed: Connection timed out
[1741606285.835062] [ohm:3030728:0]        ib_iface.c:1059 UCX  ERROR ibv_create_cq(cqe=256) failed: Connection timed out
[1741606285.835143] [ohm:3030670:0]        ib_iface.c:1059 UCX  ERROR ibv_create_cq(cqe=256) failed: Connection timed out
[1741606285.836503] [ohm:3030642:0]        ib_iface.c:1059 UCX  ERROR ibv_create_cq(cqe=256) failed: Connection timed out

--------------------------------
SUGGESTED CITATIONS FOR THIS RUN
--------------------------------

Below you find a list of papers that are relevant to this ORCA run
We neither can nor want to force you to cite these papers, but we appreciate if you do
You receive ORCA, which is the product of decades of hard work by many enthusiastic individuals, for free
The only thing we kindly ask in return is that you cite our papers,
We deeply appreciate it, if you show your appreciation for ORCA by not just citing the generic ORCA reference.

Please note that relegating all ORCA citations to the supporting information does *not* help us.
SI sections are not indexed - citations you put there will not count into any citation statistics
But we need these citations in order to attract the funding resources that allow us to do what we are doing

Therefore, if you are a happy ORCA user, please consider citing a few of the papers listed below in the main body of your paper

In addition to the list printed below, the program has created the file orca.bibtex that contains the list in bibtex format
You can import this file easily into all common literature databanks and citation aid programs


List of essential papers. We consider these as the minimum necessary citations

  1. Neese,F.
     Software update: the ORCA program system, version 5.0
     WIRES Comput. Molec. Sci., 2022 12(1)e1606
     doi.org/10.1002/wcms.1606

List of papers to cite with high priority. The work reported in these papers was absolutely
necessary for this run to complete.
Our perspective: the developers of density functionals and basis sets usually get cited in chemistry papers
Good! But without the algorithms to do something with them, the functionals or basis sets would not do anything.
Hence, in our opinion, the algorithm design and method developments papers are equally worthy of getting cited

  1. Neese,F.; Olbrich,G.
     Efficient use of the resolution of the identity approximation in time-dependent density functional calculations with hybrid density functionals
     Chem. Phys. Lett., 2002 362 170-178
     doi.org/10.1016/s0009-2614(02)01053-9
  2. Neese,F.
     An improvement of the resolution of the identity approximation for the formation of the Coulomb matrix
     J. Comp. Chem., 2003 24(14)1740-1747
     doi.org/10.1002/jcc.10318
  3. Neese,F.; Wennmohs,F.; Hansen,A.; Becker,U.
     Efficient, approximate and parallel Hartree-Fock and hybrid DFT calculations. A 'chain-of-spheres' algorithm for the Hartree-Fock exchange
     Chem. Phys., 2009 356(1-3)98-109
     doi.org/10.1016/j.chemphys.2008.10.036
  4. Petrenko,T.; Kossmann,S.; Neese,F.
     Efficient time-dependent density functional theory approximations for hybrid density functionals: Analytical gradients and parallelization
     J. Chem. Phys., 2011 134 054116
     doi.org/10.1063/1.3533441
  5. Helmich-Paris,B.; de Souza,B.; Neese,F.; Izsák,R.
     An improved chain of spheres for exchange algorithm
     J. Chem. Phys., 2021 155 104109
     doi.org/doi: 10.1063/5.0058766.
  6. Neese,F.
     The SHARK Integral Generation and Digestion System
     J. Comp. Chem., 2022  1-16
     doi.org/10.1002/jcc.26942
  7. Lehtola,S.; Steigemann,C.; Oliveira,M.; Marques,M.
     Recent developments in Libxc - A comprehensive library of functionals for density functional theory
     Software X, 2018 7 
     doi.org/10.1016/j.softx.2017.11.002
  8. Grimme,S.; Antony,J.; Ehrlich,S.; Krieg,H.
     A consistent and accurate ab initio parametrization of density functional dispersion correction (DFT-D) for the 94 elements H-Pu
     J. Chem. Phys., 2010 132 154104-XXXX
     doi.org/10.1063/1.3382344
  9. Grimme,S.; Ehrlich,S.; Goerigk,L.
     Effect of the damping function in dispersion corrected density functional theory
     J. Comput. Chem., 2011 32(7)1456-1465
     doi.org/10.1002/jcc.21759

List of suggested additional citations. These are papers that are important in the 'surrounding' of 
of this run, or papers that preceded the highly important papers. If you like your results we are grateful for a citation.

  1. Izsak,R.; Neese,F.
     An overlap fitted chain of spheres exchange method
     J. Chem. Phys., 2011 135 144105
     doi.org/10.1063/1.3646921
  2. Izsak,R.; Hansen,A.; Neese,F.
     The resolution of identity and chain of spheres approximations for the LPNO-CCSD singles Fock term
     Molec. Phys., 2012 110 2413-2417
     doi.org/10.1080/00268976.2012.687466
  3. Neese,F.
     The ORCA program system
     WIRES Comput. Molec. Sci., 2012 2(1)73-78
     doi.org/10.1002/wcms.81
  4. Izsak,R.; Neese,F.; Klopper,W.
     Robust fitting techniques in the chain of spheres approximation to the Fock exchange: The role of the complementary space
     J. Chem. Phys., 2013 139 
     doi.org/10.1063/1.4819264
  5. Neese,F.
     Software update: the ORCA program system, version 4.0
     WIRES Comput. Molec. Sci., 2018 8(1)1-6
     doi.org/10.1002/wcms.1327
  6. Neese,F.; Wennmohs,F.; Becker,U.; Riplinger,C.
     The ORCA quantum chemistry program package
     J. Chem. Phys., 2020 152 Art. No. L224108
     doi.org/10.1063/5.0004608

List of optional additional citations

  1. Neese,F.
     Approximate second-order SCF convergence for spin unrestricted wavefunctions
     Chem. Phys. Lett., 2000 325(1-3)93-98
     doi.org/10.1016/s0009-2614(00)00662-x

Timings for individual modules:

Sum of individual times          ...       24.883 sec (=   0.415 min)
Startup calculation              ...        2.418 sec (=   0.040 min)   9.7 %
SCF iterations                   ...       10.070 sec (=   0.168 min)  40.5 %
Property integrals               ...        2.206 sec (=   0.037 min)   8.9 %
Property calculations            ...        2.046 sec (=   0.034 min)   8.2 %
CIS module                       ...        8.144 sec (=   0.136 min)  32.7 %
                             ****ORCA TERMINATED NORMALLY****
TOTAL RUN TIME: 0 days 0 hours 0 minutes 26 seconds 981 msec
