
                                 *****************
                                 * O   R   C   A *
                                 *****************

                                            #,                                       
                                            ###                                      
                                            ####                                     
                                            #####                                    
                                            ######                                   
                                           ########,                                 
                                     ,,################,,,,,                         
                               ,,#################################,,                 
                          ,,##########################################,,             
                       ,#########################################, ''#####,          
                    ,#############################################,,   '####,        
                  ,##################################################,,,,####,       
                ,###########''''           ''''###############################       
              ,#####''   ,,,,##########,,,,          '''####'''          '####       
            ,##' ,,,,###########################,,,                        '##       
           ' ,,###''''                  '''############,,,                           
         ,,##''                                '''############,,,,        ,,,,,,###''
      ,#''                                            '''#######################'''  
     '                                                          ''''####''''         
             ,#######,   #######,   ,#######,      ##                                
            ,#'     '#,  ##    ##  ,#'     '#,    #''#        ,####,   ,####,        
            ##       ##  ##   ,#'  ##            #'  '#       #'       #'  '#        
            ##       ##  #######   ##           ,######,      #####,   #    #        
            '#,     ,#'  ##    ##  '#,     ,#' ,#      #,     #,   #   #,  ,#        
             '#######'   ##     ##  '#######'  #'      '#     '####' # '####'        



                #########################################################
                #                        -***-                          #
                #          Department of theory and spectroscopy        #
                #                                                       #
                #                      Frank Neese                      #
                #                                                       #
                #     Directorship, Architecture, Infrastructure        #
                #                    SHARK, DRIVERS                     #
                #        Core code/Algorithms in most modules           #
                #                                                       #
                #        Max Planck Institute fuer Kohlenforschung      #
                #                Kaiser Wilhelm Platz 1                 #
                #                 D-45470 Muelheim/Ruhr                 #
                #                      Germany                          #
                #                                                       #
                #                  All rights reserved                  #
                #                        -***-                          #
                #########################################################


                         Program Version 6.0.0  -   RELEASE  -


 With contributions from (in alphabetic order):
   Daniel Aravena         : Magnetic Suceptibility
   Michael Atanasov       : Ab Initio Ligand Field Theory (pilot matlab implementation)
   Alexander A. Auer      : GIAO ZORA, VPT2 properties, NMR spectrum
   Ute Becker             : All parallelization in ORCA, NUMFREQ, NUMCALC
   Giovanni Bistoni       : ED, misc. LED, open-shell LED, HFLD
   Martin Brehm           : Molecular dynamics
   Dmytro Bykov           : pre 5.0 version of the SCF Hessian
   Marcos Casanova-Páez   : Triplet and SCS-CIS(D). UHF-(DLPNO)-IP/EA/STEOM-CCSD. UHF-CVS-IP/STEOM-CCSD
   Vijay G. Chilkuri      : MRCI spin determinant printing, contributions to CSF-ICE
   Pauline Colinet        : FMM embedding
   Dipayan Datta          : RHF DLPNO-CCSD density
   Achintya Kumar Dutta   : EOM-CC, STEOM-CC
   Nicolas Foglia         : Exact transition moments, OPA infrastructure, MCD improvements
   Dmitry Ganyushin       : Spin-Orbit,Spin-Spin,Magnetic field MRCI
   Miquel Garcia          : C-PCM and meta-GGA Hessian, CCSD/C-PCM, Gaussian charge scheme
   Tiago L. C. Gouveia    : GS-ROHF, GS-ROCIS
   Yang Guo               : DLPNO-NEVPT2, F12-NEVPT2, CIM, IAO-localization
   Andreas Hansen         : Spin unrestricted coupled pair/coupled cluster methods
   Ingolf Harden          : AUTO-CI MPn and infrastructure 
   Benjamin Helmich-Paris : MC-RPA, TRAH-(SCF,CASSCF), AVAS, COSX integrals, SCF dyn. polar.
   Lee Huntington         : MR-EOM, pCC
   Robert Izsak           : Overlap fitted RIJCOSX, COSX-SCS-MP3, EOM
   Riya Kayal             : Wick's Theorem for AUTO-CI, AUTO-CI UHF-CCSDT
   Emily Kempfer          : AUTO-CI, RHF CISDT and CCSDT
   Christian Kollmar      : KDIIS, OOCD, Brueckner-CCSD(T), CCSD density, CASPT2, CASPT2-K, improved NEVPT2
   Axel Koslowski         : Symmetry handling
   Simone Kossmann        : Meta GGA functionals, TD-DFT gradient, OOMP2, (MP2 Hessian; deprecated post 5.0)
   Lucas Lang             : DCDCAS
   Marvin Lechner         : AUTO-CI (C++ implementation), FIC-MRCC
   Spencer Leger          : CASSCF response
   Dagmar Lenk            : GEPOL surface, SMD, ORCA-2-JSON
   Dimitrios Liakos       : Extrapolation schemes; Compound Job, initial MDCI parallelization
   Dimitrios Manganas     : Further ROCIS development; embedding schemes. LFT, Crystal Embedding
   Dimitrios Pantazis     : SARC Basis sets
   Anastasios Papadopoulos: AUTO-CI, single reference methods and gradients
   Taras Petrenko         : pre 6.0 DFT Hessian and TD-DFT gradient, (ASA, deprecated), ECA, 1-Electron XAS/XES, NRVS
   Peter Pinski           : DLPNO-MP2, DLPNO-MP2 Gradient
   Christoph Reimann      : Effective Core Potentials
   Marius Retegan         : Local ZFS, SOC
   Christoph Riplinger    : Optimizer, TS searches, QM/MM, DLPNO-CCSD(T), (RO)-DLPNO pert. Triples
   Michael Roemelt        : Original ROCIS implementation
   Masaaki Saitow         : Open-shell DLPNO-CCSD energy and density
   Barbara Sandhoefer     : DKH picture change effects
   Kantharuban Sivalingam : CASSCF convergence/infrastructure, NEVPT2 and variants, FIC-MRCI
   Bernardo de Souza      : ESD, SOC TD-DFT
   Georgi Stoychev        : AutoAux, RI-MP2 NMR, DLPNO-MP2 response, X2C
   Van Anh Tran           : RI-MP2 g-tensors
   Willem Van den Heuvel  : Paramagnetic NMR
   Zikuan Wang            : NOTCH, Electric field optimization 
   Frank Wennmohs         : Technical directorship and infrastructure
   Hang Xu                : AUTO-CI-Response properties 


 We gratefully acknowledge several colleagues who have allowed us to
 interface, adapt or use parts of their codes:
   Stefan Grimme, W. Hujo, H. Kruse, P. Pracht,  : VdW corrections, initial TS optimization,
                  C. Bannwarth, S. Ehlert,         DFT functionals, gCP, sTDA/sTD-DF
                  L. Wittmann, M. Mueller
   Ed Valeev, F. Pavosevic, A. Kumar             : LibInt (2-el integral package), F12 methods
   Garnet Chan, S. Sharma, J. Yang, R. Olivares  : DMRG
   Ulf Ekstrom                                   : XCFun DFT Library
   Mihaly Kallay                                 : mrcc  (arbitrary order and MRCC methods)
   Frank Weinhold                                : gennbo (NPA and NBO analysis)
   Simon Mueller                                 : openCOSMO-RS
   Christopher J. Cramer and Donald G. Truhlar   : smd solvation model
   Lars Goerigk                                  : TD-DFT with DH, B97 family of functionals
   V. Asgeirsson, H. Jonsson                     : NEB implementation
   FAccTs GmbH                                   : IRC, NEB, NEB-TS, DLPNO-Multilevel, CI-OPT
                                                   MM, QMMM, 2- and 3-layer-ONIOM, Crystal-QMMM,
                                                   LR-CPCM, SF, NACMEs, symmetry and pop. for TD-DFT,
                                                   nearIR, NL-DFT gradient (VV10), updates on ESD,
                                                   ML-optimized integration grids, MBIS, APM,
                                                   GOAT, DOCKER, SOLVATOR, interface openCOSMO-RS
   S Lehtola, MJT Oliveira, MAL Marques          : LibXC Library
   Liviu Ungur et al                             : ANISO software


 Your calculation uses the libint2 library for the computation of 2-el integrals
 For citations please refer to: http://libint.valeyev.net

 Your ORCA version has been built with support for libXC version: 6.2.2
 For citations please refer to: https://libxc.gitlab.io

 This ORCA versions uses:
   CBLAS   interface :  Fast vector & matrix operations
   LAPACKE interface :  Fast linear algebra routines
   SCALAPACK package :  Parallel linear algebra routines
   Shared memory     :  Shared parallel matrices
   BLAS/LAPACK       :  OpenBLAS 0.3.27  USE64BITINT DYNAMIC_ARCH NO_AFFINITY Zen SINGLE_THREADED
        Core in use  :  Zen
   Copyright (c) 2011-2014, The OpenBLAS Project


Your calculation utilizes the atom-pairwise dispersion correction
with the Becke-Johnson damping scheme (D3BJ)


Warning: RI is on but no J-basis has been assigned. Assigning Def2/J (nothing to worry about!)
================================================================================

----- Orbital basis set information -----
Your calculation utilizes the basis: def2-TZVPPD
   F. Weigend and R. Ahlrichs, Phys. Chem. Chem. Phys. 7, 3297 (2005).
   D. Rappoport and F. Furche, J. Chem. Phys. 133, 134105 (2010)
   D. Rappoport, J. Chem. Phys. 155, 124102 (2021).

----- AuxJ basis set information -----
Your calculation utilizes the auxiliary basis: def2/J
   F. Weigend, Phys. Chem. Chem. Phys. 8, 1057 (2006).

================================================================================
                                        WARNINGS
                       Please study these warnings very carefully!
================================================================================

Using LibXC functional ID 531 : wB97M-V exchange-correlation functional
[ 1]  N. Mardirossian and M. Head-Gordon.,  J. Chem. Phys. 144, 214110 (2016)
Using LibXC functional ID 531 : wB97M-V exchange-correlation functional
[ 1]  N. Mardirossian and M. Head-Gordon.,  J. Chem. Phys. 144, 214110 (2016)

WARNING: B97M-V or wB97M-V functional requested.
  ===> : libXC variant has now been activated.
         Any manually given DFX/HFX/RangeSep scaling parameters are IGNORED!

Your calculation utilizes LibXC
 by S Lehtola, C Steigemann, MJT Oliveira & MAL Marques
Please cite in your paper:
 S Lehtola, C Steigemann, MJT Oliveira & MAL Marques, SoftwareX, 7, (2018), 1.
   


WARNING: your system is open-shell and RHF/RKS was chosen
  ===> : WILL SWITCH to UHF/UKS

INFO   : Checking CIS options ...

WARNING: CIS/ROCIS methods need fully converged wavefunctions
  ===> : Setting SCFConvForced true
         You can overwrite this default with %scf ConvForced false 


================================================================================
                                       INPUT FILE
================================================================================
NAME = orca.inp
|  1> ! Engrad def2-TZVPPD wB97M-D3BJ 
|  2> %pal nprocs 8 end%pal nprocs 32 end 
|  3> %tddft Nroots 2 Iroot 1 
|  4> sf true 
|  5> end 
|  6> *xyz 0 3 
|  7> O   0.42622166 1.41313651 -0.03310847
|  8> C   0.79309923 0.14308468 -0.15672196
|  9> C   -0.37212705 -0.85800638 0.23993707
| 10> H   -0.89474212 -0.5112196 1.11739281
| 11> H   1.65684237 -0.26584204 -0.58329684
| 12> H   0.15775056 -1.72315062 0.4070083
| 13> H   -1.03733001 -0.71624755 -0.55956114
| 14> *
| 15> 
| 16>                          ****END OF INPUT****
================================================================================

                     *******************************
                     * Energy+Gradient Calculation *
                     *******************************

---------------------------------
CARTESIAN COORDINATES (ANGSTROEM)
---------------------------------
  O      0.426222    1.413137   -0.033108
  C      0.793099    0.143085   -0.156722
  C     -0.372127   -0.858006    0.239937
  H     -0.894742   -0.511220    1.117393
  H      1.656842   -0.265842   -0.583297
  H      0.157751   -1.723151    0.407008
  H     -1.037330   -0.716248   -0.559561

----------------------------
CARTESIAN COORDINATES (A.U.)
----------------------------
  NO LB      ZA    FRAG     MASS         X           Y           Z
   0 O     8.0000    0    15.999    0.805442    2.670441   -0.062566
   1 C     6.0000    0    12.011    1.498740    0.270391   -0.296162
   2 C     6.0000    0    12.011   -0.703218   -1.621397    0.453415
   3 H     1.0000    0     1.008   -1.690818   -0.966065    2.111566
   4 H     1.0000    0     1.008    3.130978   -0.502369   -1.102271
   5 H     1.0000    0     1.008    0.298105   -3.256283    0.769134
   6 H     1.0000    0     1.008   -1.960270   -1.353512   -1.057417

--------------------------------
INTERNAL COORDINATES (ANGSTROEM)
--------------------------------
 O      0   0   0     0.000000000000     0.00000000     0.00000000
 C      1   0   0     1.327746623858     0.00000000     0.00000000
 C      2   1   0     1.586591938746   112.16925635     0.00000000
 H      3   2   1     1.078571350367   110.87783750   318.86189849
 H      2   1   3     1.046536861498   129.77430705   170.96018255
 H      3   2   1     1.028181712285   101.13111044   198.97177160
 H      3   2   1     1.049660865074   100.94042960    70.40062789

---------------------------
INTERNAL COORDINATES (A.U.)
---------------------------
 O      0   0   0     0.000000000000     0.00000000     0.00000000
 C      1   0   0     2.509077494330     0.00000000     0.00000000
 C      2   1   0     2.998224250518   112.16925635     0.00000000
 H      3   2   1     2.038204468088   110.87783750   318.86189849
 H      2   1   3     1.977668057285   129.77430705   170.96018255
 H      3   2   1     1.942981852126   101.13111044   198.97177160
 H      3   2   1     1.983571568486   100.94042960    70.40062789

---------------------
BASIS SET INFORMATION
---------------------
There are 3 groups of distinct atoms

 Group   1 Type O   : 12s7p3d1f contracted to 6s4p3d1f pattern {621111/4111/111/1}
 Group   2 Type C   : 12s6p3d1f contracted to 6s3p3d1f pattern {621111/411/111/1}
 Group   3 Type H   : 5s3p1d contracted to 3s3p1d pattern {311/111/1}

Atom   0O    basis set group =>   1
Atom   1C    basis set group =>   2
Atom   2C    basis set group =>   2
Atom   3H    basis set group =>   3
Atom   4H    basis set group =>   3
Atom   5H    basis set group =>   3
Atom   6H    basis set group =>   3
---------------------------------
AUXILIARY/J BASIS SET INFORMATION
---------------------------------
There are 3 groups of distinct atoms

 Group   1 Type O   : 12s5p4d2f1g contracted to 6s4p3d1f1g pattern {711111/2111/211/2/1}
 Group   2 Type C   : 12s5p4d2f1g contracted to 6s4p3d1f1g pattern {711111/2111/211/2/1}
 Group   3 Type H   : 5s2p1d contracted to 3s1p1d pattern {311/2/1}

Atom   0O    basis set group =>   1
Atom   1C    basis set group =>   2
Atom   2C    basis set group =>   2
Atom   3H    basis set group =>   3
Atom   4H    basis set group =>   3
Atom   5H    basis set group =>   3
Atom   6H    basis set group =>   3
[1741042078.207444] [ohm:244448:0]        ib_iface.c:1059 UCX  ERROR ibv_create_cq(cqe=256) failed: Connection timed out
[1741042078.208829] [ohm:244443:0]        ib_iface.c:1059 UCX  ERROR ibv_create_cq(cqe=256) failed: Connection timed out
[1741042078.215992] [ohm:244451:0]        ib_iface.c:1059 UCX  ERROR ibv_create_cq(cqe=256) failed: Connection timed out
[1741042078.216981] [ohm:244453:0]        ib_iface.c:1059 UCX  ERROR ibv_create_cq(cqe=256) failed: Connection timed out
[1741042078.227544] [ohm:244488:0]        ib_iface.c:1059 UCX  ERROR ibv_create_cq(cqe=256) failed: Connection timed out
[1741042078.228067] [ohm:244446:0]        ib_iface.c:1059 UCX  ERROR ibv_create_cq(cqe=256) failed: Connection timed out
[1741042078.228761] [ohm:244441:0]        ib_iface.c:1059 UCX  ERROR ibv_create_cq(cqe=256) failed: Connection timed out
[1741042078.239469] [ohm:244464:0]        ib_iface.c:1059 UCX  ERROR ibv_create_cq(cqe=256) failed: Connection timed out
[1741042078.250724] [ohm:244463:0]        ib_iface.c:1059 UCX  ERROR ibv_create_cq(cqe=256) failed: Connection timed out
[1741042078.251830] [ohm:244455:0]        ib_iface.c:1059 UCX  ERROR ibv_create_cq(cqe=256) failed: Connection timed out
[1741042078.252749] [ohm:244459:0]        ib_iface.c:1059 UCX  ERROR ibv_create_cq(cqe=256) failed: Connection timed out
[1741042078.258347] [ohm:244457:0]        ib_iface.c:1059 UCX  ERROR ibv_create_cq(cqe=256) failed: Connection timed out
[1741042078.258426] [ohm:244454:0]        ib_iface.c:1059 UCX  ERROR ibv_create_cq(cqe=256) failed: Connection timed out
[1741042078.268199] [ohm:244444:0]        ib_iface.c:1059 UCX  ERROR ibv_create_cq(cqe=256) failed: Connection timed out
[1741042078.278279] [ohm:244483:0]        ib_iface.c:1059 UCX  ERROR ibv_create_cq(cqe=256) failed: Connection timed out
[1741042078.279376] [ohm:244452:0]        ib_iface.c:1059 UCX  ERROR ibv_create_cq(cqe=256) failed: Connection timed out
[1741042078.279371] [ohm:244442:0]        ib_iface.c:1059 UCX  ERROR ibv_create_cq(cqe=256) failed: Connection timed out
[1741042078.279461] [ohm:244472:0]        ib_iface.c:1059 UCX  ERROR ibv_create_cq(cqe=256) failed: Connection timed out
[1741042078.283474] [ohm:244445:0]        ib_iface.c:1059 UCX  ERROR ibv_create_cq(cqe=256) failed: Connection timed out
[1741042078.284204] [ohm:244461:0]        ib_iface.c:1059 UCX  ERROR ibv_create_cq(cqe=256) failed: Connection timed out
[1741042078.284265] [ohm:244449:0]        ib_iface.c:1059 UCX  ERROR ibv_create_cq(cqe=256) failed: Connection timed out
[1741042078.287602] [ohm:244447:0]        ib_iface.c:1059 UCX  ERROR ibv_create_cq(cqe=256) failed: Connection timed out
[1741042078.287598] [ohm:244450:0]        ib_iface.c:1059 UCX  ERROR ibv_create_cq(cqe=256) failed: Connection timed out
[1741042078.288126] [ohm:244456:0]        ib_iface.c:1059 UCX  ERROR ibv_create_cq(cqe=256) failed: Connection timed out
[1741042078.288138] [ohm:244462:0]        ib_iface.c:1059 UCX  ERROR ibv_create_cq(cqe=256) failed: Connection timed out
[1741042078.288284] [ohm:244460:0]        ib_iface.c:1059 UCX  ERROR ibv_create_cq(cqe=256) failed: Connection timed out
[1741042078.288308] [ohm:244468:0]        ib_iface.c:1059 UCX  ERROR ibv_create_cq(cqe=256) failed: Connection timed out
[1741042078.289834] [ohm:244467:0]        ib_iface.c:1059 UCX  ERROR ibv_create_cq(cqe=256) failed: Connection timed out
[1741042078.289836] [ohm:244493:0]        ib_iface.c:1059 UCX  ERROR ibv_create_cq(cqe=256) failed: Connection timed out
[1741042078.289925] [ohm:244479:0]        ib_iface.c:1059 UCX  ERROR ibv_create_cq(cqe=256) failed: Connection timed out
[1741042078.289875] [ohm:244458:0]        ib_iface.c:1059 UCX  ERROR ibv_create_cq(cqe=256) failed: Connection timed out
[1741042078.290033] [ohm:244498:0]        ib_iface.c:1059 UCX  ERROR ibv_create_cq(cqe=256) failed: Connection timed out


           ************************************************************
           *        Program running with 32 parallel MPI-processes    *
           *              working on a common directory               *
           ************************************************************
------------------------------------------------------------------------------
                             ORCA STARTUP CALCULATIONS
                           -- RI-GTO INTEGRALS CHOSEN --
------------------------------------------------------------------------------
------------------------------------------------------------------------------
                   ___                                                        
                  /   \      - P O W E R E D   B Y -                         
                 /     \                                                     
                 |  |  |   _    _      __       _____    __    __             
                 |  |  |  | |  | |    /  \     |  _  \  |  |  /  |          
                  \  \/   | |  | |   /    \    | | | |  |  | /  /          
                 / \  \   | |__| |  /  /\  \   | |_| |  |  |/  /          
                |  |  |   |  __  | /  /__\  \  |    /   |      \           
                |  |  |   | |  | | |   __   |  |    \   |  |\   \          
                \     /   | |  | | |  |  |  |  | |\  \  |  | \   \       
                 \___/    |_|  |_| |__|  |__|  |_| \__\ |__|  \__/        
                                                                              
                      - O R C A' S   B I G   F R I E N D -                    
                                      &                                       
                       - I N T E G R A L  F E E D E R -                       
                                                                              
 v1 FN, 2020, v2 2021, v3 2022-2024                                           
------------------------------------------------------------------------------


----------------------
SHARK INTEGRAL PACKAGE
----------------------

Number of atoms                             ...      7
Number of basis functions                   ...    182
Number of shells                            ...     68
Maximum angular momentum                    ...      3
Integral batch strategy                     ... SHARK/LIBINT Hybrid
RI-J (if used) integral strategy            ... SPLIT-RIJ (Revised 2003 algorithm where possible)
Printlevel                                  ...      1
Contraction scheme used                     ... SEGMENTED contraction
Prescreening option                         ... SCHWARTZ
   Thresh                                   ... 2.500e-11
   Tcut                                     ... 2.500e-12
   Tpresel                                  ... 2.500e-12 
Coulomb Range Separation                    ... NOT USED
Exchange Range Separation                   ... Long Range
   Mu parameter                             ... 3.000e-01
   Scaling (regular/separated)              ... 1.500e-01 8.500e-01
Multipole approximations                    ... NOT USED
Finite Nucleus Model                        ... NOT USED
CABS basis                                  ... NOT available
Auxiliary Coulomb fitting basis             ... AVAILABLE
   # of basis functions in Aux-J            ...    191
   # of shells in Aux-J                     ...     65
   Maximum angular momentum in Aux-J        ...      4
Auxiliary J/K fitting basis                 ... NOT available
Auxiliary Correlation fitting basis         ... NOT available
Auxiliary 'external' fitting basis          ... NOT available

Checking pre-screening integrals            ... done (  0.0 sec) Dimension = 68
Check shell pair data                       ... done (  0.0 sec)
Shell pair information
Shell pair cut-off parameter TPreSel        ...   2.5e-12
Total number of shell pairs                 ...      2346
Shell pairs after pre-screening             ...      2328
Total number of primitive shell pairs       ...      5434
Primitive shell pairs kept                  ...      4816
          la=0 lb=0:    455 shell pairs
          la=1 lb=0:    655 shell pairs
          la=1 lb=1:    253 shell pairs
          la=2 lb=0:    387 shell pairs
          la=2 lb=1:    286 shell pairs
          la=2 lb=2:     91 shell pairs
          la=3 lb=0:     90 shell pairs
          la=3 lb=1:     66 shell pairs
          la=3 lb=2:     39 shell pairs
          la=3 lb=3:      6 shell pairs

Calculating one electron integrals          ... done (  0.0 sec)
Calculating RI/J V-Matrix + Cholesky decomp.... done (  0.0 sec)
Calculating Nuclear repulsion               ... done (  0.0 sec) ENN=     67.660952415854 Eh

Diagonalization of the overlap matrix:
Smallest eigenvalue                        ... 1.859e-05
Time for diagonalization                   ...    0.003 sec
Threshold for overlap eigenvalues          ... 1.000e-07
Number of eigenvalues below threshold      ... 0
Time for construction of square roots      ...    0.004 sec
Total time needed                          ...    0.008 sec

-------------------
DFT GRID GENERATION
-------------------

General Integration Accuracy     IntAcc      ... 4.388
Radial Grid Type                 RadialGrid  ... OptM3 with GC (2021)
Angular Grid (max. ang.)         AngularGrid ... 4 (Lebedev-302)
Angular grid pruning method      GridPruning ... 4 (adaptive)
Weight generation scheme         WeightScheme... mBecke (2022)
Basis function cutoff            BFCut       ... 1.0000e-11
Integration weight cutoff        WCut        ... 1.0000e-14
Partially contracted basis set               ... off
Rotationally invariant grid construction     ... off
Angular grids for H and He will be reduced by one unit
Diffuse basis detected: some atoms will have their outermost
                        angular grid increased by 1.

Total number of grid points                  ...    33130
Total number of batches                      ...      521
Average number of points per batch           ...       63
Average number of grid points per atom       ...     4733

--------------------
COSX GRID GENERATION
--------------------

GRIDX 1
-------
General Integration Accuracy     IntAcc      ... 3.816
Radial Grid Type                 RadialGrid  ... OptM3 with GC (2021)
Angular Grid (max. ang.)         AngularGrid ... 1 (Lebedev-50)
Angular grid pruning method      GridPruning ... 4 (adaptive)
Weight generation scheme         WeightScheme... mBecke (2022)
Basis function cutoff            BFCut       ... 1.0000e-11
Integration weight cutoff        WCut        ... 1.0000e-14
Partially contracted basis set               ... on
Rotationally invariant grid construction     ... off
Angular grids for H and He will be reduced by one unit
Diffuse basis detected: some atoms will have their outermost
                        angular grid increased by 1.

Total number of grid points                  ...     4167
Total number of batches                      ...       36
Average number of points per batch           ...      115
Average number of grid points per atom       ...      595
UseSFitting                                  ... on

GRIDX 2
-------
General Integration Accuracy     IntAcc      ... 4.020
Radial Grid Type                 RadialGrid  ... OptM3 with GC (2021)
Angular Grid (max. ang.)         AngularGrid ... 2 (Lebedev-110)
Angular grid pruning method      GridPruning ... 4 (adaptive)
Weight generation scheme         WeightScheme... mBecke (2022)
Basis function cutoff            BFCut       ... 1.0000e-11
Integration weight cutoff        WCut        ... 1.0000e-14
Partially contracted basis set               ... on
Rotationally invariant grid construction     ... off
Angular grids for H and He will be reduced by one unit
Diffuse basis detected: some atoms will have their outermost
                        angular grid increased by 1.

Total number of grid points                  ...    10267
Total number of batches                      ...       84
Average number of points per batch           ...      122
Average number of grid points per atom       ...     1467
UseSFitting                                  ... on

GRIDX 3
-------
General Integration Accuracy     IntAcc      ... 4.338
Radial Grid Type                 RadialGrid  ... OptM3 with GC (2021)
Angular Grid (max. ang.)         AngularGrid ... 3 (Lebedev-194)
Angular grid pruning method      GridPruning ... 4 (adaptive)
Weight generation scheme         WeightScheme... mBecke (2022)
Basis function cutoff            BFCut       ... 1.0000e-11
Integration weight cutoff        WCut        ... 1.0000e-14
Partially contracted basis set               ... on
Rotationally invariant grid construction     ... off
Angular grids for H and He will be reduced by one unit
Diffuse basis detected: some atoms will have their outermost
                        angular grid increased by 1.

Total number of grid points                  ...    23132
Total number of batches                      ...      185
Average number of points per batch           ...      125
Average number of grid points per atom       ...     3305
UseSFitting                                  ... on
Initializing property integral containers    ... done (  0.0 sec)

SHARK setup successfully completed in   0.3 seconds

Maximum memory used throughout the entire STARTUP-calculation: 13.8 MB
[1741042079.427820] [ohm:244661:0]        ib_iface.c:1059 UCX  ERROR ibv_create_cq(cqe=256) failed: Connection timed out
[1741042079.428370] [ohm:244651:0]        ib_iface.c:1059 UCX  ERROR ibv_create_cq(cqe=256) failed: Connection timed out
[1741042079.431449] [ohm:244625:0]        ib_iface.c:1059 UCX  ERROR ibv_create_cq(cqe=256) failed: Connection timed out
[1741042079.439200] [ohm:244616:0]        ib_iface.c:1059 UCX  ERROR ibv_create_cq(cqe=256) failed: Connection timed out
[1741042079.442611] [ohm:244639:0]        ib_iface.c:1059 UCX  ERROR ibv_create_cq(cqe=256) failed: Connection timed out
[1741042079.442919] [ohm:244620:0]        ib_iface.c:1059 UCX  ERROR ibv_create_cq(cqe=256) failed: Connection timed out
[1741042079.443141] [ohm:244624:0]        ib_iface.c:1059 UCX  ERROR ibv_create_cq(cqe=256) failed: Connection timed out
[1741042079.447458] [ohm:244609:0]        ib_iface.c:1059 UCX  ERROR ibv_create_cq(cqe=256) failed: Connection timed out
[1741042079.447506] [ohm:244628:0]        ib_iface.c:1059 UCX  ERROR ibv_create_cq(cqe=256) failed: Connection timed out
[1741042079.456130] [ohm:244642:0]        ib_iface.c:1059 UCX  ERROR ibv_create_cq(cqe=256) failed: Connection timed out
[1741042079.467595] [ohm:244621:0]        ib_iface.c:1059 UCX  ERROR ibv_create_cq(cqe=256) failed: Connection timed out
[1741042079.474006] [ohm:244660:0]        ib_iface.c:1059 UCX  ERROR ibv_create_cq(cqe=256) failed: Connection timed out
[1741042079.474271] [ohm:244655:0]        ib_iface.c:1059 UCX  ERROR ibv_create_cq(cqe=256) failed: Connection timed out
[1741042079.474323] [ohm:244650:0]        ib_iface.c:1059 UCX  ERROR ibv_create_cq(cqe=256) failed: Connection timed out
[1741042079.475276] [ohm:244608:0]        ib_iface.c:1059 UCX  ERROR ibv_create_cq(cqe=256) failed: Connection timed out
[1741042079.476471] [ohm:244629:0]        ib_iface.c:1059 UCX  ERROR ibv_create_cq(cqe=256) failed: Connection timed out
[1741042079.477520] [ohm:244656:0]        ib_iface.c:1059 UCX  ERROR ibv_create_cq(cqe=256) failed: Connection timed out
[1741042079.482452] [ohm:244623:0]        ib_iface.c:1059 UCX  ERROR ibv_create_cq(cqe=256) failed: Connection timed out
[1741042079.483497] [ohm:244619:0]        ib_iface.c:1059 UCX  ERROR ibv_create_cq(cqe=256) failed: Connection timed out
[1741042079.483885] [ohm:244622:0]        ib_iface.c:1059 UCX  ERROR ibv_create_cq(cqe=256) failed: Connection timed out
[1741042079.484612] [ohm:244627:0]        ib_iface.c:1059 UCX  ERROR ibv_create_cq(cqe=256) failed: Connection timed out
[1741042079.485329] [ohm:244614:0]        ib_iface.c:1059 UCX  ERROR ibv_create_cq(cqe=256) failed: Connection timed out
[1741042079.485402] [ohm:244612:0]        ib_iface.c:1059 UCX  ERROR ibv_create_cq(cqe=256) failed: Connection timed out
[1741042079.485554] [ohm:244626:0]        ib_iface.c:1059 UCX  ERROR ibv_create_cq(cqe=256) failed: Connection timed out
[1741042079.486074] [ohm:244611:0]        ib_iface.c:1059 UCX  ERROR ibv_create_cq(cqe=256) failed: Connection timed out
[1741042079.486715] [ohm:244617:0]        ib_iface.c:1059 UCX  ERROR ibv_create_cq(cqe=256) failed: Connection timed out
[1741042079.487174] [ohm:244610:0]        ib_iface.c:1059 UCX  ERROR ibv_create_cq(cqe=256) failed: Connection timed out
[1741042079.487310] [ohm:244645:0]        ib_iface.c:1059 UCX  ERROR ibv_create_cq(cqe=256) failed: Connection timed out
[1741042079.487512] [ohm:244613:0]        ib_iface.c:1059 UCX  ERROR ibv_create_cq(cqe=256) failed: Connection timed out
[1741042079.487735] [ohm:244615:0]        ib_iface.c:1059 UCX  ERROR ibv_create_cq(cqe=256) failed: Connection timed out
[1741042079.488706] [ohm:244632:0]        ib_iface.c:1059 UCX  ERROR ibv_create_cq(cqe=256) failed: Connection timed out
[1741042079.489119] [ohm:244618:0]        ib_iface.c:1059 UCX  ERROR ibv_create_cq(cqe=256) failed: Connection timed out


           ************************************************************
           *        Program running with 32 parallel MPI-processes    *
           *              working on a common directory               *
           ************************************************************
-------------------------------------------------------------------------------
                                 ORCA GUESS
                   Start orbitals & Density for SCF / CASSCF
-------------------------------------------------------------------------------

------------
SCF SETTINGS
------------
Hamiltonian:
 Density Functional     Method          .... DFT(GTOs)
  Functional kind                       .... Exchange-Correlation
  Functional name                       .... wB97M-V exchange-correlation functional
  Functional family                     .... Hybrid MGGA
  Functional refs                              
    [ 0] N. Mardirossian and M. Head-Gordon.,  J. Chem. Phys. 144, 214110 (2016), doi: 10.1063/1.4952647
  Fraction of HF Exchange (short range) .... 0.1500
  Fraction of HF Exchange (long range)  .... 1.0000
  Range separation parameter mu         .... 0.3000
  Functional external parameters        .... 17
    Parameter  0 _cx00      =  8.500000e-01 : u^00 coefficient for exchange
    Parameter  1 _cx01      =  1.007000e+00 : u^01 coefficient for exchange
    Parameter  2 _cx10      =  2.590000e-01 : u^10 coefficient for exchange
    Parameter  3 _css00     =  4.430000e-01 : u^00 coefficient for same-spin correlation
    Parameter  4 _css04     = -1.437000e+00 : u^04 coefficient for same-spin correlation
    Parameter  5 _css10     = -4.535000e+00 : u^10 coefficient for same-spin correlation
    Parameter  6 _css20     = -3.390000e+00 : u^20 coefficient for same-spin correlation
    Parameter  7 _css43     =  4.278000e+00 : u^43 coefficient for same-spin correlation
    Parameter  8 _cos00     =  1.000000e+00 : u^00 coefficient for opposite-spin correlation
    Parameter  9 _cos10     =  1.358000e+00 : u^10 coefficient for opposite-spin correlation
    Parameter 10 _cos20     =  2.924000e+00 : u^20 coefficient for opposite-spin correlation
    Parameter 11 _cos21     = -8.812000e+00 : u^21 coefficient for opposite-spin correlation
    Parameter 12 _cos60     = -1.390000e+00 : u^60 coefficient for opposite-spin correlation
    Parameter 13 _cos61     =  9.142000e+00 : u^61 coefficient for opposite-spin correlation
    Parameter 14 _alpha     =  1.000000e+00 : fraction of HF exchange
    Parameter 15 _beta      = -8.500000e-01 : fraction of short-range exchange
    Parameter 16 _omega     =  3.000000e-01 : range-separation constant
 Long-range corrected/Screened/Range-Separated Hybrid DFT is turned on
   Amount of maximum screened exact exchange              ....  0.850000
   Range separation parameter mu (erf(mu*r12)/r12)        ....  0.300000
 RI-approximation to the Coulomb term is turned on
   Number of AuxJ basis functions       .... 191
   RIJ-COSX (HFX calculated with COS-X)).... on


General Settings:
 Integral files         IntName         .... orca
 Hartree-Fock type      HFTyp           .... UHF
 Total Charge           Charge          ....    0
 Multiplicity           Mult            ....    3
 Number of Electrons    NEL             ....   24
 Basis Dimension        Dim             ....  182
 Nuclear Repulsion      ENuc            ....     67.6609524159 Eh

Convergence Acceleration:
 AO-DIIS                CNVDIIS         .... on
   Start iteration      DIISMaxIt       ....    12
   Startup error        DIISStart       ....  0.200000
   # of expansion vecs  DIISMaxEq       ....     5
   Bias factor          DIISBfac        ....   1.050
   Max. coefficient     DIISMaxC        ....  10.000
 MO-DIIS                CNVKDIIS        .... off
 Trust-Rad. Augm. Hess. CNVTRAH         .... auto
   Auto Start mean grad. ratio tolernc. ....  1.125000
   Auto Start start iteration           ....    50
   Auto Start num. interpolation iter.  ....    10
   Max. Number of Micro iterations      ....    24
   Max. Number of Macro iterations      .... Maxiter - #DIIS iter
   Number of Davidson start vectors     ....     2
   Converg. threshold    (grad. norm)   ....   1.000e-05
   Grad. Scal. Fac. for Micro threshold ....   0.100
   Minimum threshold for Micro iter.    ....   1.000e-02
   NR start threshold (gradient norm)   ....   1.000e-04
   Initial trust radius                 ....   0.400
   Minimum AH scaling param. (alpha)    ....   1.000
   Maximum AH scaling param. (alpha)    .... 1000.000
   Quad. conv. algorithm                .... NR
   White noise on init. David. guess    .... on
   Maximum white noise                  ....   0.010
   Pseudo random numbers                .... off
   Inactive MOs                         .... canonical
   Orbital update algorithm             .... Taylor
   Preconditioner                       .... Diag
   Full preconditioner red. dimension   ....   250
 SOSCF                  CNVSOSCF        .... on
   Start iteration      SOSCFMaxIt      ....   150
   Startup grad/error   SOSCFStart      ....  0.003300
   Hessian update       SOSCFHessUp     .... L-BFGS
 Level Shifting         CNVShift        .... on
   Level shift para.    LevelShift      ....    0.2500
   Turn off err/grad.   ShiftErr        ....    0.0010
 Zerner damping         CNVZerner       .... off
 Static damping         CNVDamp         .... on
   Fraction old density DampFac         ....    0.7000
   Max. Damping (<1)    DampMax         ....    0.9800
   Min. Damping (>=0)   DampMin         ....    0.0000
   Turn off err/grad.   DampErr         ....    0.1000

SCF Procedure:
 Maximum # iterations   MaxIter         ....   125
 SCF integral mode      SCFMode         .... Direct
   Integral package                     .... SHARK and LIBINT hybrid scheme
 Reset frequency        DirectResetFreq ....    20
 Integral Threshold     Thresh          ....  2.500e-11 Eh
 Primitive CutOff       TCut            ....  2.500e-12 Eh

Convergence Tolerance:
 Convergence Check Mode ConvCheckMode   .... Total+1el-Energy
 Convergence forced     ConvForced      .... 1
 Energy Change          TolE            ....  1.000e-08 Eh
 1-El. energy change                    ....  1.000e-05 Eh
 Orbital Gradient       TolG            ....  1.000e-05
 Orbital Rotation angle TolX            ....  1.000e-05
 DIIS Error             TolErr          ....  5.000e-07

------------------------------
INITIAL GUESS: MODEL POTENTIAL
------------------------------
Loading Hartree-Fock densities                     ... done
Calculating cut-offs                               ... done
Initializing the effective Hamiltonian             ... done
Setting up the integral package (SHARK)            ... done
Starting the Coulomb interaction                   ... done (   0.0 sec)
Making the grid                                    ... done (   0.0 sec)
Mapping shells                                     ... done
Starting the XC term evaluation                    ... done (   0.0 sec)
  promolecular density results
     # of electrons  =     23.997307915
     EX              =    -19.478121213
     EC              =     -0.766275085
     EX+EC           =    -20.244396297
Transforming the Hamiltonian                       ... done (   0.0 sec)
Diagonalizing the Hamiltonian                      ... done (   0.0 sec)
Back transforming the eigenvectors                 ... done (   0.0 sec)
Now organizing SCF variables                       ... done
                      ------------------
                      INITIAL GUESS DONE (   0.1 sec)
                      ------------------
             **** ENERGY FILE WAS UPDATED (orca.en.tmp) ****
Finished Guess after   0.6 sec
Maximum memory used throughout the entire GUESS-calculation: 9.6 MB
[1741042080.393697] [ohm:244782:0]        ib_iface.c:1059 UCX  ERROR ibv_create_cq(cqe=256) failed: Connection timed out
[1741042080.397674] [ohm:244777:0]        ib_iface.c:1059 UCX  ERROR ibv_create_cq(cqe=256) failed: Connection timed out
[1741042080.403949] [ohm:244791:0]        ib_iface.c:1059 UCX  ERROR ibv_create_cq(cqe=256) failed: Connection timed out
[1741042080.408900] [ohm:244778:0]        ib_iface.c:1059 UCX  ERROR ibv_create_cq(cqe=256) failed: Connection timed out
[1741042080.415328] [ohm:244781:0]        ib_iface.c:1059 UCX  ERROR ibv_create_cq(cqe=256) failed: Connection timed out
[1741042080.415321] [ohm:244788:0]        ib_iface.c:1059 UCX  ERROR ibv_create_cq(cqe=256) failed: Connection timed out
[1741042080.415408] [ohm:244786:0]        ib_iface.c:1059 UCX  ERROR ibv_create_cq(cqe=256) failed: Connection timed out
[1741042080.418469] [ohm:244796:0]        ib_iface.c:1059 UCX  ERROR ibv_create_cq(cqe=256) failed: Connection timed out
[1741042080.418499] [ohm:244780:0]        ib_iface.c:1059 UCX  ERROR ibv_create_cq(cqe=256) failed: Connection timed out
[1741042080.420549] [ohm:244798:0]        ib_iface.c:1059 UCX  ERROR ibv_create_cq(cqe=256) failed: Connection timed out
[1741042080.424283] [ohm:244784:0]        ib_iface.c:1059 UCX  ERROR ibv_create_cq(cqe=256) failed: Connection timed out
[1741042080.427576] [ohm:244794:0]        ib_iface.c:1059 UCX  ERROR ibv_create_cq(cqe=256) failed: Connection timed out
[1741042080.428581] [ohm:244785:0]        ib_iface.c:1059 UCX  ERROR ibv_create_cq(cqe=256) failed: Connection timed out
[1741042080.446238] [ohm:244779:0]        ib_iface.c:1059 UCX  ERROR ibv_create_cq(cqe=256) failed: Connection timed out
[1741042080.447151] [ohm:244793:0]        ib_iface.c:1059 UCX  ERROR ibv_create_cq(cqe=256) failed: Connection timed out
[1741042080.448036] [ohm:244797:0]        ib_iface.c:1059 UCX  ERROR ibv_create_cq(cqe=256) failed: Connection timed out
[1741042080.457249] [ohm:244806:0]        ib_iface.c:1059 UCX  ERROR ibv_create_cq(cqe=256) failed: Connection timed out
[1741042080.462364] [ohm:244789:0]        ib_iface.c:1059 UCX  ERROR ibv_create_cq(cqe=256) failed: Connection timed out
[1741042080.462500] [ohm:244823:0]        ib_iface.c:1059 UCX  ERROR ibv_create_cq(cqe=256) failed: Connection timed out
[1741042080.467164] [ohm:244799:0]        ib_iface.c:1059 UCX  ERROR ibv_create_cq(cqe=256) failed: Connection timed out
[1741042080.468548] [ohm:244783:0]        ib_iface.c:1059 UCX  ERROR ibv_create_cq(cqe=256) failed: Connection timed out
[1741042080.468884] [ohm:244792:0]        ib_iface.c:1059 UCX  ERROR ibv_create_cq(cqe=256) failed: Connection timed out
[1741042080.469051] [ohm:244795:0]        ib_iface.c:1059 UCX  ERROR ibv_create_cq(cqe=256) failed: Connection timed out
[1741042080.471630] [ohm:244818:0]        ib_iface.c:1059 UCX  ERROR ibv_create_cq(cqe=256) failed: Connection timed out
[1741042080.471802] [ohm:244835:0]        ib_iface.c:1059 UCX  ERROR ibv_create_cq(cqe=256) failed: Connection timed out
[1741042080.472508] [ohm:244827:0]        ib_iface.c:1059 UCX  ERROR ibv_create_cq(cqe=256) failed: Connection timed out
[1741042080.473405] [ohm:244787:0]        ib_iface.c:1059 UCX  ERROR ibv_create_cq(cqe=256) failed: Connection timed out
[1741042080.474377] [ohm:244790:0]        ib_iface.c:1059 UCX  ERROR ibv_create_cq(cqe=256) failed: Connection timed out
[1741042080.474367] [ohm:244804:0]        ib_iface.c:1059 UCX  ERROR ibv_create_cq(cqe=256) failed: Connection timed out
[1741042080.474369] [ohm:244815:0]        ib_iface.c:1059 UCX  ERROR ibv_create_cq(cqe=256) failed: Connection timed out
[1741042080.474767] [ohm:244828:0]        ib_iface.c:1059 UCX  ERROR ibv_create_cq(cqe=256) failed: Connection timed out
[1741042080.474824] [ohm:244821:0]        ib_iface.c:1059 UCX  ERROR ibv_create_cq(cqe=256) failed: Connection timed out


           ************************************************************
           *        Program running with 32 parallel MPI-processes    *
           *              working on a common directory               *
           ************************************************************

-------------------------------------------------------------------------------------------
                                      ORCA LEAN-SCF
                              memory conserving SCF solver
-------------------------------------------------------------------------------------------

----------------------------------------D-I-I-S--------------------------------------------
Iteration    Energy (Eh)           Delta-E    RMSDP     MaxDP     DIISErr   Damp  Time(sec)
-------------------------------------------------------------------------------------------
               ***  Starting incremental Fock matrix formation  ***
    1    -153.7127271594521858     0.00e+00  7.53e-04  1.90e-02  8.44e-02  0.700   0.3
    2    -153.7385757544553258    -2.58e-02  7.03e-04  1.82e-02  5.11e-02  0.700   0.3
                               ***Turning on AO-DIIS***
    3    -153.7529538027785634    -1.44e-02  5.75e-04  1.71e-02  2.69e-02  0.700   0.2
    4    -153.7618263226009390    -8.87e-03  1.42e-03  4.09e-02  1.77e-02  0.000   0.2
    5    -153.7819705640927168    -2.01e-02  1.32e-04  4.96e-03  4.94e-03  0.000   0.2
    6    -153.7823742228686683    -4.04e-04  8.71e-05  1.97e-03  3.52e-03  0.000   0.2
                              *** Initializing SOSCF ***
---------------------------------------S-O-S-C-F--------------------------------------
Iteration    Energy (Eh)           Delta-E    RMSDP     MaxDP     MaxGrad    Time(sec)
--------------------------------------------------------------------------------------
    7    -153.7826236118215206    -2.49e-04  6.00e-05  1.64e-03  2.18e-03     0.3
               *** Restarting incremental Fock matrix formation ***
    8    -153.7827561043419564    -1.32e-04  3.56e-05  1.34e-03  2.73e-03     0.3
    9    -153.7827916181101386    -3.55e-05  6.31e-05  2.27e-03  1.09e-03     0.3
   10    -153.7828140286416101    -2.24e-05  2.14e-05  6.71e-04  4.11e-04     0.3
   11    -153.7828170664687377    -3.04e-06  8.83e-06  3.92e-04  1.23e-04     0.3
   12    -153.7828174207050438    -3.54e-07  2.00e-06  4.17e-05  5.30e-05     0.3
   13    -153.7828175255422707    -1.05e-07  1.25e-06  3.27e-05  3.67e-05     0.2
   14    -153.7828175512939879    -2.58e-08  6.30e-07  1.98e-05  1.51e-05     0.2
   15    -153.7828175593014635    -8.01e-09  4.32e-07  1.20e-05  4.27e-06     0.2
                 **** Energy Check signals convergence ****

               *****************************************************
               *                     SUCCESS                       *
               *           SCF CONVERGED AFTER  15 CYCLES          *
               *****************************************************

Recomputing exchange energy using gridx3       ... done (    0.246 sec)
Old exchange energy                            :     -6.196489925 Eh
New exchange energy                            :     -6.196495276 Eh
Exchange energy change after final integration :     -0.000005351 Eh
Total energy after final integration           :   -153.782822911 Eh
             **** ENERGY FILE WAS UPDATED (orca.en.tmp) ****

----------------
TOTAL SCF ENERGY
----------------

Total Energy       :       -153.78282291067262 Eh           -4184.64335 eV

Components:
Nuclear Repulsion  :         67.66095241585360 Eh            1841.14812 eV
Electronic Energy  :       -221.44376997515508 Eh           -6025.79133 eV
One Electron Energy:       -341.75175478091512 Eh           -9299.53803 eV
Two Electron Energy:        120.30798480576006 Eh            3273.74670 eV

Virial components:
Potential Energy   :       -307.15113100075189 Eh           -8358.00719 eV
Kinetic Energy     :        153.36830809007930 Eh            4173.36383 eV
Virial Ratio       :          2.00270274104054

DFT components:
N(Alpha)           :       12.999989444049 electrons
N(Beta)            :       10.999984796872 electrons
N(Total)           :       23.999974240921 electrons
E(XC)              :      -14.714896012328 Eh       

---------------
SCF CONVERGENCE
---------------

  Last Energy change         ...    8.0075e-09  Tolerance :   1.0000e-08
  Last MAX-Density change    ...    1.1984e-05  Tolerance :   1.0000e-07
  Last RMS-Density change    ...    4.3243e-07  Tolerance :   5.0000e-09
  Last DIIS Error            ...    2.1776e-03  Tolerance :   5.0000e-07
  Last Orbital Gradient      ...    4.2722e-06  Tolerance :   1.0000e-05
  Last Orbital Rotation      ...    1.9141e-05  Tolerance :   1.0000e-05


----------------------
UHF SPIN CONTAMINATION
----------------------

Warning: in a DFT calculation there is little theoretical justification to 
         calculate <S**2> as in Hartree-Fock theory. We will do it anyways
         but you should keep in mind that the values have only limited relevance

Expectation value of <S**2>     :     2.005874
Ideal value S*(S+1) for S=1.0   :     2.000000
Deviation                       :     0.005874

----------------
ORBITAL ENERGIES
----------------
                 SPIN UP ORBITALS
  NO   OCC          E(Eh)            E(eV) 
   0   1.0000     -19.417864      -528.3869 
   1   1.0000     -10.395722      -282.8820 
   2   1.0000     -10.360976      -281.9365 
   3   1.0000      -1.192536       -32.4505 
   4   1.0000      -0.881243       -23.9798 
   5   1.0000      -0.730424       -19.8759 
   6   1.0000      -0.619549       -16.8588 
   7   1.0000      -0.573199       -15.5975 
   8   1.0000      -0.561829       -15.2882 
   9   1.0000      -0.529940       -14.4204 
  10   1.0000      -0.501983       -13.6596 
  11   1.0000      -0.435922       -11.8620 
  12   1.0000      -0.256579        -6.9819 
  13   0.0000       0.041681         1.1342 
  14   0.0000       0.061136         1.6636 
  15   0.0000       0.077897         2.1197 
  16   0.0000       0.090461         2.4616 
  17   0.0000       0.107855         2.9349 
  18   0.0000       0.120788         3.2868 
  19   0.0000       0.137918         3.7529 
  20   0.0000       0.150747         4.1020 
  21   0.0000       0.166527         4.5314 
  22   0.0000       0.183519         4.9938 
  23   0.0000       0.188310         5.1242 

                 SPIN DOWN ORBITALS
  NO   OCC          E(Eh)            E(eV) 
   0   1.0000     -19.390135      -527.6324 
   1   1.0000     -10.384056      -282.5645 
   2   1.0000     -10.359014      -281.8831 
   3   1.0000      -1.128676       -30.7128 
   4   1.0000      -0.863082       -23.4857 
   5   1.0000      -0.693111       -18.8605 
   6   1.0000      -0.583913       -15.8891 
   7   1.0000      -0.547436       -14.8965 
   8   1.0000      -0.513738       -13.9795 
   9   1.0000      -0.491149       -13.3648 
  10   1.0000      -0.451501       -12.2860 
  11   0.0000      -0.075873        -2.0646 
  12   0.0000       0.039932         1.0866 
  13   0.0000       0.057258         1.5581 
  14   0.0000       0.061703         1.6790 
  15   0.0000       0.078485         2.1357 
  16   0.0000       0.091113         2.4793 
  17   0.0000       0.108910         2.9636 
  18   0.0000       0.121107         3.2955 
  19   0.0000       0.140993         3.8366 
  20   0.0000       0.150733         4.1016 
  21   0.0000       0.169844         4.6217 
*Only the first 10 virtual orbitals were printed.

                    ********************************
                    * MULLIKEN POPULATION ANALYSIS *
                    ********************************

--------------------------------------------
MULLIKEN ATOMIC CHARGES AND SPIN POPULATIONS
--------------------------------------------
   0 O :   -0.314889    0.991790
   1 C :   -0.053457    0.830987
   2 C :   -0.729748    0.095763
   3 H :    0.215197    0.020699
   4 H :    0.309087    0.023028
   5 H :    0.299555    0.009054
   6 H :    0.274254    0.028679
Sum of atomic charges         :    0.0000000
Sum of atomic spin populations:    2.0000000

-----------------------------------------------------
MULLIKEN REDUCED ORBITAL CHARGES AND SPIN POPULATIONS
-----------------------------------------------------
CHARGE
  0 O s       :     4.006057  s :     4.006057
      pz      :     1.677063  p :     4.268599
      px      :     1.271347
      py      :     1.320189
      dz2     :     0.002976  d :     0.038753
      dxz     :     0.001351
      dyz     :     0.016261
      dx2y2   :     0.008371
      dxy     :     0.009794
      f0      :     0.000194  f :     0.001480
      f+1     :     0.000059
      f-1     :     0.000257
      f+2     :     0.000214
      f-2     :     0.000103
      f+3     :     0.000332
      f-3     :     0.000322

  1 C s       :     3.377435  s :     3.377435
      pz      :     1.073339  p :     2.586348
      px      :     0.897376
      py      :     0.615633
      dz2     :     0.002654  d :     0.077994
      dxz     :     0.010633
      dyz     :     0.035058
      dx2y2   :     0.000036
      dxy     :     0.029613
      f0      :     0.001894  f :     0.011679
      f+1     :     0.000735
      f-1     :     0.001330
      f+2     :     0.001795
      f-2     :     0.001095
      f+3     :     0.002491
      f-3     :     0.002339

  2 C s       :     3.322722  s :     3.322722
      pz      :     1.188915  p :     3.310449
      px      :     1.018931
      py      :     1.102603
      dz2     :     0.023692  d :     0.094193
      dxz     :     0.028694
      dyz     :     0.025748
      dx2y2   :     0.007597
      dxy     :     0.008461
      f0      :     0.000210  f :     0.002383
      f+1     :     0.000398
      f-1     :     0.000150
      f+2     :     0.000074
      f-2     :     0.000588
      f+3     :     0.000463
      f-3     :     0.000501

  3 H s       :     0.734260  s :     0.734260
      pz      :     0.019160  p :     0.048355
      px      :     0.021691
      py      :     0.007504
      dz2     :     0.000647  d :     0.002188
      dxz     :     0.000528
      dyz     :     0.000502
      dx2y2   :     0.000255
      dxy     :     0.000256

  4 H s       :     0.653759  s :     0.653759
      pz      :     0.028562  p :     0.034797
      px      :     0.005106
      py      :     0.001129
      dz2     :     0.000488  d :     0.002356
      dxz     :     0.000556
      dyz     :     0.000216
      dx2y2   :     0.000610
      dxy     :     0.000486

  5 H s       :     0.643951  s :     0.643951
      pz      :     0.021783  p :     0.054050
      px      :     0.009764
      py      :     0.022504
      dz2     :     0.000170  d :     0.002444
      dxz     :     0.000262
      dyz     :     0.000612
      dx2y2   :     0.000817
      dxy     :     0.000583

  6 H s       :     0.668666  s :     0.668666
      pz      :     0.012166  p :     0.054787
      px      :     0.025484
      py      :     0.017137
      dz2     :     0.000757  d :     0.002293
      dxz     :     0.000404
      dyz     :     0.000475
      dx2y2   :     0.000268
      dxy     :     0.000389


SPIN
  0 O s       :    -0.002809  s :    -0.002809
      pz      :     0.257325  p :     0.988426
      px      :     0.612041
      py      :     0.119061
      dz2     :     0.000629  d :     0.006290
      dxz     :     0.000487
      dyz     :     0.005967
      dx2y2   :    -0.000623
      dxy     :    -0.000170
      f0      :     0.000043  f :    -0.000117
      f+1     :     0.000013
      f-1     :    -0.000001
      f+2     :     0.000021
      f-2     :     0.000014
      f+3     :    -0.000124
      f-3     :    -0.000082

  1 C s       :     0.021311  s :     0.021311
      pz      :     0.627296  p :     0.749800
      px      :     0.126059
      py      :    -0.003555
      dz2     :     0.002163  d :     0.059263
      dxz     :     0.007780
      dyz     :     0.017997
      dx2y2   :     0.002217
      dxy     :     0.029107
      f0      :    -0.000370  f :     0.000613
      f+1     :    -0.000161
      f-1     :    -0.000282
      f+2     :     0.000116
      f-2     :     0.000085
      f+3     :     0.000457
      f-3     :     0.000768

  2 C s       :     0.025564  s :     0.025564
      pz      :    -0.018676  p :     0.043818
      px      :     0.014951
      py      :     0.047544
      dz2     :     0.003940  d :     0.025633
      dxz     :     0.020467
      dyz     :     0.000845
      dx2y2   :    -0.000952
      dxy     :     0.001333
      f0      :     0.000099  f :     0.000748
      f+1     :     0.000166
      f-1     :     0.000088
      f+2     :    -0.000013
      f-2     :     0.000298
      f+3     :    -0.000022
      f-3     :     0.000133

  3 H s       :     0.018973  s :     0.018973
      pz      :     0.002166  p :     0.001553
      px      :    -0.001286
      py      :     0.000672
      dz2     :     0.000021  d :     0.000172
      dxz     :     0.000055
      dyz     :     0.000032
      dx2y2   :     0.000053
      dxy     :     0.000011

  4 H s       :    -0.012286  s :    -0.012286
      pz      :     0.034267  p :     0.034394
      px      :     0.000553
      py      :    -0.000426
      dz2     :     0.000357  d :     0.000919
      dxz     :     0.000255
      dyz     :     0.000090
      dx2y2   :     0.000178
      dxy     :     0.000040

  5 H s       :     0.003325  s :     0.003325
      pz      :     0.001302  p :     0.005571
      px      :     0.003777
      py      :     0.000493
      dz2     :     0.000001  d :     0.000157
      dxz     :     0.000015
      dyz     :     0.000020
      dx2y2   :     0.000101
      dxy     :     0.000021

  6 H s       :     0.021563  s :     0.021563
      pz      :     0.000205  p :     0.006883
      px      :     0.004169
      py      :     0.002510
      dz2     :     0.000038  d :     0.000233
      dxz     :     0.000026
      dyz     :     0.000062
      dx2y2   :     0.000051
      dxy     :     0.000056



                     *******************************
                     * LOEWDIN POPULATION ANALYSIS *
                     *******************************

-------------------------------------------
LOEWDIN ATOMIC CHARGES AND SPIN POPULATIONS
-------------------------------------------
   0 O :    0.086231    1.001981
   1 C :   -0.114665    0.672943
   2 C :    0.212525    0.157370
   3 H :   -0.018581    0.011950
   4 H :   -0.051613    0.118171
   5 H :   -0.064889    0.011873
   6 H :   -0.049008    0.025712

----------------------------------------------------
LOEWDIN REDUCED ORBITAL CHARGES AND SPIN POPULATIONS
----------------------------------------------------
CHARGE
  0 O s       :     3.463096  s :     3.463096
      pz      :     1.543732  p :     4.183275
      px      :     1.196766
      py      :     1.442778
      dz2     :     0.026412  d :     0.262611
      dxz     :     0.010935
      dyz     :     0.079257
      dx2y2   :     0.065794
      dxy     :     0.080213
      f0      :     0.000619  f :     0.004786
      f+1     :     0.000126
      f-1     :     0.000671
      f+2     :     0.000820
      f-2     :     0.000341
      f+3     :     0.001057
      f-3     :     0.001152

  1 C s       :     2.706763  s :     2.706763
      pz      :     0.867906  p :     2.576762
      px      :     0.902632
      py      :     0.806225
      dz2     :     0.076028  d :     0.755716
      dxz     :     0.080941
      dyz     :     0.166963
      dx2y2   :     0.225081
      dxy     :     0.206703
      f0      :     0.009838  f :     0.075424
      f+1     :     0.003383
      f-1     :     0.009555
      f+2     :     0.011325
      f-2     :     0.007054
      f+3     :     0.017741
      f-3     :     0.016528

  2 C s       :     2.638103  s :     2.638103
      pz      :     0.933610  p :     2.674972
      px      :     0.873647
      py      :     0.867715
      dz2     :     0.069588  d :     0.445018
      dxz     :     0.142395
      dyz     :     0.048128
      dx2y2   :     0.082407
      dxy     :     0.102500
      f0      :     0.002073  f :     0.029382
      f+1     :     0.005569
      f-1     :     0.004379
      f+2     :     0.002885
      f-2     :     0.004844
      f+3     :     0.005555
      f-3     :     0.004078

  3 H s       :     0.701893  s :     0.701893
      pz      :     0.117398  p :     0.285592
      px      :     0.085316
      py      :     0.082879
      dz2     :     0.010003  d :     0.031095
      dxz     :     0.008128
      dyz     :     0.006484
      dx2y2   :     0.002994
      dxy     :     0.003487

  4 H s       :     0.710035  s :     0.710035
      pz      :     0.121548  p :     0.305171
      px      :     0.119205
      py      :     0.064418
      dz2     :     0.006753  d :     0.036406
      dxz     :     0.009679
      dyz     :     0.003463
      dx2y2   :     0.008417
      dxy     :     0.008095

  5 H s       :     0.709093  s :     0.709093
      pz      :     0.089580  p :     0.318164
      px      :     0.099062
      py      :     0.129522
      dz2     :     0.003533  d :     0.037632
      dxz     :     0.004034
      dyz     :     0.008699
      dx2y2   :     0.010780
      dxy     :     0.010587

  6 H s       :     0.701931  s :     0.701931
      pz      :     0.118183  p :     0.311794
      px      :     0.109694
      py      :     0.083917
      dz2     :     0.010818  d :     0.035283
      dxz     :     0.009159
      dyz     :     0.005840
      dx2y2   :     0.004488
      dxy     :     0.004979


SPIN
  0 O s       :     0.010259  s :     0.010259
      pz      :     0.254334  p :     0.904172
      px      :     0.547819
      py      :     0.102020
      dz2     :     0.003246  d :     0.085857
      dxz     :     0.006211
      dyz     :     0.053722
      dx2y2   :     0.005725
      dxy     :     0.016953
      f0      :     0.000459  f :     0.001693
      f+1     :     0.000040
      f-1     :     0.000055
      f+2     :     0.000648
      f-2     :     0.000216
      f+3     :     0.000146
      f-3     :     0.000130

  1 C s       :     0.007462  s :     0.007462
      pz      :     0.421259  p :     0.516412
      px      :     0.094724
      py      :     0.000430
      dz2     :     0.003397  d :     0.131275
      dxz     :     0.014850
      dyz     :     0.028448
      dx2y2   :     0.019412
      dxy     :     0.065167
      f0      :     0.002036  f :     0.017794
      f+1     :     0.001034
      f-1     :     0.000311
      f+2     :     0.002664
      f-2     :     0.001417
      f+3     :     0.004296
      f-3     :     0.006035

  2 C s       :     0.005803  s :     0.005803
      pz      :     0.001699  p :     0.066804
      px      :     0.023199
      py      :     0.041907
      dz2     :     0.012272  d :     0.079896
      dxz     :     0.050271
      dyz     :     0.006085
      dx2y2   :     0.007544
      dxy     :     0.003724
      f0      :     0.000539  f :     0.004866
      f+1     :     0.001012
      f-1     :     0.000574
      f+2     :     0.000067
      f-2     :     0.001995
      f+3     :    -0.000017
      f-3     :     0.000697

  3 H s       :     0.006968  s :     0.006968
      pz      :     0.001697  p :     0.003751
      px      :     0.002066
      py      :    -0.000012
      dz2     :     0.000072  d :     0.001232
      dxz     :     0.000406
      dyz     :     0.000267
      dx2y2   :     0.000438
      dxy     :     0.000049

  4 H s       :     0.018292  s :     0.018292
      pz      :     0.071686  p :     0.088299
      px      :     0.016218
      py      :     0.000395
      dz2     :     0.004603  d :     0.011579
      dxz     :     0.003672
      dyz     :     0.001155
      dx2y2   :     0.001650
      dxy     :     0.000499

  5 H s       :     0.004977  s :     0.004977
      pz      :    -0.000326  p :     0.005538
      px      :     0.002071
      py      :     0.003794
      dz2     :     0.000016  d :     0.001358
      dxz     :     0.000097
      dyz     :    -0.000009
      dx2y2   :     0.001013
      dxy     :     0.000241

  6 H s       :     0.014134  s :     0.014134
      pz      :    -0.000137  p :     0.010150
      px      :     0.007987
      py      :     0.002301
      dz2     :     0.000108  d :     0.001427
      dxz     :     0.000146
      dyz     :     0.000454
      dx2y2   :     0.000373
      dxy     :     0.000346



                      *****************************
                      * MAYER POPULATION ANALYSIS *
                      *****************************

  NA   - Mulliken gross atomic population
  ZA   - Total nuclear charge
  QA   - Mulliken gross atomic charge
  VA   - Mayer's total valence
  BVA  - Mayer's bonded valence
  FA   - Mayer's free valence

  ATOM       NA         ZA         QA         VA         BVA        FA
  0 O      8.3149     8.0000    -0.3149     2.0321     1.2976     0.7345
  1 C      6.0535     6.0000    -0.0535     3.3165     2.7247     0.5917
  2 C      6.7297     6.0000    -0.7297     3.6485     3.6372     0.0112
  3 H      0.7848     1.0000     0.2152     1.0424     1.0421     0.0002
  4 H      0.6909     1.0000     0.3091     0.9082     0.9055     0.0027
  5 H      0.7004     1.0000     0.2996     0.9721     0.9720     0.0001
  6 H      0.7257     1.0000     0.2743     0.9749     0.9743     0.0006

  Mayer bond orders larger than 0.100000
B(  0-O ,  1-C ) :   1.1490 B(  0-O ,  2-C ) :   0.1235 B(  1-C ,  2-C ) :   0.6876 
B(  1-C ,  4-H ) :   0.9221 B(  2-C ,  3-H ) :   1.0035 B(  2-C ,  5-H ) :   0.9155 
B(  2-C ,  6-H ) :   0.9360 

-------
TIMINGS
-------

Total SCF time: 0 days 0 hours 0 min 4 sec 

Total time                  ....       4.767 sec
Sum of individual times     ....       4.764 sec  ( 99.9%)

SCF preparation             ....       0.597 sec  ( 12.5%)
Fock matrix formation       ....       3.467 sec  ( 72.7%)
  Startup                   ....       0.039 sec  (  1.1% of F)
  Split-RI-J                ....       0.211 sec  (  6.1% of F)
  Chain of spheres X        ....       2.227 sec  ( 64.2% of F)
  XC integration            ....       0.862 sec  ( 24.9% of F)
    XC Preparation          ....       0.000 sec  (  0.0% of XC)
    Basis function eval.    ....       0.062 sec  (  7.2% of XC)
    Density eval.           ....       0.241 sec  ( 28.0% of XC)
    XC-Functional eval.     ....       0.021 sec  (  2.4% of XC)
    XC-Potential eval.      ....       0.365 sec  ( 42.4% of XC)
Diagonalization             ....       0.000 sec  (  0.0%)
Density matrix formation    ....       0.079 sec  (  1.6%)
Total Energy calculation    ....       0.061 sec  (  1.3%)
Population analysis         ....       0.026 sec  (  0.5%)
Orbital Transformation      ....       0.060 sec  (  1.3%)
Orbital Orthonormalization  ....       0.000 sec  (  0.0%)
DIIS solution               ....       0.318 sec  (  6.7%)
SOSCF solution              ....       0.153 sec  (  3.2%)
Finished LeanSCF after   4.8 sec

Maximum memory used throughout the entire LEANSCF-calculation: 14.6 MB
[1741042085.510508] [ohm:244979:0]        ib_iface.c:1059 UCX  ERROR ibv_create_cq(cqe=256) failed: Connection timed out
[1741042085.511413] [ohm:244975:0]        ib_iface.c:1059 UCX  ERROR ibv_create_cq(cqe=256) failed: Connection timed out
[1741042085.511414] [ohm:244977:0]        ib_iface.c:1059 UCX  ERROR ibv_create_cq(cqe=256) failed: Connection timed out
[1741042085.511572] [ohm:244973:0]        ib_iface.c:1059 UCX  ERROR ibv_create_cq(cqe=256) failed: Connection timed out
[1741042085.516873] [ohm:244976:0]        ib_iface.c:1059 UCX  ERROR ibv_create_cq(cqe=256) failed: Connection timed out
[1741042085.517232] [ohm:244980:0]        ib_iface.c:1059 UCX  ERROR ibv_create_cq(cqe=256) failed: Connection timed out
[1741042085.517660] [ohm:244972:0]        ib_iface.c:1059 UCX  ERROR ibv_create_cq(cqe=256) failed: Connection timed out
[1741042085.587115] [ohm:244988:0]        ib_iface.c:1059 UCX  ERROR ibv_create_cq(cqe=256) failed: Connection timed out
[1741042085.592101] [ohm:244974:0]        ib_iface.c:1059 UCX  ERROR ibv_create_cq(cqe=256) failed: Connection timed out
[1741042085.593944] [ohm:245005:0]        ib_iface.c:1059 UCX  ERROR ibv_create_cq(cqe=256) failed: Connection timed out
[1741042085.594663] [ohm:244989:0]        ib_iface.c:1059 UCX  ERROR ibv_create_cq(cqe=256) failed: Connection timed out
[1741042085.597304] [ohm:244983:0]        ib_iface.c:1059 UCX  ERROR ibv_create_cq(cqe=256) failed: Connection timed out
[1741042085.600306] [ohm:244970:0]        ib_iface.c:1059 UCX  ERROR ibv_create_cq(cqe=256) failed: Connection timed out
[1741042085.601783] [ohm:244971:0]        ib_iface.c:1059 UCX  ERROR ibv_create_cq(cqe=256) failed: Connection timed out
[1741042085.602329] [ohm:244978:0]        ib_iface.c:1059 UCX  ERROR ibv_create_cq(cqe=256) failed: Connection timed out
[1741042085.604844] [ohm:244982:0]        ib_iface.c:1059 UCX  ERROR ibv_create_cq(cqe=256) failed: Connection timed out
[1741042085.607888] [ohm:244984:0]        ib_iface.c:1059 UCX  ERROR ibv_create_cq(cqe=256) failed: Connection timed out
[1741042085.609010] [ohm:244986:0]        ib_iface.c:1059 UCX  ERROR ibv_create_cq(cqe=256) failed: Connection timed out
[1741042085.609010] [ohm:244990:0]        ib_iface.c:1059 UCX  ERROR ibv_create_cq(cqe=256) failed: Connection timed out
[1741042085.609010] [ohm:244994:0]        ib_iface.c:1059 UCX  ERROR ibv_create_cq(cqe=256) failed: Connection timed out
[1741042085.609010] [ohm:244998:0]        ib_iface.c:1059 UCX  ERROR ibv_create_cq(cqe=256) failed: Connection timed out
[1741042085.609124] [ohm:245006:0]        ib_iface.c:1059 UCX  ERROR ibv_create_cq(cqe=256) failed: Connection timed out
[1741042085.609608] [ohm:244992:0]        ib_iface.c:1059 UCX  ERROR ibv_create_cq(cqe=256) failed: Connection timed out
[1741042085.614942] [ohm:244985:0]        ib_iface.c:1059 UCX  ERROR ibv_create_cq(cqe=256) failed: Connection timed out
[1741042085.615030] [ohm:244991:0]        ib_iface.c:1059 UCX  ERROR ibv_create_cq(cqe=256) failed: Connection timed out
[1741042085.615418] [ohm:244993:0]        ib_iface.c:1059 UCX  ERROR ibv_create_cq(cqe=256) failed: Connection timed out
[1741042085.615272] [ohm:244987:0]        ib_iface.c:1059 UCX  ERROR ibv_create_cq(cqe=256) failed: Connection timed out
[1741042085.615673] [ohm:244995:0]        ib_iface.c:1059 UCX  ERROR ibv_create_cq(cqe=256) failed: Connection timed out
[1741042085.615731] [ohm:245015:0]        ib_iface.c:1059 UCX  ERROR ibv_create_cq(cqe=256) failed: Connection timed out
[1741042085.615723] [ohm:245024:0]        ib_iface.c:1059 UCX  ERROR ibv_create_cq(cqe=256) failed: Connection timed out
[1741042085.615760] [ohm:244981:0]        ib_iface.c:1059 UCX  ERROR ibv_create_cq(cqe=256) failed: Connection timed out
[1741042085.615878] [ohm:245019:0]        ib_iface.c:1059 UCX  ERROR ibv_create_cq(cqe=256) failed: Connection timed out


           ************************************************************
           *        Program running with 32 parallel MPI-processes    *
           *              working on a common directory               *
           ************************************************************

------------------------------------------------------------------------------
                         ORCA PROPERTY INTEGRAL CALCULATIONS
------------------------------------------------------------------------------

GBWName                                   ... orca.gbw
Number of atoms                           ...      7
Number of basis functions                 ...    182
Max core memory                           ...   1024 MB

Dipole integrals                          ... YES
Quadrupole integrals                      ...  NO
Linear momentum integrals                 ... YES
Angular momentum integrals                ... YES
Higher moments length integrals           ...  NO
Higher moments velocity integrals         ...  NO
Kinetic energy integrals                  ...  NO
GIAO right hand sides                     ...  NO
GIAO dipole derivative integrals          ...  NO
SOC integrals                             ...  NO
EPR diamagnetic integrals (GIAO)          ...  NO
EPR gauge integrals                       ...  NO
Field gradient integrals                  ...  NO (   0 nuclei)
Spin-dipole/Fermi contact integrals       ...  NO (   0 nuclei)
Contact density integrals                 ...  NO (   0 nuclei)
Nucleus-orbit integrals                   ...  NO (   0 nuclei)
Geometric perturbations                   ...  NO (   7 nuclei)

Choice of electric origin   ... Center of mass
Position of electric origin ... (  0.5043,  0.4624,  0.0367) 
Choice of magnetic origin   ... GIAO
Position of magnetic origin ... (  0.0000,  0.0000,  0.0000) 

Calculating integrals                     ... Electric Dipole (Length)     done (  0.0 sec)
Calculating integrals                     ... Linear Momentum              done (  0.0 sec)
Calculating integrals                     ... Angular Momentum  (ElOri)    done (  0.0 sec)

Property integrals calculated in   0.0 sec

Maximum memory used throughout the entire PROPINT-calculation: 10.2 MB
[1741042086.467506] [ohm:245152:0]        ib_iface.c:1059 UCX  ERROR ibv_create_cq(cqe=256) failed: Connection timed out
[1741042086.467498] [ohm:245155:0]        ib_iface.c:1059 UCX  ERROR ibv_create_cq(cqe=256) failed: Connection timed out
[1741042086.467498] [ohm:245143:0]        ib_iface.c:1059 UCX  ERROR ibv_create_cq(cqe=256) failed: Connection timed out
[1741042086.473313] [ohm:245148:0]        ib_iface.c:1059 UCX  ERROR ibv_create_cq(cqe=256) failed: Connection timed out
[1741042086.515832] [ohm:245160:0]        ib_iface.c:1059 UCX  ERROR ibv_create_cq(cqe=256) failed: Connection timed out
[1741042086.516080] [ohm:245174:0]        ib_iface.c:1059 UCX  ERROR ibv_create_cq(cqe=256) failed: Connection timed out
[1741042086.522573] [ohm:245168:0]        ib_iface.c:1059 UCX  ERROR ibv_create_cq(cqe=256) failed: Connection timed out
[1741042086.548094] [ohm:245167:0]        ib_iface.c:1059 UCX  ERROR ibv_create_cq(cqe=256) failed: Connection timed out
[1741042086.551772] [ohm:245150:0]        ib_iface.c:1059 UCX  ERROR ibv_create_cq(cqe=256) failed: Connection timed out
[1741042086.551778] [ohm:245177:0]        ib_iface.c:1059 UCX  ERROR ibv_create_cq(cqe=256) failed: Connection timed out
[1741042086.552025] [ohm:245154:0]        ib_iface.c:1059 UCX  ERROR ibv_create_cq(cqe=256) failed: Connection timed out
[1741042086.552057] [ohm:245158:0]        ib_iface.c:1059 UCX  ERROR ibv_create_cq(cqe=256) failed: Connection timed out
[1741042086.554207] [ohm:245145:0]        ib_iface.c:1059 UCX  ERROR ibv_create_cq(cqe=256) failed: Connection timed out
[1741042086.554917] [ohm:245147:0]        ib_iface.c:1059 UCX  ERROR ibv_create_cq(cqe=256) failed: Connection timed out
[1741042086.559681] [ohm:245153:0]        ib_iface.c:1059 UCX  ERROR ibv_create_cq(cqe=256) failed: Connection timed out
[1741042086.559715] [ohm:245179:0]        ib_iface.c:1059 UCX  ERROR ibv_create_cq(cqe=256) failed: Connection timed out
[1741042086.564204] [ohm:245196:0]        ib_iface.c:1059 UCX  ERROR ibv_create_cq(cqe=256) failed: Connection timed out
[1741042086.564204] [ohm:245162:0]        ib_iface.c:1059 UCX  ERROR ibv_create_cq(cqe=256) failed: Connection timed out
[1741042086.564660] [ohm:245185:0]        ib_iface.c:1059 UCX  ERROR ibv_create_cq(cqe=256) failed: Connection timed out
[1741042086.565346] [ohm:245144:0]        ib_iface.c:1059 UCX  ERROR ibv_create_cq(cqe=256) failed: Connection timed out
[1741042086.570355] [ohm:245146:0]        ib_iface.c:1059 UCX  ERROR ibv_create_cq(cqe=256) failed: Connection timed out
[1741042086.570639] [ohm:245172:0]        ib_iface.c:1059 UCX  ERROR ibv_create_cq(cqe=256) failed: Connection timed out
[1741042086.570775] [ohm:245178:0]        ib_iface.c:1059 UCX  ERROR ibv_create_cq(cqe=256) failed: Connection timed out
[1741042086.570946] [ohm:245187:0]        ib_iface.c:1059 UCX  ERROR ibv_create_cq(cqe=256) failed: Connection timed out
[1741042086.570931] [ohm:245151:0]        ib_iface.c:1059 UCX  ERROR ibv_create_cq(cqe=256) failed: Connection timed out
[1741042086.571213] [ohm:245161:0]        ib_iface.c:1059 UCX  ERROR ibv_create_cq(cqe=256) failed: Connection timed out
[1741042086.571240] [ohm:245149:0]        ib_iface.c:1059 UCX  ERROR ibv_create_cq(cqe=256) failed: Connection timed out
[1741042086.571465] [ohm:245157:0]        ib_iface.c:1059 UCX  ERROR ibv_create_cq(cqe=256) failed: Connection timed out
[1741042086.571271] [ohm:245156:0]        ib_iface.c:1059 UCX  ERROR ibv_create_cq(cqe=256) failed: Connection timed out
[1741042086.571790] [ohm:245180:0]        ib_iface.c:1059 UCX  ERROR ibv_create_cq(cqe=256) failed: Connection timed out
[1741042086.571621] [ohm:245181:0]        ib_iface.c:1059 UCX  ERROR ibv_create_cq(cqe=256) failed: Connection timed out
[1741042086.571505] [ohm:245176:0]        ib_iface.c:1059 UCX  ERROR ibv_create_cq(cqe=256) failed: Connection timed out


           ************************************************************
           *        Program running with 32 parallel MPI-processes    *
           *              working on a common directory               *
           ************************************************************
------------------------------------------------------------------------------
                        ORCA TD-DFT/TDA CALCULATION
------------------------------------------------------------------------------

Input orbitals are from        ... orca.gbw
CI-vector output               ... orca.cis
Solver                         ... FN-2001
Tamm-Dancoff approximation     ... operative
CIS-Integral strategy          ... AO-integrals
Integral handling              ... AO integral Direct
Max. core memory used          ... 512 MB
Reference state                ... UHF
Follow IRoot                   ... off
Number of operators            ... 2
Orbital ranges used for CIS calculation:
 Operator 0:  Orbitals   3... 12  to  11...181

-------------------
XC-INTEGRATION GRID
-------------------

General Integration Accuracy     IntAcc      ... 3.467
Radial Grid Type                 RadialGrid  ... OptM3 with GC (2021)
Angular Grid (max. ang.)         AngularGrid ... 1 (Lebedev-50)
Angular grid pruning method      GridPruning ... 4 (adaptive)
Weight generation scheme         WeightScheme... mBecke (2022)
Basis function cutoff            BFCut       ... 1.0000e-11
Integration weight cutoff        WCut        ... 1.0000e-14
Partially contracted basis set               ... off
Rotationally invariant grid construction     ... off
Angular grids for H and He will be reduced by one unit
Diffuse basis detected: some atoms will have their outermost
                        angular grid increased by 1.

Total number of grid points                  ...     4738
Total number of batches                      ...       76
[...]
=> NOW LEAVING ORCA_CIS


-------------------------------------------------------------------------------
                          DFT DISPERSION CORRECTION                            
                                                                               
                              DFTD3 V3.1  Rev 1                                
                          USING Becke-Johnson damping                          
-------------------------------------------------------------------------------
The WB97M functional is recognized
Active option DFTDOPT                   ...         4   

molecular C6(AA) [au] = 394.986499 


            DFT-D V3
 parameters
 s6 scaling factor         :     1.0000 
 a1 scaling factor         :     0.5660 
 s8 scaling factor         :     0.3908 
 a2 scaling factor         :     3.1280 
 ad hoc parameters k1-k3   :    16.0000     1.3333    -4.0000 

 Edisp/kcal,au: -3.499997475767  -0.005577600414 
 E6   /kcal   :  -2.820761737 
 E8   /kcal   :  -0.679235738 
 % E8         :  19.406749381 

-------------------------   ----------------
Dispersion correction           -0.005577600
-------------------------   ----------------


-------------------------   --------------------
FINAL SINGLE POINT ENERGY      -153.877288413951
-------------------------   --------------------

[1741042092.970892] [ohm:245345:0]        ib_iface.c:1059 UCX  ERROR ibv_create_cq(cqe=256) failed: Connection timed out
[1741042092.972351] [ohm:245355:0]        ib_iface.c:1059 UCX  ERROR ibv_create_cq(cqe=256) failed: Connection timed out
[1741042092.972564] [ohm:245352:0]        ib_iface.c:1059 UCX  ERROR ibv_create_cq(cqe=256) failed: Connection timed out
[1741042092.973336] [ohm:245359:0]        ib_iface.c:1059 UCX  ERROR ibv_create_cq(cqe=256) failed: Connection timed out
[1741042092.973448] [ohm:245346:0]        ib_iface.c:1059 UCX  ERROR ibv_create_cq(cqe=256) failed: Connection timed out
[1741042092.981918] [ohm:245349:0]        ib_iface.c:1059 UCX  ERROR ibv_create_cq(cqe=256) failed: Connection timed out
[1741042092.989655] [ohm:245356:0]        ib_iface.c:1059 UCX  ERROR ibv_create_cq(cqe=256) failed: Connection timed out
[1741042092.994377] [ohm:245363:0]        ib_iface.c:1059 UCX  ERROR ibv_create_cq(cqe=256) failed: Connection timed out
[1741042093.003730] [ohm:245384:0]        ib_iface.c:1059 UCX  ERROR ibv_create_cq(cqe=256) failed: Connection timed out
[1741042093.003902] [ohm:245364:0]        ib_iface.c:1059 UCX  ERROR ibv_create_cq(cqe=256) failed: Connection timed out
[1741042093.014238] [ohm:245366:0]        ib_iface.c:1059 UCX  ERROR ibv_create_cq(cqe=256) failed: Connection timed out
[1741042093.017986] [ohm:245350:0]        ib_iface.c:1059 UCX  ERROR ibv_create_cq(cqe=256) failed: Connection timed out
[1741042093.018122] [ohm:245351:0]        ib_iface.c:1059 UCX  ERROR ibv_create_cq(cqe=256) failed: Connection timed out
[1741042093.018485] [ohm:245357:0]        ib_iface.c:1059 UCX  ERROR ibv_create_cq(cqe=256) failed: Connection timed out
[1741042093.018850] [ohm:245369:0]        ib_iface.c:1059 UCX  ERROR ibv_create_cq(cqe=256) failed: Connection timed out
[1741042093.020602] [ohm:245353:0]        ib_iface.c:1059 UCX  ERROR ibv_create_cq(cqe=256) failed: Connection timed out
[1741042093.021479] [ohm:245348:0]        ib_iface.c:1059 UCX  ERROR ibv_create_cq(cqe=256) failed: Connection timed out
[1741042093.021965] [ohm:245368:0]        ib_iface.c:1059 UCX  ERROR ibv_create_cq(cqe=256) failed: Connection timed out
[1741042093.022592] [ohm:245361:0]        ib_iface.c:1059 UCX  ERROR ibv_create_cq(cqe=256) failed: Connection timed out
[1741042093.023435] [ohm:245381:0]        ib_iface.c:1059 UCX  ERROR ibv_create_cq(cqe=256) failed: Connection timed out
[1741042093.028022] [ohm:245354:0]        ib_iface.c:1059 UCX  ERROR ibv_create_cq(cqe=256) failed: Connection timed out
[1741042093.029156] [ohm:245347:0]        ib_iface.c:1059 UCX  ERROR ibv_create_cq(cqe=256) failed: Connection timed out
[1741042093.031779] [ohm:245373:0]        ib_iface.c:1059 UCX  ERROR ibv_create_cq(cqe=256) failed: Connection timed out
[1741042093.032522] [ohm:245360:0]        ib_iface.c:1059 UCX  ERROR ibv_create_cq(cqe=256) failed: Connection timed out
[1741042093.032710] [ohm:245397:0]        ib_iface.c:1059 UCX  ERROR ibv_create_cq(cqe=256) failed: Connection timed out
[1741042093.033691] [ohm:245392:0]        ib_iface.c:1059 UCX  ERROR ibv_create_cq(cqe=256) failed: Connection timed out
[1741042093.033776] [ohm:245367:0]        ib_iface.c:1059 UCX  ERROR ibv_create_cq(cqe=256) failed: Connection timed out
[1741042093.034398] [ohm:245393:0]        ib_iface.c:1059 UCX  ERROR ibv_create_cq(cqe=256) failed: Connection timed out
[1741042093.034635] [ohm:245365:0]        ib_iface.c:1059 UCX  ERROR ibv_create_cq(cqe=256) failed: Connection timed out
[1741042093.034764] [ohm:245362:0]        ib_iface.c:1059 UCX  ERROR ibv_create_cq(cqe=256) failed: Connection timed out
[1741042093.034912] [ohm:245358:0]        ib_iface.c:1059 UCX  ERROR ibv_create_cq(cqe=256) failed: Connection timed out
[1741042093.034963] [ohm:245377:0]        ib_iface.c:1059 UCX  ERROR ibv_create_cq(cqe=256) failed: Connection timed out


           ************************************************************
           *        Program running with 32 parallel MPI-processes    *
           *              working on a common directory               *
           ************************************************************

------------------------------------------------------------------------------
                              ORCA PROPERTY CALCULATIONS
------------------------------------------------------------------------------

GBWName                                 ... orca.gbw
Number of atoms                         ...      7
Number of basis functions               ...    182
Max core memory                         ...   1024 MB

Electric properties:
Dipole moment                           ... YES
Quadrupole moment                       ...  NO
Static polarizability (Dipole/Dipole)   ...  NO
Static polarizability (Dipole/Quad.)    ...  NO
Static polarizability (Quad./Quad.)     ...  NO
Static polarizability (Velocity)        ...  NO

Atomic electric properties:
Dipole moment                           ...  NO
Quadrupole moment                       ...  NO
Static polarizability                   ...  NO

Choice of electric origin               ... Center of mass
Position of electric origin             ...     0.504336     0.462411     0.036650

General magnetic properties:
Magnetizability                         ...  NO

EPR properties:
g-Tensor (aka g-matrix)                 ...  NO
Zero-Field splitting spin-orbit         ...  NO
Zero-field splitting spin-spin          ...  NO
Hyperfine couplings                     ...  NO (   0 nuclei)
Quadrupole couplings                    ...  NO (   0 nuclei)
Contact density                         ...  NO (   0 nuclei)

NMR properties:
Chemical shifts                         ...  NO (   0 nuclei)
Spin-rotation constants                 ...  NO (   0 nuclei)
Spin-spin couplings                     ...  NO (   0 nuclei,    0 pairs)

Choice of magnetic origin               ... GIAO
Position of magnetic origin             ...     0.000000     0.000000     0.000000

Properties with geometric perturbations:
SCF Hessian                             ...  NO
IR spectrum                             ...  NO
VCD spectrum                            ...  NO
X-ray spectroscopy properties:
SCF XES/XAS/RIXS spectra                ...  NO


-------------
DIPOLE MOMENT
-------------

Method             : SCF
Type of density    : Electron Density
Multiplicity       :   3
Irrep              :   0
Energy             :  -153.7828229106726212 Eh
Relativity type    : 
Basis              : AO
                                X                 Y                 Z
Electronic contribution:      1.095382126       3.230370498      -0.350363165
Nuclear contribution   :     -1.109393170      -3.918603700       0.284396106
                        -----------------------------------------
Total Dipole Moment    :     -0.014011044      -0.688233202      -0.065967059
                        -----------------------------------------
Magnitude (a.u.)       :      0.691529394
Magnitude (Debye)      :      1.757728030



--------------------
Rotational spectrum 
--------------------
 
Rotational constants in cm-1:             1.484512             0.343018             0.293316 
Rotational constants in MHz :         44504.542627         10283.409295          8793.384942 

Dipole components along the rotational axes: 
x,y,z [a.u.] :     0.633927     0.268308     0.066034 
x,y,z [Debye]:     1.611314     0.681984     0.167845 

 

-------------
DIPOLE MOMENT
-------------

Method             : TDA/CIS
Type of density    : Electron Density
Level              : Relaxed density
State              :   1
Multiplicity       :   3
Irrep              :   0
Energy             :     0.0000000000000000 Eh
Relativity type    : 
Basis              : AO
                                X                 Y                 Z
Electronic contribution:      1.280280162       2.538077681      -0.370461830
Nuclear contribution   :     -1.109393170      -3.918603700       0.284396106
                        -----------------------------------------
Total Dipole Moment    :      0.170886992      -1.380526019      -0.086065724
                        -----------------------------------------
Magnitude (a.u.)       :      1.393722269
Magnitude (Debye)      :      3.542560476



--------------------
Rotational spectrum 
--------------------
 
Rotational constants in cm-1:             1.484512             0.343018             0.293316 
Rotational constants in MHz :         44504.542627         10283.409295          8793.384942 

Dipole components along the rotational axes: 
x,y,z [a.u.] :     1.206673     0.697089     0.021658 
x,y,z [Debye]:     3.067119     1.771859     0.055049 

 

Dipole moment calculation done in   0.0 sec 

Maximum memory used throughout the entire PROP-calculation: 7.4 MB
[1741042093.857244] [ohm:245523:0]        ib_iface.c:1059 UCX  ERROR ibv_create_cq(cqe=256) failed: Connection timed out
[1741042093.857244] [ohm:245517:0]        ib_iface.c:1059 UCX  ERROR ibv_create_cq(cqe=256) failed: Connection timed out
[1741042093.857330] [ohm:245524:0]        ib_iface.c:1059 UCX  ERROR ibv_create_cq(cqe=256) failed: Connection timed out
[1741042093.860909] [ohm:245514:0]        ib_iface.c:1059 UCX  ERROR ibv_create_cq(cqe=256) failed: Connection timed out
[1741042093.861414] [ohm:245518:0]        ib_iface.c:1059 UCX  ERROR ibv_create_cq(cqe=256) failed: Connection timed out
[1741042093.863614] [ohm:245516:0]        ib_iface.c:1059 UCX  ERROR ibv_create_cq(cqe=256) failed: Connection timed out
[1741042093.864056] [ohm:245512:0]        ib_iface.c:1059 UCX  ERROR ibv_create_cq(cqe=256) failed: Connection timed out
[1741042093.881448] [ohm:245527:0]        ib_iface.c:1059 UCX  ERROR ibv_create_cq(cqe=256) failed: Connection timed out
[1741042093.905735] [ohm:245562:0]        ib_iface.c:1059 UCX  ERROR ibv_create_cq(cqe=256) failed: Connection timed out
[1741042093.905842] [ohm:245544:0]        ib_iface.c:1059 UCX  ERROR ibv_create_cq(cqe=256) failed: Connection timed out
[1741042093.905883] [ohm:245526:0]        ib_iface.c:1059 UCX  ERROR ibv_create_cq(cqe=256) failed: Connection timed out
[1741042093.905930] [ohm:245557:0]        ib_iface.c:1059 UCX  ERROR ibv_create_cq(cqe=256) failed: Connection timed out
[1741042093.926337] [ohm:245534:0]        ib_iface.c:1059 UCX  ERROR ibv_create_cq(cqe=256) failed: Connection timed out
[1741042093.926331] [ohm:245550:0]        ib_iface.c:1059 UCX  ERROR ibv_create_cq(cqe=256) failed: Connection timed out
[1741042093.935751] [ohm:245555:0]        ib_iface.c:1059 UCX  ERROR ibv_create_cq(cqe=256) failed: Connection timed out
[1741042093.936150] [ohm:245547:0]        ib_iface.c:1059 UCX  ERROR ibv_create_cq(cqe=256) failed: Connection timed out
[1741042093.937628] [ohm:245542:0]        ib_iface.c:1059 UCX  ERROR ibv_create_cq(cqe=256) failed: Connection timed out
[1741042093.940746] [ohm:245521:0]        ib_iface.c:1059 UCX  ERROR ibv_create_cq(cqe=256) failed: Connection timed out
[1741042093.942005] [ohm:245529:0]        ib_iface.c:1059 UCX  ERROR ibv_create_cq(cqe=256) failed: Connection timed out
[1741042093.945610] [ohm:245546:0]        ib_iface.c:1059 UCX  ERROR ibv_create_cq(cqe=256) failed: Connection timed out
[1741042093.946038] [ohm:245538:0]        ib_iface.c:1059 UCX  ERROR ibv_create_cq(cqe=256) failed: Connection timed out
[1741042093.946091] [ohm:245519:0]        ib_iface.c:1059 UCX  ERROR ibv_create_cq(cqe=256) failed: Connection timed out
[1741042093.948566] [ohm:245543:0]        ib_iface.c:1059 UCX  ERROR ibv_create_cq(cqe=256) failed: Connection timed out
[1741042093.949184] [ohm:245552:0]        ib_iface.c:1059 UCX  ERROR ibv_create_cq(cqe=256) failed: Connection timed out
[1741042093.949185] [ohm:245515:0]        ib_iface.c:1059 UCX  ERROR ibv_create_cq(cqe=256) failed: Connection timed out
[1741042093.949808] [ohm:245513:0]        ib_iface.c:1059 UCX  ERROR ibv_create_cq(cqe=256) failed: Connection timed out
[1741042093.950512] [ohm:245525:0]        ib_iface.c:1059 UCX  ERROR ibv_create_cq(cqe=256) failed: Connection timed out
[1741042093.950703] [ohm:245522:0]        ib_iface.c:1059 UCX  ERROR ibv_create_cq(cqe=256) failed: Connection timed out
[1741042093.950700] [ohm:245545:0]        ib_iface.c:1059 UCX  ERROR ibv_create_cq(cqe=256) failed: Connection timed out
[1741042093.950730] [ohm:245548:0]        ib_iface.c:1059 UCX  ERROR ibv_create_cq(cqe=256) failed: Connection timed out
[1741042093.950740] [ohm:245520:0]        ib_iface.c:1059 UCX  ERROR ibv_create_cq(cqe=256) failed: Connection timed out
[1741042093.951067] [ohm:245537:0]        ib_iface.c:1059 UCX  ERROR ibv_create_cq(cqe=256) failed: Connection timed out

--------------------------------
SUGGESTED CITATIONS FOR THIS RUN
--------------------------------

Below you find a list of papers that are relevant to this ORCA run
We neither can nor want to force you to cite these papers, but we appreciate if you do
You receive ORCA, which is the product of decades of hard work by many enthusiastic individuals, for free
The only thing we kindly ask in return is that you cite our papers,
We deeply appreciate it, if you show your appreciation for ORCA by not just citing the generic ORCA reference.

Please note that relegating all ORCA citations to the supporting information does *not* help us.
SI sections are not indexed - citations you put there will not count into any citation statistics
But we need these citations in order to attract the funding resources that allow us to do what we are doing

Therefore, if you are a happy ORCA user, please consider citing a few of the papers listed below in the main body of your paper

In addition to the list printed below, the program has created the file orca.bibtex that contains the list in bibtex format
You can import this file easily into all common literature databanks and citation aid programs


List of essential papers. We consider these as the minimum necessary citations

  1. Neese,F.
     Software update: the ORCA program system, version 5.0
     WIRES Comput. Molec. Sci., 2022 12(1)e1606
     doi.org/10.1002/wcms.1606

List of papers to cite with high priority. The work reported in these papers was absolutely
necessary for this run to complete.
Our perspective: the developers of density functionals and basis sets usually get cited in chemistry papers
Good! But without the algorithms to do something with them, the functionals or basis sets would not do anything.
Hence, in our opinion, the algorithm design and method developments papers are equally worthy of getting cited

  1. Neese,F.; Olbrich,G.
     Efficient use of the resolution of the identity approximation in time-dependent density functional calculations with hybrid density functionals
     Chem. Phys. Lett., 2002 362 170-178
     doi.org/10.1016/s0009-2614(02)01053-9
  2. Neese,F.
     An improvement of the resolution of the identity approximation for the formation of the Coulomb matrix
     J. Comp. Chem., 2003 24(14)1740-1747
     doi.org/10.1002/jcc.10318
  3. Neese,F.; Wennmohs,F.; Hansen,A.; Becker,U.
     Efficient, approximate and parallel Hartree-Fock and hybrid DFT calculations. A 'chain-of-spheres' algorithm for the Hartree-Fock exchange
     Chem. Phys., 2009 356(1-3)98-109
     doi.org/10.1016/j.chemphys.2008.10.036
  4. Petrenko,T.; Kossmann,S.; Neese,F.
     Efficient time-dependent density functional theory approximations for hybrid density functionals: Analytical gradients and parallelization
     J. Chem. Phys., 2011 134 054116
     doi.org/10.1063/1.3533441
  5. Helmich-Paris,B.; de Souza,B.; Neese,F.; Izsák,R.
     An improved chain of spheres for exchange algorithm
     J. Chem. Phys., 2021 155 104109
     doi.org/doi: 10.1063/5.0058766.
  6. Neese,F.
     The SHARK Integral Generation and Digestion System
     J. Comp. Chem., 2022  1-16
     doi.org/10.1002/jcc.26942
  7. Lehtola,S.; Steigemann,C.; Oliveira,M.; Marques,M.
     Recent developments in Libxc - A comprehensive library of functionals for density functional theory
     Software X, 2018 7 
     doi.org/10.1016/j.softx.2017.11.002
  8. Grimme,S.; Antony,J.; Ehrlich,S.; Krieg,H.
     A consistent and accurate ab initio parametrization of density functional dispersion correction (DFT-D) for the 94 elements H-Pu
     J. Chem. Phys., 2010 132 154104-XXXX
     doi.org/10.1063/1.3382344
  9. Grimme,S.; Ehrlich,S.; Goerigk,L.
     Effect of the damping function in dispersion corrected density functional theory
     J. Comput. Chem., 2011 32(7)1456-1465
     doi.org/10.1002/jcc.21759

List of suggested additional citations. These are papers that are important in the 'surrounding' of 
of this run, or papers that preceded the highly important papers. If you like your results we are grateful for a citation.

  1. Izsak,R.; Neese,F.
     An overlap fitted chain of spheres exchange method
     J. Chem. Phys., 2011 135 144105
     doi.org/10.1063/1.3646921
  2. Izsak,R.; Hansen,A.; Neese,F.
     The resolution of identity and chain of spheres approximations for the LPNO-CCSD singles Fock term
     Molec. Phys., 2012 110 2413-2417
     doi.org/10.1080/00268976.2012.687466
  3. Neese,F.
     The ORCA program system
     WIRES Comput. Molec. Sci., 2012 2(1)73-78
     doi.org/10.1002/wcms.81
  4. Izsak,R.; Neese,F.; Klopper,W.
     Robust fitting techniques in the chain of spheres approximation to the Fock exchange: The role of the complementary space
     J. Chem. Phys., 2013 139 
     doi.org/10.1063/1.4819264
  5. Neese,F.
     Software update: the ORCA program system, version 4.0
     WIRES Comput. Molec. Sci., 2018 8(1)1-6
     doi.org/10.1002/wcms.1327
  6. Neese,F.; Wennmohs,F.; Becker,U.; Riplinger,C.
     The ORCA quantum chemistry program package
     J. Chem. Phys., 2020 152 Art. No. L224108
     doi.org/10.1063/5.0004608

List of optional additional citations

  1. Neese,F.
     Approximate second-order SCF convergence for spin unrestricted wavefunctions
     Chem. Phys. Lett., 2000 325(1-3)93-98
     doi.org/10.1016/s0009-2614(00)00662-x

Timings for individual modules:

Sum of individual times          ...       15.600 sec (=   0.260 min)
Startup calculation              ...        1.200 sec (=   0.020 min)   7.7 %
SCF iterations                   ...        6.094 sec (=   0.102 min)  39.1 %
Property integrals               ...        0.970 sec (=   0.016 min)   6.2 %
Property calculations            ...        0.850 sec (=   0.014 min)   5.4 %
CIS module                       ...        6.486 sec (=   0.108 min)  41.6 %
                             ****ORCA TERMINATED NORMALLY****
TOTAL RUN TIME: 0 days 0 hours 0 minutes 16 seconds 576 msec
