
                                 *****************
                                 * O   R   C   A *
                                 *****************

                                            #,                                       
                                            ###                                      
                                            ####                                     
                                            #####                                    
                                            ######                                   
                                           ########,                                 
                                     ,,################,,,,,                         
                               ,,#################################,,                 
                          ,,##########################################,,             
                       ,#########################################, ''#####,          
                    ,#############################################,,   '####,        
                  ,##################################################,,,,####,       
                ,###########''''           ''''###############################       
              ,#####''   ,,,,##########,,,,          '''####'''          '####       
            ,##' ,,,,###########################,,,                        '##       
           ' ,,###''''                  '''############,,,                           
         ,,##''                                '''############,,,,        ,,,,,,###''
      ,#''                                            '''#######################'''  
     '                                                          ''''####''''         
             ,#######,   #######,   ,#######,      ##                                
            ,#'     '#,  ##    ##  ,#'     '#,    #''#        ,####,   ,####,        
            ##       ##  ##   ,#'  ##            #'  '#       #'       #'  '#        
            ##       ##  #######   ##           ,######,      #####,   #    #        
            '#,     ,#'  ##    ##  '#,     ,#' ,#      #,     #,   #   #,  ,#        
             '#######'   ##     ##  '#######'  #'      '#     '####' # '####'        



                #########################################################
                #                        -***-                          #
                #          Department of theory and spectroscopy        #
                #                                                       #
                #                      Frank Neese                      #
                #                                                       #
                #     Directorship, Architecture, Infrastructure        #
                #                    SHARK, DRIVERS                     #
                #        Core code/Algorithms in most modules           #
                #                                                       #
                #        Max Planck Institute fuer Kohlenforschung      #
                #                Kaiser Wilhelm Platz 1                 #
                #                 D-45470 Muelheim/Ruhr                 #
                #                      Germany                          #
                #                                                       #
                #                  All rights reserved                  #
                #                        -***-                          #
                #########################################################


                         Program Version 6.0.0  -   RELEASE  -


 With contributions from (in alphabetic order):
   Daniel Aravena         : Magnetic Suceptibility
   Michael Atanasov       : Ab Initio Ligand Field Theory (pilot matlab implementation)
   Alexander A. Auer      : GIAO ZORA, VPT2 properties, NMR spectrum
   Ute Becker             : All parallelization in ORCA, NUMFREQ, NUMCALC
   Giovanni Bistoni       : ED, misc. LED, open-shell LED, HFLD
   Martin Brehm           : Molecular dynamics
   Dmytro Bykov           : pre 5.0 version of the SCF Hessian
   Marcos Casanova-Páez   : Triplet and SCS-CIS(D). UHF-(DLPNO)-IP/EA/STEOM-CCSD. UHF-CVS-IP/STEOM-CCSD
   Vijay G. Chilkuri      : MRCI spin determinant printing, contributions to CSF-ICE
   Pauline Colinet        : FMM embedding
   Dipayan Datta          : RHF DLPNO-CCSD density
   Achintya Kumar Dutta   : EOM-CC, STEOM-CC
   Nicolas Foglia         : Exact transition moments, OPA infrastructure, MCD improvements
   Dmitry Ganyushin       : Spin-Orbit,Spin-Spin,Magnetic field MRCI
   Miquel Garcia          : C-PCM and meta-GGA Hessian, CCSD/C-PCM, Gaussian charge scheme
   Tiago L. C. Gouveia    : GS-ROHF, GS-ROCIS
   Yang Guo               : DLPNO-NEVPT2, F12-NEVPT2, CIM, IAO-localization
   Andreas Hansen         : Spin unrestricted coupled pair/coupled cluster methods
   Ingolf Harden          : AUTO-CI MPn and infrastructure 
   Benjamin Helmich-Paris : MC-RPA, TRAH-(SCF,CASSCF), AVAS, COSX integrals, SCF dyn. polar.
   Lee Huntington         : MR-EOM, pCC
   Robert Izsak           : Overlap fitted RIJCOSX, COSX-SCS-MP3, EOM
   Riya Kayal             : Wick's Theorem for AUTO-CI, AUTO-CI UHF-CCSDT
   Emily Kempfer          : AUTO-CI, RHF CISDT and CCSDT
   Christian Kollmar      : KDIIS, OOCD, Brueckner-CCSD(T), CCSD density, CASPT2, CASPT2-K, improved NEVPT2
   Axel Koslowski         : Symmetry handling
   Simone Kossmann        : Meta GGA functionals, TD-DFT gradient, OOMP2, (MP2 Hessian; deprecated post 5.0)
   Lucas Lang             : DCDCAS
   Marvin Lechner         : AUTO-CI (C++ implementation), FIC-MRCC
   Spencer Leger          : CASSCF response
   Dagmar Lenk            : GEPOL surface, SMD, ORCA-2-JSON
   Dimitrios Liakos       : Extrapolation schemes; Compound Job, initial MDCI parallelization
   Dimitrios Manganas     : Further ROCIS development; embedding schemes. LFT, Crystal Embedding
   Dimitrios Pantazis     : SARC Basis sets
   Anastasios Papadopoulos: AUTO-CI, single reference methods and gradients
   Taras Petrenko         : pre 6.0 DFT Hessian and TD-DFT gradient, (ASA, deprecated), ECA, 1-Electron XAS/XES, NRVS
   Peter Pinski           : DLPNO-MP2, DLPNO-MP2 Gradient
   Christoph Reimann      : Effective Core Potentials
   Marius Retegan         : Local ZFS, SOC
   Christoph Riplinger    : Optimizer, TS searches, QM/MM, DLPNO-CCSD(T), (RO)-DLPNO pert. Triples
   Michael Roemelt        : Original ROCIS implementation
   Masaaki Saitow         : Open-shell DLPNO-CCSD energy and density
   Barbara Sandhoefer     : DKH picture change effects
   Kantharuban Sivalingam : CASSCF convergence/infrastructure, NEVPT2 and variants, FIC-MRCI
   Bernardo de Souza      : ESD, SOC TD-DFT
   Georgi Stoychev        : AutoAux, RI-MP2 NMR, DLPNO-MP2 response, X2C
   Van Anh Tran           : RI-MP2 g-tensors
   Willem Van den Heuvel  : Paramagnetic NMR
   Zikuan Wang            : NOTCH, Electric field optimization 
   Frank Wennmohs         : Technical directorship and infrastructure
   Hang Xu                : AUTO-CI-Response properties 


 We gratefully acknowledge several colleagues who have allowed us to
 interface, adapt or use parts of their codes:
   Stefan Grimme, W. Hujo, H. Kruse, P. Pracht,  : VdW corrections, initial TS optimization,
                  C. Bannwarth, S. Ehlert,         DFT functionals, gCP, sTDA/sTD-DF
                  L. Wittmann, M. Mueller
   Ed Valeev, F. Pavosevic, A. Kumar             : LibInt (2-el integral package), F12 methods
   Garnet Chan, S. Sharma, J. Yang, R. Olivares  : DMRG
   Ulf Ekstrom                                   : XCFun DFT Library
   Mihaly Kallay                                 : mrcc  (arbitrary order and MRCC methods)
   Frank Weinhold                                : gennbo (NPA and NBO analysis)
   Simon Mueller                                 : openCOSMO-RS
   Christopher J. Cramer and Donald G. Truhlar   : smd solvation model
   Lars Goerigk                                  : TD-DFT with DH, B97 family of functionals
   V. Asgeirsson, H. Jonsson                     : NEB implementation
   FAccTs GmbH                                   : IRC, NEB, NEB-TS, DLPNO-Multilevel, CI-OPT
                                                   MM, QMMM, 2- and 3-layer-ONIOM, Crystal-QMMM,
                                                   LR-CPCM, SF, NACMEs, symmetry and pop. for TD-DFT,
                                                   nearIR, NL-DFT gradient (VV10), updates on ESD,
                                                   ML-optimized integration grids, MBIS, APM,
                                                   GOAT, DOCKER, SOLVATOR, interface openCOSMO-RS
   S Lehtola, MJT Oliveira, MAL Marques          : LibXC Library
   Liviu Ungur et al                             : ANISO software


 Your calculation uses the libint2 library for the computation of 2-el integrals
 For citations please refer to: http://libint.valeyev.net

 Your ORCA version has been built with support for libXC version: 6.2.2
 For citations please refer to: https://libxc.gitlab.io

 This ORCA versions uses:
   CBLAS   interface :  Fast vector & matrix operations
   LAPACKE interface :  Fast linear algebra routines
   SCALAPACK package :  Parallel linear algebra routines
   Shared memory     :  Shared parallel matrices
   BLAS/LAPACK       :  OpenBLAS 0.3.27  USE64BITINT DYNAMIC_ARCH NO_AFFINITY Zen SINGLE_THREADED
        Core in use  :  Zen
   Copyright (c) 2011-2014, The OpenBLAS Project


Your calculation utilizes the atom-pairwise dispersion correction
with the Becke-Johnson damping scheme (D3BJ)


Warning: RI is on but no J-basis has been assigned. Assigning Def2/J (nothing to worry about!)
================================================================================

----- Orbital basis set information -----
Your calculation utilizes the basis: def2-TZVPPD
   F. Weigend and R. Ahlrichs, Phys. Chem. Chem. Phys. 7, 3297 (2005).
   D. Rappoport and F. Furche, J. Chem. Phys. 133, 134105 (2010)
   D. Rappoport, J. Chem. Phys. 155, 124102 (2021).

----- AuxJ basis set information -----
Your calculation utilizes the auxiliary basis: def2/J
   F. Weigend, Phys. Chem. Chem. Phys. 8, 1057 (2006).

================================================================================
                                        WARNINGS
                       Please study these warnings very carefully!
================================================================================

Using LibXC functional ID 531 : wB97M-V exchange-correlation functional
[ 1]  N. Mardirossian and M. Head-Gordon.,  J. Chem. Phys. 144, 214110 (2016)
Using LibXC functional ID 531 : wB97M-V exchange-correlation functional
[ 1]  N. Mardirossian and M. Head-Gordon.,  J. Chem. Phys. 144, 214110 (2016)

WARNING: B97M-V or wB97M-V functional requested.
  ===> : libXC variant has now been activated.
         Any manually given DFX/HFX/RangeSep scaling parameters are IGNORED!

Your calculation utilizes LibXC
 by S Lehtola, C Steigemann, MJT Oliveira & MAL Marques
Please cite in your paper:
 S Lehtola, C Steigemann, MJT Oliveira & MAL Marques, SoftwareX, 7, (2018), 1.
   


WARNING: your system is open-shell and RHF/RKS was chosen
  ===> : WILL SWITCH to UHF/UKS

INFO   : Checking CIS options ...

WARNING: CIS/ROCIS methods need fully converged wavefunctions
  ===> : Setting SCFConvForced true
         You can overwrite this default with %scf ConvForced false 


================================================================================
                                       INPUT FILE
================================================================================
NAME = orca.inp
|  1> ! Engrad def2-TZVPPD wB97M-D3BJ 
|  2> %pal nprocs 8 end%pal nprocs 32 end 
|  3> %tddft Nroots 2 Iroot 2 
|  4> sf true 
|  5> end 
|  6> *xyz 0 3 
|  7> O   0.51987566 1.18624599 -0.01295612
|  8> C   0.47646483 -0.27553639 -0.00835827
|  9> C   -0.83069977 -0.97280844 0.02099375
| 10> H   1.01660062 -0.6044003 0.8352974
| 11> H   1.01372272 -0.6108691 -0.87707656
| 12> H   -1.43716386 -0.76895738 -0.85622837
| 13> H   -1.41689655 -1.02680527 0.9338526
| 14> *
| 15> 
| 16>                          ****END OF INPUT****
================================================================================

                     *******************************
                     * Energy+Gradient Calculation *
                     *******************************

---------------------------------
CARTESIAN COORDINATES (ANGSTROEM)
---------------------------------
  O      0.519876    1.186246   -0.012956
  C      0.476465   -0.275536   -0.008358
  C     -0.830700   -0.972808    0.020994
  H      1.016601   -0.604400    0.835297
  H      1.013723   -0.610869   -0.877077
  H     -1.437164   -0.768957   -0.856228
  H     -1.416897   -1.026805    0.933853

----------------------------
CARTESIAN COORDINATES (A.U.)
----------------------------
  NO LB      ZA    FRAG     MASS         X           Y           Z
   0 O     8.0000    0    15.999    0.982423    2.241680   -0.024484
   1 C     6.0000    0    12.011    0.900388   -0.520688   -0.015795
   2 C     6.0000    0    12.011   -1.569795   -1.838342    0.039672
   3 H     1.0000    0     1.008    1.921097   -1.142151    1.578483
   4 H     1.0000    0     1.008    1.915658   -1.154375   -1.657434
   5 H     1.0000    0     1.008   -2.715846   -1.453119   -1.618037
   6 H     1.0000    0     1.008   -2.677546   -1.940381    1.764726

--------------------------------
INTERNAL COORDINATES (ANGSTROEM)
--------------------------------
 O      0   0   0     0.000000000000     0.00000000     0.00000000
 C      1   0   0     1.462434055561     0.00000000     0.00000000
 C      2   1   0     1.481799292847   119.77504028     0.00000000
 H      2   1   3     1.054349577921   107.40244269   238.08879189
 H      2   1   3     1.075065362731   107.12183407   123.37083816
 H      3   2   1     1.085758994869   112.85392464    62.72841543
 H      3   2   1     1.086210662144   121.07157502   284.64351812

---------------------------
INTERNAL COORDINATES (A.U.)
---------------------------
 O      0   0   0     0.000000000000     0.00000000     0.00000000
 C      1   0   0     2.763599853930     0.00000000     0.00000000
 C      2   1   0     2.800194848919   119.77504028     0.00000000
 H      2   1   3     1.992431951686   107.40244269   238.08879189
 H      2   1   3     2.031579111626   107.12183407   123.37083816
 H      3   2   1     2.051787147745   112.85392464    62.72841543
 H      3   2   1     2.052640675198   121.07157502   284.64351812

---------------------
BASIS SET INFORMATION
---------------------
There are 3 groups of distinct atoms

 Group   1 Type O   : 12s7p3d1f contracted to 6s4p3d1f pattern {621111/4111/111/1}
 Group   2 Type C   : 12s6p3d1f contracted to 6s3p3d1f pattern {621111/411/111/1}
 Group   3 Type H   : 5s3p1d contracted to 3s3p1d pattern {311/111/1}

Atom   0O    basis set group =>   1
Atom   1C    basis set group =>   2
Atom   2C    basis set group =>   2
Atom   3H    basis set group =>   3
Atom   4H    basis set group =>   3
Atom   5H    basis set group =>   3
Atom   6H    basis set group =>   3
---------------------------------
AUXILIARY/J BASIS SET INFORMATION
---------------------------------
There are 3 groups of distinct atoms

 Group   1 Type O   : 12s5p4d2f1g contracted to 6s4p3d1f1g pattern {711111/2111/211/2/1}
 Group   2 Type C   : 12s5p4d2f1g contracted to 6s4p3d1f1g pattern {711111/2111/211/2/1}
 Group   3 Type H   : 5s2p1d contracted to 3s1p1d pattern {311/2/1}

Atom   0O    basis set group =>   1
Atom   1C    basis set group =>   2
Atom   2C    basis set group =>   2
Atom   3H    basis set group =>   3
Atom   4H    basis set group =>   3
Atom   5H    basis set group =>   3
Atom   6H    basis set group =>   3
[1741043473.554667] [ohm:317562:0]        ib_iface.c:1059 UCX  ERROR ibv_create_cq(cqe=256) failed: Connection timed out
[1741043473.554625] [ohm:317571:0]        ib_iface.c:1059 UCX  ERROR ibv_create_cq(cqe=256) failed: Connection timed out
[1741043473.554650] [ohm:317570:0]        ib_iface.c:1059 UCX  ERROR ibv_create_cq(cqe=256) failed: Connection timed out
[1741043473.554689] [ohm:317565:0]        ib_iface.c:1059 UCX  ERROR ibv_create_cq(cqe=256) failed: Connection timed out
[1741043473.557496] [ohm:317560:0]        ib_iface.c:1059 UCX  ERROR ibv_create_cq(cqe=256) failed: Connection timed out
[1741043473.560324] [ohm:317558:0]        ib_iface.c:1059 UCX  ERROR ibv_create_cq(cqe=256) failed: Connection timed out
[1741043473.573100] [ohm:317576:0]        ib_iface.c:1059 UCX  ERROR ibv_create_cq(cqe=256) failed: Connection timed out
[1741043473.591106] [ohm:317577:0]        ib_iface.c:1059 UCX  ERROR ibv_create_cq(cqe=256) failed: Connection timed out
[1741043473.591431] [ohm:317567:0]        ib_iface.c:1059 UCX  ERROR ibv_create_cq(cqe=256) failed: Connection timed out
[1741043473.614803] [ohm:317561:0]        ib_iface.c:1059 UCX  ERROR ibv_create_cq(cqe=256) failed: Connection timed out
[1741043473.615080] [ohm:317568:0]        ib_iface.c:1059 UCX  ERROR ibv_create_cq(cqe=256) failed: Connection timed out
[1741043473.615136] [ohm:317564:0]        ib_iface.c:1059 UCX  ERROR ibv_create_cq(cqe=256) failed: Connection timed out
[1741043473.615561] [ohm:317569:0]        ib_iface.c:1059 UCX  ERROR ibv_create_cq(cqe=256) failed: Connection timed out
[1741043473.615588] [ohm:317566:0]        ib_iface.c:1059 UCX  ERROR ibv_create_cq(cqe=256) failed: Connection timed out
[1741043473.616164] [ohm:317563:0]        ib_iface.c:1059 UCX  ERROR ibv_create_cq(cqe=256) failed: Connection timed out
[1741043473.616549] [ohm:317559:0]        ib_iface.c:1059 UCX  ERROR ibv_create_cq(cqe=256) failed: Connection timed out
[1741043473.617023] [ohm:317590:0]        ib_iface.c:1059 UCX  ERROR ibv_create_cq(cqe=256) failed: Connection timed out
[1741043473.617716] [ohm:317584:0]        ib_iface.c:1059 UCX  ERROR ibv_create_cq(cqe=256) failed: Connection timed out
[1741043473.625938] [ohm:317572:0]        ib_iface.c:1059 UCX  ERROR ibv_create_cq(cqe=256) failed: Connection timed out
[1741043473.637547] [ohm:317573:0]        ib_iface.c:1059 UCX  ERROR ibv_create_cq(cqe=256) failed: Connection timed out
[1741043473.639366] [ohm:317598:0]        ib_iface.c:1059 UCX  ERROR ibv_create_cq(cqe=256) failed: Connection timed out
[1741043473.642792] [ohm:317591:0]        ib_iface.c:1059 UCX  ERROR ibv_create_cq(cqe=256) failed: Connection timed out
[1741043473.644216] [ohm:317593:0]        ib_iface.c:1059 UCX  ERROR ibv_create_cq(cqe=256) failed: Connection timed out
[1741043473.644220] [ohm:317594:0]        ib_iface.c:1059 UCX  ERROR ibv_create_cq(cqe=256) failed: Connection timed out
[1741043473.644836] [ohm:317601:0]        ib_iface.c:1059 UCX  ERROR ibv_create_cq(cqe=256) failed: Connection timed out
[1741043473.645628] [ohm:317607:0]        ib_iface.c:1059 UCX  ERROR ibv_create_cq(cqe=256) failed: Connection timed out
[1741043473.646150] [ohm:317597:0]        ib_iface.c:1059 UCX  ERROR ibv_create_cq(cqe=256) failed: Connection timed out
[1741043473.648730] [ohm:317592:0]        ib_iface.c:1059 UCX  ERROR ibv_create_cq(cqe=256) failed: Connection timed out
[1741043473.648715] [ohm:317595:0]        ib_iface.c:1059 UCX  ERROR ibv_create_cq(cqe=256) failed: Connection timed out
[1741043473.648786] [ohm:317596:0]        ib_iface.c:1059 UCX  ERROR ibv_create_cq(cqe=256) failed: Connection timed out
[1741043473.649535] [ohm:317611:0]        ib_iface.c:1059 UCX  ERROR ibv_create_cq(cqe=256) failed: Connection timed out
[1741043473.650048] [ohm:317586:0]        ib_iface.c:1059 UCX  ERROR ibv_create_cq(cqe=256) failed: Connection timed out


           ************************************************************
           *        Program running with 32 parallel MPI-processes    *
           *              working on a common directory               *
           ************************************************************
------------------------------------------------------------------------------
                             ORCA STARTUP CALCULATIONS
                           -- RI-GTO INTEGRALS CHOSEN --
------------------------------------------------------------------------------
------------------------------------------------------------------------------
                   ___                                                        
                  /   \      - P O W E R E D   B Y -                         
                 /     \                                                     
                 |  |  |   _    _      __       _____    __    __             
                 |  |  |  | |  | |    /  \     |  _  \  |  |  /  |          
                  \  \/   | |  | |   /    \    | | | |  |  | /  /          
                 / \  \   | |__| |  /  /\  \   | |_| |  |  |/  /          
                |  |  |   |  __  | /  /__\  \  |    /   |      \           
                |  |  |   | |  | | |   __   |  |    \   |  |\   \          
                \     /   | |  | | |  |  |  |  | |\  \  |  | \   \       
                 \___/    |_|  |_| |__|  |__|  |_| \__\ |__|  \__/        
                                                                              
                      - O R C A' S   B I G   F R I E N D -                    
                                      &                                       
                       - I N T E G R A L  F E E D E R -                       
                                                                              
 v1 FN, 2020, v2 2021, v3 2022-2024                                           
------------------------------------------------------------------------------


----------------------
SHARK INTEGRAL PACKAGE
----------------------

Number of atoms                             ...      7
Number of basis functions                   ...    182
Number of shells                            ...     68
Maximum angular momentum                    ...      3
Integral batch strategy                     ... SHARK/LIBINT Hybrid
RI-J (if used) integral strategy            ... SPLIT-RIJ (Revised 2003 algorithm where possible)
Printlevel                                  ...      1
Contraction scheme used                     ... SEGMENTED contraction
Prescreening option                         ... SCHWARTZ
   Thresh                                   ... 2.500e-11
   Tcut                                     ... 2.500e-12
   Tpresel                                  ... 2.500e-12 
Coulomb Range Separation                    ... NOT USED
Exchange Range Separation                   ... Long Range
   Mu parameter                             ... 3.000e-01
   Scaling (regular/separated)              ... 1.500e-01 8.500e-01
Multipole approximations                    ... NOT USED
Finite Nucleus Model                        ... NOT USED
CABS basis                                  ... NOT available
Auxiliary Coulomb fitting basis             ... AVAILABLE
   # of basis functions in Aux-J            ...    191
   # of shells in Aux-J                     ...     65
   Maximum angular momentum in Aux-J        ...      4
Auxiliary J/K fitting basis                 ... NOT available
Auxiliary Correlation fitting basis         ... NOT available
Auxiliary 'external' fitting basis          ... NOT available

Checking pre-screening integrals            ... done (  0.0 sec) Dimension = 68
Check shell pair data                       ... done (  0.0 sec)
Shell pair information
Shell pair cut-off parameter TPreSel        ...   2.5e-12
Total number of shell pairs                 ...      2346
Shell pairs after pre-screening             ...      2326
Total number of primitive shell pairs       ...      5434
Primitive shell pairs kept                  ...      4800
          la=0 lb=0:    454 shell pairs
          la=1 lb=0:    655 shell pairs
          la=1 lb=1:    253 shell pairs
          la=2 lb=0:    386 shell pairs
          la=2 lb=1:    286 shell pairs
          la=2 lb=2:     91 shell pairs
          la=3 lb=0:     90 shell pairs
          la=3 lb=1:     66 shell pairs
          la=3 lb=2:     39 shell pairs
          la=3 lb=3:      6 shell pairs

Calculating one electron integrals          ... done (  0.0 sec)
Calculating RI/J V-Matrix + Cholesky decomp.... done (  0.0 sec)
Calculating Nuclear repulsion               ... done (  0.0 sec) ENN=     66.321304870065 Eh

Diagonalization of the overlap matrix:
Smallest eigenvalue                        ... 1.776e-05
Time for diagonalization                   ...    0.003 sec
Threshold for overlap eigenvalues          ... 1.000e-07
Number of eigenvalues below threshold      ... 0
Time for construction of square roots      ...    0.002 sec
Total time needed                          ...    0.006 sec

-------------------
DFT GRID GENERATION
-------------------

General Integration Accuracy     IntAcc      ... 4.388
Radial Grid Type                 RadialGrid  ... OptM3 with GC (2021)
Angular Grid (max. ang.)         AngularGrid ... 4 (Lebedev-302)
Angular grid pruning method      GridPruning ... 4 (adaptive)
Weight generation scheme         WeightScheme... mBecke (2022)
Basis function cutoff            BFCut       ... 1.0000e-11
Integration weight cutoff        WCut        ... 1.0000e-14
Partially contracted basis set               ... off
Rotationally invariant grid construction     ... off
Angular grids for H and He will be reduced by one unit
Diffuse basis detected: some atoms will have their outermost
                        angular grid increased by 1.

Total number of grid points                  ...    33109
Total number of batches                      ...      519
Average number of points per batch           ...       63
Average number of grid points per atom       ...     4730

--------------------
COSX GRID GENERATION
--------------------

GRIDX 1
-------
General Integration Accuracy     IntAcc      ... 3.816
Radial Grid Type                 RadialGrid  ... OptM3 with GC (2021)
Angular Grid (max. ang.)         AngularGrid ... 1 (Lebedev-50)
Angular grid pruning method      GridPruning ... 4 (adaptive)
Weight generation scheme         WeightScheme... mBecke (2022)
Basis function cutoff            BFCut       ... 1.0000e-11
Integration weight cutoff        WCut        ... 1.0000e-14
Partially contracted basis set               ... on
Rotationally invariant grid construction     ... off
Angular grids for H and He will be reduced by one unit
Diffuse basis detected: some atoms will have their outermost
                        angular grid increased by 1.

Total number of grid points                  ...     4167
Total number of batches                      ...       37
Average number of points per batch           ...      112
Average number of grid points per atom       ...      595
UseSFitting                                  ... on

GRIDX 2
-------
General Integration Accuracy     IntAcc      ... 4.020
Radial Grid Type                 RadialGrid  ... OptM3 with GC (2021)
Angular Grid (max. ang.)         AngularGrid ... 2 (Lebedev-110)
Angular grid pruning method      GridPruning ... 4 (adaptive)
Weight generation scheme         WeightScheme... mBecke (2022)
Basis function cutoff            BFCut       ... 1.0000e-11
Integration weight cutoff        WCut        ... 1.0000e-14
Partially contracted basis set               ... on
Rotationally invariant grid construction     ... off
Angular grids for H and He will be reduced by one unit
Diffuse basis detected: some atoms will have their outermost
                        angular grid increased by 1.

Total number of grid points                  ...    10269
Total number of batches                      ...       84
Average number of points per batch           ...      122
Average number of grid points per atom       ...     1467
UseSFitting                                  ... on

GRIDX 3
-------
General Integration Accuracy     IntAcc      ... 4.338
Radial Grid Type                 RadialGrid  ... OptM3 with GC (2021)
Angular Grid (max. ang.)         AngularGrid ... 3 (Lebedev-194)
Angular grid pruning method      GridPruning ... 4 (adaptive)
Weight generation scheme         WeightScheme... mBecke (2022)
Basis function cutoff            BFCut       ... 1.0000e-11
Integration weight cutoff        WCut        ... 1.0000e-14
Partially contracted basis set               ... on
Rotationally invariant grid construction     ... off
Angular grids for H and He will be reduced by one unit
Diffuse basis detected: some atoms will have their outermost
                        angular grid increased by 1.

Total number of grid points                  ...    23092
Total number of batches                      ...      185
Average number of points per batch           ...      124
Average number of grid points per atom       ...     3299
UseSFitting                                  ... on
Initializing property integral containers    ... done (  0.0 sec)

SHARK setup successfully completed in   0.3 seconds

Maximum memory used throughout the entire STARTUP-calculation: 13.8 MB
[1741043474.772097] [ohm:317744:0]        ib_iface.c:1059 UCX  ERROR ibv_create_cq(cqe=256) failed: Connection timed out
[1741043474.772097] [ohm:317749:0]        ib_iface.c:1059 UCX  ERROR ibv_create_cq(cqe=256) failed: Connection timed out
[1741043474.772175] [ohm:317733:0]        ib_iface.c:1059 UCX  ERROR ibv_create_cq(cqe=256) failed: Connection timed out
[1741043474.772378] [ohm:317743:0]        ib_iface.c:1059 UCX  ERROR ibv_create_cq(cqe=256) failed: Connection timed out
[1741043474.780310] [ohm:317747:0]        ib_iface.c:1059 UCX  ERROR ibv_create_cq(cqe=256) failed: Connection timed out
[1741043474.808569] [ohm:317737:0]        ib_iface.c:1059 UCX  ERROR ibv_create_cq(cqe=256) failed: Connection timed out
[1741043474.808574] [ohm:317750:0]        ib_iface.c:1059 UCX  ERROR ibv_create_cq(cqe=256) failed: Connection timed out
[1741043474.808797] [ohm:317732:0]        ib_iface.c:1059 UCX  ERROR ibv_create_cq(cqe=256) failed: Connection timed out
[1741043474.809511] [ohm:317726:0]        ib_iface.c:1059 UCX  ERROR ibv_create_cq(cqe=256) failed: Connection timed out
[1741043474.812260] [ohm:317728:0]        ib_iface.c:1059 UCX  ERROR ibv_create_cq(cqe=256) failed: Connection timed out
[1741043474.821361] [ohm:317767:0]        ib_iface.c:1059 UCX  ERROR ibv_create_cq(cqe=256) failed: Connection timed out
[1741043474.826639] [ohm:317741:0]        ib_iface.c:1059 UCX  ERROR ibv_create_cq(cqe=256) failed: Connection timed out
[1741043474.829723] [ohm:317736:0]        ib_iface.c:1059 UCX  ERROR ibv_create_cq(cqe=256) failed: Connection timed out
[1741043474.831286] [ohm:317740:0]        ib_iface.c:1059 UCX  ERROR ibv_create_cq(cqe=256) failed: Connection timed out
[1741043474.831715] [ohm:317730:0]        ib_iface.c:1059 UCX  ERROR ibv_create_cq(cqe=256) failed: Connection timed out
[1741043474.833885] [ohm:317759:0]        ib_iface.c:1059 UCX  ERROR ibv_create_cq(cqe=256) failed: Connection timed out
[1741043474.836691] [ohm:317758:0]        ib_iface.c:1059 UCX  ERROR ibv_create_cq(cqe=256) failed: Connection timed out
[1741043474.836830] [ohm:317770:0]        ib_iface.c:1059 UCX  ERROR ibv_create_cq(cqe=256) failed: Connection timed out
[1741043474.836969] [ohm:317739:0]        ib_iface.c:1059 UCX  ERROR ibv_create_cq(cqe=256) failed: Connection timed out
[1741043474.836990] [ohm:317746:0]        ib_iface.c:1059 UCX  ERROR ibv_create_cq(cqe=256) failed: Connection timed out
[1741043474.837408] [ohm:317745:0]        ib_iface.c:1059 UCX  ERROR ibv_create_cq(cqe=256) failed: Connection timed out
[1741043474.838651] [ohm:317729:0]        ib_iface.c:1059 UCX  ERROR ibv_create_cq(cqe=256) failed: Connection timed out
[1741043474.838918] [ohm:317734:0]        ib_iface.c:1059 UCX  ERROR ibv_create_cq(cqe=256) failed: Connection timed out
[1741043474.839199] [ohm:317751:0]        ib_iface.c:1059 UCX  ERROR ibv_create_cq(cqe=256) failed: Connection timed out
[1741043474.839360] [ohm:317742:0]        ib_iface.c:1059 UCX  ERROR ibv_create_cq(cqe=256) failed: Connection timed out
[1741043474.839406] [ohm:317771:0]        ib_iface.c:1059 UCX  ERROR ibv_create_cq(cqe=256) failed: Connection timed out
[1741043474.839489] [ohm:317725:0]        ib_iface.c:1059 UCX  ERROR ibv_create_cq(cqe=256) failed: Connection timed out
[1741043474.839544] [ohm:317727:0]        ib_iface.c:1059 UCX  ERROR ibv_create_cq(cqe=256) failed: Connection timed out
[1741043474.839569] [ohm:317735:0]        ib_iface.c:1059 UCX  ERROR ibv_create_cq(cqe=256) failed: Connection timed out
[1741043474.839504] [ohm:317738:0]        ib_iface.c:1059 UCX  ERROR ibv_create_cq(cqe=256) failed: Connection timed out
[1741043474.839986] [ohm:317748:0]        ib_iface.c:1059 UCX  ERROR ibv_create_cq(cqe=256) failed: Connection timed out
[1741043474.839949] [ohm:317731:0]        ib_iface.c:1059 UCX  ERROR ibv_create_cq(cqe=256) failed: Connection timed out


           ************************************************************
           *        Program running with 32 parallel MPI-processes    *
           *              working on a common directory               *
           ************************************************************
-------------------------------------------------------------------------------
                                 ORCA GUESS
                   Start orbitals & Density for SCF / CASSCF
-------------------------------------------------------------------------------

------------
SCF SETTINGS
------------
Hamiltonian:
 Density Functional     Method          .... DFT(GTOs)
  Functional kind                       .... Exchange-Correlation
  Functional name                       .... wB97M-V exchange-correlation functional
  Functional family                     .... Hybrid MGGA
  Functional refs                              
    [ 0] N. Mardirossian and M. Head-Gordon.,  J. Chem. Phys. 144, 214110 (2016), doi: 10.1063/1.4952647
  Fraction of HF Exchange (short range) .... 0.1500
  Fraction of HF Exchange (long range)  .... 1.0000
  Range separation parameter mu         .... 0.3000
  Functional external parameters        .... 17
    Parameter  0 _cx00      =  8.500000e-01 : u^00 coefficient for exchange
    Parameter  1 _cx01      =  1.007000e+00 : u^01 coefficient for exchange
    Parameter  2 _cx10      =  2.590000e-01 : u^10 coefficient for exchange
    Parameter  3 _css00     =  4.430000e-01 : u^00 coefficient for same-spin correlation
    Parameter  4 _css04     = -1.437000e+00 : u^04 coefficient for same-spin correlation
    Parameter  5 _css10     = -4.535000e+00 : u^10 coefficient for same-spin correlation
    Parameter  6 _css20     = -3.390000e+00 : u^20 coefficient for same-spin correlation
    Parameter  7 _css43     =  4.278000e+00 : u^43 coefficient for same-spin correlation
    Parameter  8 _cos00     =  1.000000e+00 : u^00 coefficient for opposite-spin correlation
    Parameter  9 _cos10     =  1.358000e+00 : u^10 coefficient for opposite-spin correlation
    Parameter 10 _cos20     =  2.924000e+00 : u^20 coefficient for opposite-spin correlation
    Parameter 11 _cos21     = -8.812000e+00 : u^21 coefficient for opposite-spin correlation
    Parameter 12 _cos60     = -1.390000e+00 : u^60 coefficient for opposite-spin correlation
    Parameter 13 _cos61     =  9.142000e+00 : u^61 coefficient for opposite-spin correlation
    Parameter 14 _alpha     =  1.000000e+00 : fraction of HF exchange
    Parameter 15 _beta      = -8.500000e-01 : fraction of short-range exchange
    Parameter 16 _omega     =  3.000000e-01 : range-separation constant
 Long-range corrected/Screened/Range-Separated Hybrid DFT is turned on
   Amount of maximum screened exact exchange              ....  0.850000
   Range separation parameter mu (erf(mu*r12)/r12)        ....  0.300000
 RI-approximation to the Coulomb term is turned on
   Number of AuxJ basis functions       .... 191
   RIJ-COSX (HFX calculated with COS-X)).... on


General Settings:
 Integral files         IntName         .... orca
 Hartree-Fock type      HFTyp           .... UHF
 Total Charge           Charge          ....    0
 Multiplicity           Mult            ....    3
 Number of Electrons    NEL             ....   24
 Basis Dimension        Dim             ....  182
 Nuclear Repulsion      ENuc            ....     66.3213048701 Eh

Convergence Acceleration:
 AO-DIIS                CNVDIIS         .... on
   Start iteration      DIISMaxIt       ....    12
   Startup error        DIISStart       ....  0.200000
   # of expansion vecs  DIISMaxEq       ....     5
   Bias factor          DIISBfac        ....   1.050
   Max. coefficient     DIISMaxC        ....  10.000
 MO-DIIS                CNVKDIIS        .... off
 Trust-Rad. Augm. Hess. CNVTRAH         .... auto
   Auto Start mean grad. ratio tolernc. ....  1.125000
   Auto Start start iteration           ....    50
   Auto Start num. interpolation iter.  ....    10
   Max. Number of Micro iterations      ....    24
   Max. Number of Macro iterations      .... Maxiter - #DIIS iter
   Number of Davidson start vectors     ....     2
   Converg. threshold    (grad. norm)   ....   1.000e-05
   Grad. Scal. Fac. for Micro threshold ....   0.100
   Minimum threshold for Micro iter.    ....   1.000e-02
   NR start threshold (gradient norm)   ....   1.000e-04
   Initial trust radius                 ....   0.400
   Minimum AH scaling param. (alpha)    ....   1.000
   Maximum AH scaling param. (alpha)    .... 1000.000
   Quad. conv. algorithm                .... NR
   White noise on init. David. guess    .... on
   Maximum white noise                  ....   0.010
   Pseudo random numbers                .... off
   Inactive MOs                         .... canonical
   Orbital update algorithm             .... Taylor
   Preconditioner                       .... Diag
   Full preconditioner red. dimension   ....   250
 SOSCF                  CNVSOSCF        .... on
   Start iteration      SOSCFMaxIt      ....   150
   Startup grad/error   SOSCFStart      ....  0.003300
   Hessian update       SOSCFHessUp     .... L-BFGS
 Level Shifting         CNVShift        .... on
   Level shift para.    LevelShift      ....    0.2500
   Turn off err/grad.   ShiftErr        ....    0.0010
 Zerner damping         CNVZerner       .... off
 Static damping         CNVDamp         .... on
   Fraction old density DampFac         ....    0.7000
   Max. Damping (<1)    DampMax         ....    0.9800
   Min. Damping (>=0)   DampMin         ....    0.0000
   Turn off err/grad.   DampErr         ....    0.1000

SCF Procedure:
 Maximum # iterations   MaxIter         ....   125
 SCF integral mode      SCFMode         .... Direct
   Integral package                     .... SHARK and LIBINT hybrid scheme
 Reset frequency        DirectResetFreq ....    20
 Integral Threshold     Thresh          ....  2.500e-11 Eh
 Primitive CutOff       TCut            ....  2.500e-12 Eh

Convergence Tolerance:
 Convergence Check Mode ConvCheckMode   .... Total+1el-Energy
 Convergence forced     ConvForced      .... 1
 Energy Change          TolE            ....  1.000e-08 Eh
 1-El. energy change                    ....  1.000e-05 Eh
 Orbital Gradient       TolG            ....  1.000e-05
 Orbital Rotation angle TolX            ....  1.000e-05
 DIIS Error             TolErr          ....  5.000e-07

------------------------------
INITIAL GUESS: MODEL POTENTIAL
------------------------------
Loading Hartree-Fock densities                     ... done
Calculating cut-offs                               ... done
Initializing the effective Hamiltonian             ... done
Setting up the integral package (SHARK)            ... done
Starting the Coulomb interaction                   ... done (   0.0 sec)
Making the grid                                    ... done (   0.0 sec)
Mapping shells                                     ... done
Starting the XC term evaluation                    ... done (   0.0 sec)
  promolecular density results
     # of electrons  =     23.998718021
     EX              =    -19.444789941
     EC              =     -0.762300147
     EX+EC           =    -20.207090088
Transforming the Hamiltonian                       ... done (   0.0 sec)
Diagonalizing the Hamiltonian                      ... done (   0.0 sec)
Back transforming the eigenvectors                 ... done (   0.0 sec)
Now organizing SCF variables                       ... done
                      ------------------
                      INITIAL GUESS DONE (   0.1 sec)
                      ------------------
             **** ENERGY FILE WAS UPDATED (orca.en.tmp) ****
Finished Guess after   0.7 sec
Maximum memory used throughout the entire GUESS-calculation: 9.6 MB
[1741043475.741257] [ohm:317894:0]        ib_iface.c:1059 UCX  ERROR ibv_create_cq(cqe=256) failed: Connection timed out
[1741043475.741235] [ohm:317898:0]        ib_iface.c:1059 UCX  ERROR ibv_create_cq(cqe=256) failed: Connection timed out
[1741043475.741233] [ohm:317901:0]        ib_iface.c:1059 UCX  ERROR ibv_create_cq(cqe=256) failed: Connection timed out
[1741043475.741812] [ohm:317904:0]        ib_iface.c:1059 UCX  ERROR ibv_create_cq(cqe=256) failed: Connection timed out
[1741043475.742231] [ohm:317902:0]        ib_iface.c:1059 UCX  ERROR ibv_create_cq(cqe=256) failed: Connection timed out
[1741043475.743803] [ohm:317896:0]        ib_iface.c:1059 UCX  ERROR ibv_create_cq(cqe=256) failed: Connection timed out
[1741043475.750397] [ohm:317900:0]        ib_iface.c:1059 UCX  ERROR ibv_create_cq(cqe=256) failed: Connection timed out
[1741043475.766587] [ohm:317893:0]        ib_iface.c:1059 UCX  ERROR ibv_create_cq(cqe=256) failed: Connection timed out
[1741043475.767251] [ohm:317897:0]        ib_iface.c:1059 UCX  ERROR ibv_create_cq(cqe=256) failed: Connection timed out
[1741043475.776154] [ohm:317908:0]        ib_iface.c:1059 UCX  ERROR ibv_create_cq(cqe=256) failed: Connection timed out
[1741043475.776149] [ohm:317913:0]        ib_iface.c:1059 UCX  ERROR ibv_create_cq(cqe=256) failed: Connection timed out
[1741043475.776150] [ohm:317910:0]        ib_iface.c:1059 UCX  ERROR ibv_create_cq(cqe=256) failed: Connection timed out
[1741043475.780370] [ohm:317905:0]        ib_iface.c:1059 UCX  ERROR ibv_create_cq(cqe=256) failed: Connection timed out
[1741043475.781328] [ohm:317895:0]        ib_iface.c:1059 UCX  ERROR ibv_create_cq(cqe=256) failed: Connection timed out
[1741043475.781859] [ohm:317903:0]        ib_iface.c:1059 UCX  ERROR ibv_create_cq(cqe=256) failed: Connection timed out
[1741043475.782679] [ohm:317925:0]        ib_iface.c:1059 UCX  ERROR ibv_create_cq(cqe=256) failed: Connection timed out
[1741043475.782672] [ohm:317940:0]        ib_iface.c:1059 UCX  ERROR ibv_create_cq(cqe=256) failed: Connection timed out
[1741043475.783450] [ohm:317907:0]        ib_iface.c:1059 UCX  ERROR ibv_create_cq(cqe=256) failed: Connection timed out
[1741043475.784443] [ohm:317918:0]        ib_iface.c:1059 UCX  ERROR ibv_create_cq(cqe=256) failed: Connection timed out
[1741043475.787630] [ohm:317906:0]        ib_iface.c:1059 UCX  ERROR ibv_create_cq(cqe=256) failed: Connection timed out
[1741043475.787810] [ohm:317899:0]        ib_iface.c:1059 UCX  ERROR ibv_create_cq(cqe=256) failed: Connection timed out
[1741043475.788214] [ohm:317911:0]        ib_iface.c:1059 UCX  ERROR ibv_create_cq(cqe=256) failed: Connection timed out
[1741043475.791233] [ohm:317932:0]        ib_iface.c:1059 UCX  ERROR ibv_create_cq(cqe=256) failed: Connection timed out
[1741043475.792259] [ohm:317909:0]        ib_iface.c:1059 UCX  ERROR ibv_create_cq(cqe=256) failed: Connection timed out
[1741043475.792375] [ohm:317929:0]        ib_iface.c:1059 UCX  ERROR ibv_create_cq(cqe=256) failed: Connection timed out
[1741043475.792773] [ohm:317948:0]        ib_iface.c:1059 UCX  ERROR ibv_create_cq(cqe=256) failed: Connection timed out
[1741043475.794734] [ohm:317916:0]        ib_iface.c:1059 UCX  ERROR ibv_create_cq(cqe=256) failed: Connection timed out
[1741043475.794723] [ohm:317934:0]        ib_iface.c:1059 UCX  ERROR ibv_create_cq(cqe=256) failed: Connection timed out
[1741043475.795035] [ohm:317931:0]        ib_iface.c:1059 UCX  ERROR ibv_create_cq(cqe=256) failed: Connection timed out
[1741043475.795119] [ohm:317937:0]        ib_iface.c:1059 UCX  ERROR ibv_create_cq(cqe=256) failed: Connection timed out
[1741043475.795406] [ohm:317945:0]        ib_iface.c:1059 UCX  ERROR ibv_create_cq(cqe=256) failed: Connection timed out
[1741043475.797490] [ohm:317922:0]        ib_iface.c:1059 UCX  ERROR ibv_create_cq(cqe=256) failed: Connection timed out


           ************************************************************
           *        Program running with 32 parallel MPI-processes    *
           *              working on a common directory               *
           ************************************************************

-------------------------------------------------------------------------------------------
                                      ORCA LEAN-SCF
                              memory conserving SCF solver
-------------------------------------------------------------------------------------------

----------------------------------------D-I-I-S--------------------------------------------
Iteration    Energy (Eh)           Delta-E    RMSDP     MaxDP     DIISErr   Damp  Time(sec)
-------------------------------------------------------------------------------------------
               ***  Starting incremental Fock matrix formation  ***
    1    -153.7124446964325557     0.00e+00  8.37e-04  2.25e-02  6.76e-02  0.700   0.3
    2    -153.7337381355903858    -2.13e-02  7.42e-04  1.98e-02  4.40e-02  0.700   0.3
                               ***Turning on AO-DIIS***
    3    -153.7463486555561758    -1.26e-02  6.03e-04  1.68e-02  2.70e-02  0.700   0.2
    4    -153.7544348614472938    -8.09e-03  1.50e-03  4.04e-02  2.22e-02  0.000   0.2
    5    -153.7739228601902255    -1.95e-02  1.49e-04  5.30e-03  8.38e-03  0.000   0.2
    6    -153.7745030464403726    -5.80e-04  9.58e-05  3.18e-03  5.17e-03  0.000   0.2
                              *** Initializing SOSCF ***
---------------------------------------S-O-S-C-F--------------------------------------
Iteration    Energy (Eh)           Delta-E    RMSDP     MaxDP     MaxGrad    Time(sec)
--------------------------------------------------------------------------------------
    7    -153.7747859639677017    -2.83e-04  5.05e-05  1.52e-03  3.28e-03     0.3
               *** Restarting incremental Fock matrix formation ***
    8    -153.7748808649733974    -9.49e-05  3.28e-05  1.08e-03  1.95e-03     0.3
    9    -153.7749059423500171    -2.51e-05  4.08e-05  9.08e-04  1.23e-03     0.2
   10    -153.7749167212452335    -1.08e-05  1.43e-05  4.30e-04  5.10e-04     0.2
   11    -153.7749185087172350    -1.79e-06  3.08e-06  8.08e-05  5.95e-05     0.2
   12    -153.7749185895658002    -8.08e-08  1.92e-06  5.78e-05  3.80e-05     0.2
   13    -153.7749186177916272    -2.82e-08  6.97e-07  1.93e-05  1.12e-05     0.2
   14    -153.7749186199151268    -2.12e-09  4.79e-07  1.14e-05  8.07e-06     0.2
                 **** Energy Check signals convergence ****

               *****************************************************
               *                     SUCCESS                       *
               *           SCF CONVERGED AFTER  14 CYCLES          *
               *****************************************************

Recomputing exchange energy using gridx3       ... done (    0.252 sec)
Old exchange energy                            :     -6.197341896 Eh
New exchange energy                            :     -6.197348590 Eh
Exchange energy change after final integration :     -0.000006694 Eh
Total energy after final integration           :   -153.774925314 Eh
             **** ENERGY FILE WAS UPDATED (orca.en.tmp) ****

----------------
TOTAL SCF ENERGY
----------------

Total Energy       :       -153.77492531420913 Eh           -4184.42845 eV

Components:
Nuclear Repulsion  :         66.32130487006511 Eh            1804.69445 eV
Electronic Energy  :       -220.09622348998025 Eh           -5989.12272 eV
One Electron Energy:       -339.20896312858673 Eh           -9230.34515 eV
Two Electron Energy:        119.11273963860648 Eh            3241.22243 eV

Virial components:
Potential Energy   :       -307.04230120661498 Eh           -8355.04578 eV
Kinetic Energy     :        153.26737589240588 Eh            4170.61733 eV
Virial Ratio       :          2.00331152940310

DFT components:
N(Alpha)           :       12.999987375330 electrons
N(Beta)            :       10.999979292689 electrons
N(Total)           :       23.999966668019 electrons
E(XC)              :      -14.686740625446 Eh       

---------------
SCF CONVERGENCE
---------------

  Last Energy change         ...    2.1235e-09  Tolerance :   1.0000e-08
  Last MAX-Density change    ...    1.1384e-05  Tolerance :   1.0000e-07
  Last RMS-Density change    ...    4.7947e-07  Tolerance :   5.0000e-09
  Last DIIS Error            ...    3.2780e-03  Tolerance :   5.0000e-07
  Last Orbital Gradient      ...    8.0690e-06  Tolerance :   1.0000e-05
  Last Orbital Rotation      ...    3.4584e-05  Tolerance :   1.0000e-05


----------------------
UHF SPIN CONTAMINATION
----------------------

Warning: in a DFT calculation there is little theoretical justification to 
         calculate <S**2> as in Hartree-Fock theory. We will do it anyways
         but you should keep in mind that the values have only limited relevance

Expectation value of <S**2>     :     2.008231
Ideal value S*(S+1) for S=1.0   :     2.000000
Deviation                       :     0.008231

----------------
ORBITAL ENERGIES
----------------
                 SPIN UP ORBITALS
  NO   OCC          E(Eh)            E(eV) 
   0   1.0000     -19.398565      -527.8618 
   1   1.0000     -10.406494      -283.1751 
   2   1.0000     -10.374363      -282.3008 
   3   1.0000      -1.142352       -31.0850 
   4   1.0000      -0.890444       -24.2302 
   5   1.0000      -0.739650       -20.1269 
   6   1.0000      -0.618605       -16.8331 
   7   1.0000      -0.561506       -15.2794 
   8   1.0000      -0.547664       -14.9027 
   9   1.0000      -0.518244       -14.1021 
  10   1.0000      -0.446484       -12.1494 
  11   1.0000      -0.421120       -11.4592 
  12   1.0000      -0.350691        -9.5428 
  13   0.0000       0.040535         1.1030 
  14   0.0000       0.062816         1.7093 
  15   0.0000       0.077630         2.1124 
  16   0.0000       0.087802         2.3892 
  17   0.0000       0.113601         3.0912 
  18   0.0000       0.131325         3.5735 
  19   0.0000       0.132403         3.6029 
  20   0.0000       0.136643         3.7182 
  21   0.0000       0.159171         4.3313 
  22   0.0000       0.179413         4.8821 
  23   0.0000       0.207043         5.6339 

                 SPIN DOWN ORBITALS
  NO   OCC          E(Eh)            E(eV) 
   0   1.0000     -19.372465      -527.1516 
   1   1.0000     -10.407657      -283.2067 
   2   1.0000     -10.361310      -281.9456 
   3   1.0000      -1.080329       -29.3973 
   4   1.0000      -0.859425       -23.3862 
   5   1.0000      -0.716551       -19.4983 
   6   1.0000      -0.591384       -16.0924 
   7   1.0000      -0.531972       -14.4757 
   8   1.0000      -0.521114       -14.1802 
   9   1.0000      -0.480255       -13.0684 
  10   1.0000      -0.389348       -10.5947 
  11   0.0000      -0.053377        -1.4525 
  12   0.0000      -0.020643        -0.5617 
  13   0.0000       0.039724         1.0810 
  14   0.0000       0.063571         1.7298 
  15   0.0000       0.078833         2.1451 
  16   0.0000       0.091056         2.4778 
  17   0.0000       0.114614         3.1188 
  18   0.0000       0.133794         3.6407 
  19   0.0000       0.135989         3.7005 
  20   0.0000       0.141724         3.8565 
  21   0.0000       0.164911         4.4874 
*Only the first 10 virtual orbitals were printed.

                    ********************************
                    * MULLIKEN POPULATION ANALYSIS *
                    ********************************

--------------------------------------------
MULLIKEN ATOMIC CHARGES AND SPIN POPULATIONS
--------------------------------------------
   0 O :   -0.295370    1.007656
   1 C :   -0.038809   -0.039958
   2 C :   -0.575685    0.838370
   3 H :    0.216992    0.051430
   4 H :    0.217409    0.060674
   5 H :    0.235971    0.040628
   6 H :    0.239491    0.041200
Sum of atomic charges         :   -0.0000000
Sum of atomic spin populations:    2.0000000

-----------------------------------------------------
MULLIKEN REDUCED ORBITAL CHARGES AND SPIN POPULATIONS
-----------------------------------------------------
CHARGE
  0 O s       :     3.977704  s :     3.977704
      pz      :     1.045782  p :     4.298042
      px      :     1.936378
      py      :     1.315881
      dz2     :     0.002415  d :     0.018682
      dxz     :    -0.000055
      dyz     :     0.005785
      dx2y2   :     0.006593
      dxy     :     0.003943
      f0      :     0.000094  f :     0.000943
      f+1     :     0.000026
      f-1     :     0.000107
      f+2     :     0.000137
      f-2     :     0.000002
      f+3     :     0.000204
      f-3     :     0.000371

  1 C s       :     3.226143  s :     3.226143
      pz      :     1.164785  p :     2.685697
      px      :     0.881133
      py      :     0.639780
      dz2     :     0.006106  d :     0.118800
      dxz     :     0.010566
      dyz     :     0.032087
      dx2y2   :     0.020923
      dxy     :     0.049117
      f0      :     0.000707  f :     0.008169
      f+1     :     0.000612
      f-1     :     0.000760
      f+2     :     0.000892
      f-2     :     0.000182
      f+3     :     0.003221
      f-3     :     0.001796

  2 C s       :     3.542013  s :     3.542013
      pz      :     1.157800  p :     3.000265
      px      :     0.962475
      py      :     0.879990
      dz2     :     0.007296  d :     0.030279
      dxz     :     0.016896
      dyz     :    -0.001017
      dx2y2   :     0.002556
      dxy     :     0.004548
      f0      :     0.000423  f :     0.003127
      f+1     :     0.000511
      f-1     :     0.000132
      f+2     :     0.000360
      f-2     :     0.000367
      f+3     :     0.000730
      f-3     :     0.000603

  3 H s       :     0.739675  s :     0.739675
      pz      :     0.015149  p :     0.040657
      px      :     0.009379
      py      :     0.016129
      dz2     :     0.000824  d :     0.002676
      dxz     :     0.000513
      dyz     :     0.000602
      dx2y2   :     0.000480
      dxy     :     0.000257

  4 H s       :     0.743712  s :     0.743712
      pz      :     0.015631  p :     0.036296
      px      :     0.006002
      py      :     0.014663
      dz2     :     0.000798  d :     0.002584
      dxz     :     0.000526
      dyz     :     0.000589
      dx2y2   :     0.000427
      dxy     :     0.000244

  5 H s       :     0.712170  s :     0.712170
      pz      :     0.015816  p :     0.049576
      px      :     0.016426
      py      :     0.017334
      dz2     :     0.000648  d :     0.002282
      dxz     :     0.000519
      dyz     :     0.000533
      dx2y2   :     0.000274
      dxy     :     0.000307

  6 H s       :     0.708807  s :     0.708807
      pz      :     0.015739  p :     0.049514
      px      :     0.016014
      py      :     0.017760
      dz2     :     0.000638  d :     0.002188
      dxz     :     0.000509
      dyz     :     0.000563
      dx2y2   :     0.000196
      dxy     :     0.000281


SPIN
  0 O s       :     0.001189  s :     0.001189
      pz      :     0.915239  p :     1.010389
      px      :     0.015307
      py      :     0.079844
      dz2     :     0.000446  d :    -0.003809
      dxz     :     0.000005
      dyz     :    -0.003614
      dx2y2   :    -0.000378
      dxy     :    -0.000268
      f0      :    -0.000018  f :    -0.000113
      f+1     :     0.000013
      f-1     :    -0.000127
      f+2     :     0.000001
      f-2     :     0.000001
      f+3     :     0.000008
      f-3     :     0.000008

  1 C s       :     0.004640  s :     0.004640
      pz      :    -0.012629  p :    -0.103109
      px      :    -0.013135
      py      :    -0.077345
      dz2     :     0.002538  d :     0.056261
      dxz     :     0.005747
      dyz     :     0.031187
      dx2y2   :     0.020522
      dxy     :    -0.003733
      f0      :     0.000458  f :     0.002250
      f+1     :     0.000065
      f-1     :    -0.000015
      f+2     :     0.000716
      f-2     :     0.000052
      f+3     :     0.000885
      f-3     :     0.000089

  2 C s       :     0.003334  s :     0.003334
      pz      :     0.020258  p :     0.847310
      px      :     0.107875
      py      :     0.719177
      dz2     :    -0.000411  d :    -0.011410
      dxz     :    -0.006339
      dyz     :     0.000174
      dx2y2   :    -0.003981
      dxy     :    -0.000853
      f0      :    -0.000031  f :    -0.000865
      f+1     :    -0.000187
      f-1     :    -0.000036
      f+2     :    -0.000175
      f-2     :    -0.000035
      f+3     :    -0.000135
      f-3     :    -0.000266

  3 H s       :     0.044445  s :     0.044445
      pz      :     0.002448  p :     0.007015
      px      :     0.000018
      py      :     0.004549
      dz2     :    -0.000013  d :    -0.000030
      dxz     :     0.000015
      dyz     :    -0.000023
      dx2y2   :    -0.000001
      dxy     :    -0.000008

  4 H s       :     0.052900  s :     0.052900
      pz      :     0.002575  p :     0.007778
      px      :     0.000655
      py      :     0.004548
      dz2     :    -0.000006  d :    -0.000004
      dxz     :     0.000019
      dyz     :    -0.000017
      dx2y2   :     0.000002
      dxy     :    -0.000002

  5 H s       :     0.017409  s :     0.017409
      pz      :     0.000498  p :     0.022283
      px      :     0.004959
      py      :     0.016825
      dz2     :     0.000216  d :     0.000936
      dxz     :     0.000031
      dyz     :     0.000396
      dx2y2   :     0.000040
      dxy     :     0.000253

  6 H s       :     0.014671  s :     0.014671
      pz      :     0.002218  p :     0.025612
      px      :     0.006726
      py      :     0.016668
      dz2     :     0.000099  d :     0.000917
      dxz     :     0.000037
      dyz     :     0.000527
      dx2y2   :     0.000031
      dxy     :     0.000223



                     *******************************
                     * LOEWDIN POPULATION ANALYSIS *
                     *******************************

-------------------------------------------
LOEWDIN ATOMIC CHARGES AND SPIN POPULATIONS
-------------------------------------------
   0 O :    0.034353    0.954512
   1 C :   -0.175645    0.161079
   2 C :    0.250125    0.669612
   3 H :   -0.015336    0.027989
   4 H :    0.007889    0.036624
   5 H :   -0.051961    0.072785
   6 H :   -0.049424    0.077400

----------------------------------------------------
LOEWDIN REDUCED ORBITAL CHARGES AND SPIN POPULATIONS
----------------------------------------------------
CHARGE
  0 O s       :     3.545004  s :     3.545004
      pz      :     0.994030  p :     4.198571
      px      :     1.781567
      py      :     1.422974
      dz2     :     0.020092  d :     0.219379
      dxz     :     0.001475
      dyz     :     0.070390
      dx2y2   :     0.057989
      dxy     :     0.069433
      f0      :     0.000372  f :     0.002693
      f+1     :     0.000081
      f-1     :     0.000344
      f+2     :     0.000496
      f-2     :     0.000001
      f+3     :     0.000662
      f-3     :     0.000738

  1 C s       :     2.646612  s :     2.646612
      pz      :     0.929368  p :     2.603909
      px      :     0.924403
      py      :     0.750138
      dz2     :     0.108432  d :     0.856517
      dxz     :     0.154150
      dyz     :     0.098101
      dx2y2   :     0.238394
      dxy     :     0.257440
      f0      :     0.004948  f :     0.068608
      f+1     :     0.006621
      f-1     :     0.010364
      f+2     :     0.006565
      f-2     :     0.006438
      f+3     :     0.018443
      f-3     :     0.015230

  2 C s       :     2.740213  s :     2.740213
      pz      :     0.968198  p :     2.590190
      px      :     0.917275
      py      :     0.704718
      dz2     :     0.055561  d :     0.395446
      dxz     :     0.177501
      dyz     :     0.016387
      dx2y2   :     0.082311
      dxy     :     0.063685
      f0      :     0.002676  f :     0.024025
      f+1     :     0.004910
      f-1     :     0.001789
      f+2     :     0.003198
      f-2     :     0.003351
      f+3     :     0.004348
      f-3     :     0.003752

  3 H s       :     0.691629  s :     0.691629
      pz      :     0.116168  p :     0.288401
      px      :     0.098913
      py      :     0.073321
      dz2     :     0.010951  d :     0.035305
      dxz     :     0.009094
      dyz     :     0.007118
      dx2y2   :     0.004480
      dxy     :     0.003663

  4 H s       :     0.685176  s :     0.685176
      pz      :     0.113049  p :     0.274274
      px      :     0.091648
      py      :     0.069577
      dz2     :     0.010177  d :     0.032661
      dxz     :     0.008637
      dyz     :     0.006673
      dx2y2   :     0.003876
      dxy     :     0.003299

  5 H s       :     0.729450  s :     0.729450
      pz      :     0.120365  p :     0.291634
      px      :     0.091333
      py      :     0.079936
      dz2     :     0.008914  d :     0.030877
      dxz     :     0.008772
      dyz     :     0.006382
      dx2y2   :     0.003337
      dxy     :     0.003473

  6 H s       :     0.732654  s :     0.732654
      pz      :     0.125062  p :     0.286374
      px      :     0.086294
      py      :     0.075019
      dz2     :     0.009344  d :     0.030395
      dxz     :     0.009301
      dyz     :     0.006225
      dx2y2   :     0.002736
      dxy     :     0.002790


SPIN
  0 O s       :     0.015335  s :     0.015335
      pz      :     0.839878  p :     0.929511
      px      :     0.025074
      py      :     0.064559
      dz2     :     0.001699  d :     0.009694
      dxz     :     0.000169
      dyz     :     0.006708
      dx2y2   :    -0.000933
      dxy     :     0.002051
      f0      :     0.000075  f :    -0.000028
      f+1     :     0.000039
      f-1     :    -0.000128
      f+2     :     0.000033
      f-2     :     0.000001
      f+3     :     0.000003
      f-3     :    -0.000051

  1 C s       :    -0.002938  s :    -0.002938
      pz      :     0.007586  p :    -0.019437
      px      :    -0.012075
      py      :    -0.014949
      dz2     :     0.006569  d :     0.166698
      dxz     :     0.009579
      dyz     :     0.075553
      dx2y2   :     0.055070
      dxy     :     0.019926
      f0      :     0.002942  f :     0.016756
      f+1     :     0.000261
      f-1     :     0.000388
      f+2     :     0.005136
      f-2     :     0.000742
      f+3     :     0.005735
      f-3     :     0.001551

  2 C s       :     0.030462  s :     0.030462
      pz      :     0.025217  p :     0.639345
      px      :     0.061267
      py      :     0.552862
      dz2     :    -0.001296  d :     0.000382
      dxz     :    -0.000356
      dyz     :     0.000344
      dx2y2   :     0.004069
      dxy     :    -0.002378
      f0      :     0.000054  f :    -0.000577
      f+1     :    -0.000122
      f-1     :     0.000121
      f+2     :    -0.000138
      f-2     :     0.000038
      f+3     :    -0.000130
      f-3     :    -0.000401

  3 H s       :     0.023540  s :     0.023540
      pz      :     0.000275  p :     0.005077
      px      :    -0.000542
      py      :     0.005344
      dz2     :    -0.000168  d :    -0.000628
      dxz     :    -0.000029
      dyz     :    -0.000269
      dx2y2   :    -0.000025
      dxy     :    -0.000137

  4 H s       :     0.029767  s :     0.029767
      pz      :     0.000496  p :     0.007378
      px      :     0.000607
      py      :     0.006275
      dz2     :    -0.000145  d :    -0.000522
      dxz     :    -0.000038
      dyz     :    -0.000236
      dx2y2   :    -0.000020
      dxy     :    -0.000083

  5 H s       :    -0.008021  s :    -0.008021
      pz      :     0.003833  p :     0.071594
      px      :     0.006651
      py      :     0.061110
      dz2     :     0.001969  d :     0.009212
      dxz     :     0.000409
      dyz     :     0.004026
      dx2y2   :     0.000173
      dxy     :     0.002635

  6 H s       :    -0.006526  s :    -0.006526
      pz      :     0.004563  p :     0.074726
      px      :     0.007666
      py      :     0.062497
      dz2     :     0.000419  d :     0.009199
      dxz     :     0.000608
      dyz     :     0.005640
      dx2y2   :     0.000235
      dxy     :     0.002297



                      *****************************
                      * MAYER POPULATION ANALYSIS *
                      *****************************

  NA   - Mulliken gross atomic population
  ZA   - Total nuclear charge
  QA   - Mulliken gross atomic charge
  VA   - Mayer's total valence
  BVA  - Mayer's bonded valence
  FA   - Mayer's free valence

  ATOM       NA         ZA         QA         VA         BVA        FA
  0 O      8.2954     8.0000    -0.2954     1.8655     1.0081     0.8574
  1 C      6.0388     6.0000    -0.0388     3.4579     3.4497     0.0081
  2 C      6.5757     6.0000    -0.5757     3.5243     2.7521     0.7722
  3 H      0.7830     1.0000     0.2170     1.0074     1.0061     0.0013
  4 H      0.7826     1.0000     0.2174     0.9963     0.9943     0.0021
  5 H      0.7640     1.0000     0.2360     0.9974     0.9967     0.0007
  6 H      0.7605     1.0000     0.2395     1.0048     1.0038     0.0010

  Mayer bond orders larger than 0.100000
B(  0-O ,  1-C ) :   0.8414 B(  1-C ,  2-C ) :   0.7180 B(  1-C ,  3-H ) :   0.9731 
B(  1-C ,  4-H ) :   0.9752 B(  2-C ,  5-H ) :   1.0061 B(  2-C ,  6-H ) :   1.0038 


-------
TIMINGS
-------

Total SCF time: 0 days 0 hours 0 min 4 sec 

Total time                  ....       4.313 sec
Sum of individual times     ....       4.306 sec  ( 99.8%)

SCF preparation             ....       0.560 sec  ( 13.0%)
Fock matrix formation       ....       3.092 sec  ( 71.7%)
  Startup                   ....       0.035 sec  (  1.1% of F)
  Split-RI-J                ....       0.194 sec  (  6.3% of F)
  Chain of spheres X        ....       1.957 sec  ( 63.3% of F)
  XC integration            ....       0.795 sec  ( 25.7% of F)
    Basis function eval.    ....       0.060 sec  (  7.5% of XC)
    Density eval.           ....       0.228 sec  ( 28.7% of XC)
    XC-Functional eval.     ....       0.019 sec  (  2.3% of XC)
    XC-Potential eval.      ....       0.364 sec  ( 45.7% of XC)
Diagonalization             ....       0.000 sec  (  0.0%)
Density matrix formation    ....       0.073 sec  (  1.7%)
Total Energy calculation    ....       0.052 sec  (  1.2%)
Population analysis         ....       0.025 sec  (  0.6%)
Orbital Transformation      ....       0.053 sec  (  1.2%)
Orbital Orthonormalization  ....       0.000 sec  (  0.0%)
DIIS solution               ....       0.310 sec  (  7.2%)
SOSCF solution              ....       0.135 sec  (  3.1%)
Finished LeanSCF after   4.3 sec

Maximum memory used throughout the entire LEANSCF-calculation: 14.6 MB
[1741043480.409337] [ohm:318084:0]        ib_iface.c:1059 UCX  ERROR ibv_create_cq(cqe=256) failed: Connection timed out
[1741043480.409833] [ohm:318093:0]        ib_iface.c:1059 UCX  ERROR ibv_create_cq(cqe=256) failed: Connection timed out
[1741043480.409834] [ohm:318087:0]        ib_iface.c:1059 UCX  ERROR ibv_create_cq(cqe=256) failed: Connection timed out
[1741043480.409899] [ohm:318091:0]        ib_iface.c:1059 UCX  ERROR ibv_create_cq(cqe=256) failed: Connection timed out
[1741043480.409939] [ohm:318082:0]        ib_iface.c:1059 UCX  ERROR ibv_create_cq(cqe=256) failed: Connection timed out
[1741043480.409941] [ohm:318086:0]        ib_iface.c:1059 UCX  ERROR ibv_create_cq(cqe=256) failed: Connection timed out
[1741043480.412126] [ohm:318090:0]        ib_iface.c:1059 UCX  ERROR ibv_create_cq(cqe=256) failed: Connection timed out
[1741043480.437936] [ohm:318103:0]        ib_iface.c:1059 UCX  ERROR ibv_create_cq(cqe=256) failed: Connection timed out
[1741043480.439292] [ohm:318101:0]        ib_iface.c:1059 UCX  ERROR ibv_create_cq(cqe=256) failed: Connection timed out
[1741043480.449750] [ohm:318097:0]        ib_iface.c:1059 UCX  ERROR ibv_create_cq(cqe=256) failed: Connection timed out
[1741043480.451672] [ohm:318095:0]        ib_iface.c:1059 UCX  ERROR ibv_create_cq(cqe=256) failed: Connection timed out
[1741043480.469830] [ohm:318088:0]        ib_iface.c:1059 UCX  ERROR ibv_create_cq(cqe=256) failed: Connection timed out
[1741043480.472450] [ohm:318094:0]        ib_iface.c:1059 UCX  ERROR ibv_create_cq(cqe=256) failed: Connection timed out
[1741043480.473820] [ohm:318116:0]        ib_iface.c:1059 UCX  ERROR ibv_create_cq(cqe=256) failed: Connection timed out
[1741043480.474453] [ohm:318085:0]        ib_iface.c:1059 UCX  ERROR ibv_create_cq(cqe=256) failed: Connection timed out
[1741043480.474989] [ohm:318083:0]        ib_iface.c:1059 UCX  ERROR ibv_create_cq(cqe=256) failed: Connection timed out
[1741043480.476572] [ohm:318089:0]        ib_iface.c:1059 UCX  ERROR ibv_create_cq(cqe=256) failed: Connection timed out
[1741043480.479095] [ohm:318099:0]        ib_iface.c:1059 UCX  ERROR ibv_create_cq(cqe=256) failed: Connection timed out
[1741043480.481105] [ohm:318127:0]        ib_iface.c:1059 UCX  ERROR ibv_create_cq(cqe=256) failed: Connection timed out
[1741043480.481159] [ohm:318113:0]        ib_iface.c:1059 UCX  ERROR ibv_create_cq(cqe=256) failed: Connection timed out
[1741043480.481730] [ohm:318092:0]        ib_iface.c:1059 UCX  ERROR ibv_create_cq(cqe=256) failed: Connection timed out
[1741043480.481731] [ohm:318098:0]        ib_iface.c:1059 UCX  ERROR ibv_create_cq(cqe=256) failed: Connection timed out
[1741043480.482869] [ohm:318096:0]        ib_iface.c:1059 UCX  ERROR ibv_create_cq(cqe=256) failed: Connection timed out
[1741043480.482921] [ohm:318111:0]        ib_iface.c:1059 UCX  ERROR ibv_create_cq(cqe=256) failed: Connection timed out
[1741043480.484253] [ohm:318122:0]        ib_iface.c:1059 UCX  ERROR ibv_create_cq(cqe=256) failed: Connection timed out
[1741043480.484861] [ohm:318100:0]        ib_iface.c:1059 UCX  ERROR ibv_create_cq(cqe=256) failed: Connection timed out
[1741043480.486039] [ohm:318117:0]        ib_iface.c:1059 UCX  ERROR ibv_create_cq(cqe=256) failed: Connection timed out
[1741043480.486217] [ohm:318108:0]        ib_iface.c:1059 UCX  ERROR ibv_create_cq(cqe=256) failed: Connection timed out
[1741043480.486218] [ohm:318118:0]        ib_iface.c:1059 UCX  ERROR ibv_create_cq(cqe=256) failed: Connection timed out
[1741043480.486640] [ohm:318134:0]        ib_iface.c:1059 UCX  ERROR ibv_create_cq(cqe=256) failed: Connection timed out
[1741043480.488939] [ohm:318125:0]        ib_iface.c:1059 UCX  ERROR ibv_create_cq(cqe=256) failed: Connection timed out
[1741043480.489021] [ohm:318119:0]        ib_iface.c:1059 UCX  ERROR ibv_create_cq(cqe=256) failed: Connection timed out


           ************************************************************
           *        Program running with 32 parallel MPI-processes    *
           *              working on a common directory               *
           ************************************************************

------------------------------------------------------------------------------
                         ORCA PROPERTY INTEGRAL CALCULATIONS
------------------------------------------------------------------------------

GBWName                                   ... orca.gbw
Number of atoms                           ...      7
Number of basis functions                 ...    182
Max core memory                           ...   1024 MB

Dipole integrals                          ... YES
Quadrupole integrals                      ...  NO
Linear momentum integrals                 ... YES
Angular momentum integrals                ... YES
Higher moments length integrals           ...  NO
Higher moments velocity integrals         ...  NO
Kinetic energy integrals                  ...  NO
GIAO right hand sides                     ...  NO
GIAO dipole derivative integrals          ...  NO
SOC integrals                             ...  NO
EPR diamagnetic integrals (GIAO)          ...  NO
EPR gauge integrals                       ...  NO
Field gradient integrals                  ...  NO (   0 nuclei)
Spin-dipole/Fermi contact integrals       ...  NO (   0 nuclei)
Contact density integrals                 ...  NO (   0 nuclei)
Nucleus-orbit integrals                   ...  NO (   0 nuclei)
Geometric perturbations                   ...  NO (   7 nuclei)

Choice of electric origin   ... Center of mass
Position of electric origin ... (  0.1387,  0.0407, -0.0008) 
Choice of magnetic origin   ... GIAO
Position of magnetic origin ... (  0.0000,  0.0000,  0.0000) 

Calculating integrals                     ... Electric Dipole (Length)     done (  0.0 sec)
Calculating integrals                     ... Linear Momentum              done (  0.0 sec)
Calculating integrals                     ... Angular Momentum  (ElOri)    done (  0.0 sec)

Property integrals calculated in   0.0 sec

Maximum memory used throughout the entire PROPINT-calculation: 10.2 MB
[1741043481.317710] [ohm:318264:0]        ib_iface.c:1059 UCX  ERROR ibv_create_cq(cqe=256) failed: Connection timed out
[1741043481.317821] [ohm:318260:0]        ib_iface.c:1059 UCX  ERROR ibv_create_cq(cqe=256) failed: Connection timed out
[1741043481.320959] [ohm:318258:0]        ib_iface.c:1059 UCX  ERROR ibv_create_cq(cqe=256) failed: Connection timed out
[1741043481.321047] [ohm:318270:0]        ib_iface.c:1059 UCX  ERROR ibv_create_cq(cqe=256) failed: Connection timed out
[1741043481.321080] [ohm:318255:0]        ib_iface.c:1059 UCX  ERROR ibv_create_cq(cqe=256) failed: Connection timed out
[1741043481.330150] [ohm:318265:0]        ib_iface.c:1059 UCX  ERROR ibv_create_cq(cqe=256) failed: Connection timed out
[1741043481.330454] [ohm:318261:0]        ib_iface.c:1059 UCX  ERROR ibv_create_cq(cqe=256) failed: Connection timed out
[1741043481.332191] [ohm:318266:0]        ib_iface.c:1059 UCX  ERROR ibv_create_cq(cqe=256) failed: Connection timed out
[1741043481.342099] [ohm:318279:0]        ib_iface.c:1059 UCX  ERROR ibv_create_cq(cqe=256) failed: Connection timed out
[1741043481.342144] [ohm:318259:0]        ib_iface.c:1059 UCX  ERROR ibv_create_cq(cqe=256) failed: Connection timed out
[1741043481.348322] [ohm:318262:0]        ib_iface.c:1059 UCX  ERROR ibv_create_cq(cqe=256) failed: Connection timed out
[1741043481.348464] [ohm:318263:0]        ib_iface.c:1059 UCX  ERROR ibv_create_cq(cqe=256) failed: Connection timed out
[1741043481.349997] [ohm:318268:0]        ib_iface.c:1059 UCX  ERROR ibv_create_cq(cqe=256) failed: Connection timed out
[1741043481.350930] [ohm:318274:0]        ib_iface.c:1059 UCX  ERROR ibv_create_cq(cqe=256) failed: Connection timed out
[1741043481.353218] [ohm:318257:0]        ib_iface.c:1059 UCX  ERROR ibv_create_cq(cqe=256) failed: Connection timed out
[1741043481.353829] [ohm:318256:0]        ib_iface.c:1059 UCX  ERROR ibv_create_cq(cqe=256) failed: Connection timed out
[1741043481.371072] [ohm:318285:0]        ib_iface.c:1059 UCX  ERROR ibv_create_cq(cqe=256) failed: Connection timed out
[1741043481.372566] [ohm:318276:0]        ib_iface.c:1059 UCX  ERROR ibv_create_cq(cqe=256) failed: Connection timed out
[1741043481.372845] [ohm:318281:0]        ib_iface.c:1059 UCX  ERROR ibv_create_cq(cqe=256) failed: Connection timed out
[1741043481.373802] [ohm:318292:0]        ib_iface.c:1059 UCX  ERROR ibv_create_cq(cqe=256) failed: Connection timed out
[1741043481.373815] [ohm:318287:0]        ib_iface.c:1059 UCX  ERROR ibv_create_cq(cqe=256) failed: Connection timed out
[1741043481.373851] [ohm:318288:0]        ib_iface.c:1059 UCX  ERROR ibv_create_cq(cqe=256) failed: Connection timed out
[1741043481.373870] [ohm:318289:0]        ib_iface.c:1059 UCX  ERROR ibv_create_cq(cqe=256) failed: Connection timed out
[1741043481.374139] [ohm:318267:0]        ib_iface.c:1059 UCX  ERROR ibv_create_cq(cqe=256) failed: Connection timed out
[1741043481.375948] [ohm:318286:0]        ib_iface.c:1059 UCX  ERROR ibv_create_cq(cqe=256) failed: Connection timed out
[1741043481.377307] [ohm:318290:0]        ib_iface.c:1059 UCX  ERROR ibv_create_cq(cqe=256) failed: Connection timed out
[1741043481.377308] [ohm:318309:0]        ib_iface.c:1059 UCX  ERROR ibv_create_cq(cqe=256) failed: Connection timed out
[1741043481.377358] [ohm:318295:0]        ib_iface.c:1059 UCX  ERROR ibv_create_cq(cqe=256) failed: Connection timed out
[1741043481.377764] [ohm:318291:0]        ib_iface.c:1059 UCX  ERROR ibv_create_cq(cqe=256) failed: Connection timed out
[1741043481.378228] [ohm:318293:0]        ib_iface.c:1059 UCX  ERROR ibv_create_cq(cqe=256) failed: Connection timed out
[1741043481.378231] [ohm:318302:0]        ib_iface.c:1059 UCX  ERROR ibv_create_cq(cqe=256) failed: Connection timed out
[1741043481.378268] [ohm:318271:0]        ib_iface.c:1059 UCX  ERROR ibv_create_cq(cqe=256) failed: Connection timed out


           ************************************************************
           *        Program running with 32 parallel MPI-processes    *
           *              working on a common directory               *
           ************************************************************
------------------------------------------------------------------------------
                        ORCA TD-DFT/TDA CALCULATION
------------------------------------------------------------------------------

Input orbitals are from        ... orca.gbw
CI-vector output               ... orca.cis
Solver                         ... FN-2001
Tamm-Dancoff approximation     ... operative
CIS-Integral strategy          ... AO-integrals
Integral handling              ... AO integral Direct
Max. core memory used          ... 512 MB
Reference state                ... UHF
Follow IRoot                   ... off
Number of operators            ... 2
Orbital ranges used for CIS calculation:
 Operator 0:  Orbitals   3... 12  to  11...181

-------------------
XC-INTEGRATION GRID
-------------------

General Integration Accuracy     IntAcc      ... 3.467
Radial Grid Type                 RadialGrid  ... OptM3 with GC (2021)
Angular Grid (max. ang.)         AngularGrid ... 1 (Lebedev-50)
Angular grid pruning method      GridPruning ... 4 (adaptive)
Weight generation scheme         WeightScheme... mBecke (2022)
Basis function cutoff            BFCut       ... 1.0000e-11
Integration weight cutoff        WCut        ... 1.0000e-14
Partially contracted basis set               ... off
Rotationally invariant grid construction     ... off
Angular grids for H and He will be reduced by one unit
Diffuse basis detected: some atoms will have their outermost
                        angular grid increased by 1.

Total number of grid points                  ...     4738
Total number of batches                      ...       77
Average number of points per batch           ...       61
Average number of grid points per atom       ...      677

---------------------
COSX-INTEGRATION GRID
---------------------

[...]
=> NOW LEAVING ORCA_CIS


-------------------------------------------------------------------------------
                          DFT DISPERSION CORRECTION                            
                                                                               
                              DFTD3 V3.1  Rev 1                                
                          USING Becke-Johnson damping                          
-------------------------------------------------------------------------------
The WB97M functional is recognized
Active option DFTDOPT                   ...         4   

molecular C6(AA) [au] = 395.115978 


            DFT-D V3
 parameters
 s6 scaling factor         :     1.0000 
 a1 scaling factor         :     0.5660 
 s8 scaling factor         :     0.3908 
 a2 scaling factor         :     3.1280 
 ad hoc parameters k1-k3   :    16.0000     1.3333    -4.0000 

 Edisp/kcal,au: -3.456293311632  -0.005507953403 
 E6   /kcal   :  -2.785502658 
 E8   /kcal   :  -0.670790654 
 % E8         :  19.407804635 

-------------------------   ----------------
Dispersion correction           -0.005507953
-------------------------   ----------------


-------------------------   --------------------
FINAL SINGLE POINT ENERGY      -153.738694006135
-------------------------   --------------------

[1741043487.661578] [ohm:318445:0]        ib_iface.c:1059 UCX  ERROR ibv_create_cq(cqe=256) failed: Connection timed out
[1741043487.661705] [ohm:318464:0]        ib_iface.c:1059 UCX  ERROR ibv_create_cq(cqe=256) failed: Connection timed out
[1741043487.661819] [ohm:318475:0]        ib_iface.c:1059 UCX  ERROR ibv_create_cq(cqe=256) failed: Connection timed out
[1741043487.662994] [ohm:318455:0]        ib_iface.c:1059 UCX  ERROR ibv_create_cq(cqe=256) failed: Connection timed out
[1741043487.665189] [ohm:318458:0]        ib_iface.c:1059 UCX  ERROR ibv_create_cq(cqe=256) failed: Connection timed out
[1741043487.680750] [ohm:318466:0]        ib_iface.c:1059 UCX  ERROR ibv_create_cq(cqe=256) failed: Connection timed out
[1741043487.680809] [ohm:318469:0]        ib_iface.c:1059 UCX  ERROR ibv_create_cq(cqe=256) failed: Connection timed out
[1741043487.686959] [ohm:318462:0]        ib_iface.c:1059 UCX  ERROR ibv_create_cq(cqe=256) failed: Connection timed out
[1741043487.689572] [ohm:318461:0]        ib_iface.c:1059 UCX  ERROR ibv_create_cq(cqe=256) failed: Connection timed out
[1741043487.712008] [ohm:318453:0]        ib_iface.c:1059 UCX  ERROR ibv_create_cq(cqe=256) failed: Connection timed out
[1741043487.712509] [ohm:318450:0]        ib_iface.c:1059 UCX  ERROR ibv_create_cq(cqe=256) failed: Connection timed out
[1741043487.720105] [ohm:318463:0]        ib_iface.c:1059 UCX  ERROR ibv_create_cq(cqe=256) failed: Connection timed out
[1741043487.726513] [ohm:318448:0]        ib_iface.c:1059 UCX  ERROR ibv_create_cq(cqe=256) failed: Connection timed out
[1741043487.739686] [ohm:318454:0]        ib_iface.c:1059 UCX  ERROR ibv_create_cq(cqe=256) failed: Connection timed out
[1741043487.740106] [ohm:318470:0]        ib_iface.c:1059 UCX  ERROR ibv_create_cq(cqe=256) failed: Connection timed out
[1741043487.741232] [ohm:318459:0]        ib_iface.c:1059 UCX  ERROR ibv_create_cq(cqe=256) failed: Connection timed out
[1741043487.741275] [ohm:318452:0]        ib_iface.c:1059 UCX  ERROR ibv_create_cq(cqe=256) failed: Connection timed out
[1741043487.743648] [ohm:318457:0]        ib_iface.c:1059 UCX  ERROR ibv_create_cq(cqe=256) failed: Connection timed out
[1741043487.745033] [ohm:318451:0]        ib_iface.c:1059 UCX  ERROR ibv_create_cq(cqe=256) failed: Connection timed out
[1741043487.748420] [ohm:318460:0]        ib_iface.c:1059 UCX  ERROR ibv_create_cq(cqe=256) failed: Connection timed out
[1741043487.748419] [ohm:318467:0]        ib_iface.c:1059 UCX  ERROR ibv_create_cq(cqe=256) failed: Connection timed out
[1741043487.748434] [ohm:318472:0]        ib_iface.c:1059 UCX  ERROR ibv_create_cq(cqe=256) failed: Connection timed out
[1741043487.748419] [ohm:318473:0]        ib_iface.c:1059 UCX  ERROR ibv_create_cq(cqe=256) failed: Connection timed out
[1741043487.748420] [ohm:318476:0]        ib_iface.c:1059 UCX  ERROR ibv_create_cq(cqe=256) failed: Connection timed out
[1741043487.748419] [ohm:318446:0]        ib_iface.c:1059 UCX  ERROR ibv_create_cq(cqe=256) failed: Connection timed out
[1741043487.748482] [ohm:318468:0]        ib_iface.c:1059 UCX  ERROR ibv_create_cq(cqe=256) failed: Connection timed out
[1741043487.748567] [ohm:318474:0]        ib_iface.c:1059 UCX  ERROR ibv_create_cq(cqe=256) failed: Connection timed out
[1741043487.749530] [ohm:318471:0]        ib_iface.c:1059 UCX  ERROR ibv_create_cq(cqe=256) failed: Connection timed out
[1741043487.749564] [ohm:318456:0]        ib_iface.c:1059 UCX  ERROR ibv_create_cq(cqe=256) failed: Connection timed out
[1741043487.750686] [ohm:318465:0]        ib_iface.c:1059 UCX  ERROR ibv_create_cq(cqe=256) failed: Connection timed out
[1741043487.750752] [ohm:318449:0]        ib_iface.c:1059 UCX  ERROR ibv_create_cq(cqe=256) failed: Connection timed out
[1741043487.751427] [ohm:318447:0]        ib_iface.c:1059 UCX  ERROR ibv_create_cq(cqe=256) failed: Connection timed out


           ************************************************************
           *        Program running with 32 parallel MPI-processes    *
           *              working on a common directory               *
           ************************************************************

------------------------------------------------------------------------------
                              ORCA PROPERTY CALCULATIONS
------------------------------------------------------------------------------

GBWName                                 ... orca.gbw
Number of atoms                         ...      7
Number of basis functions               ...    182
Max core memory                         ...   1024 MB

Electric properties:
Dipole moment                           ... YES
Quadrupole moment                       ...  NO
Static polarizability (Dipole/Dipole)   ...  NO
Static polarizability (Dipole/Quad.)    ...  NO
Static polarizability (Quad./Quad.)     ...  NO
Static polarizability (Velocity)        ...  NO

Atomic electric properties:
Dipole moment                           ...  NO
Quadrupole moment                       ...  NO
Static polarizability                   ...  NO

Choice of electric origin               ... Center of mass
Position of electric origin             ...     0.138661     0.040742    -0.000832

General magnetic properties:
Magnetizability                         ...  NO

EPR properties:
g-Tensor (aka g-matrix)                 ...  NO
Zero-Field splitting spin-orbit         ...  NO
Zero-field splitting spin-spin          ...  NO
Hyperfine couplings                     ...  NO (   0 nuclei)
Quadrupole couplings                    ...  NO (   0 nuclei)
Contact density                         ...  NO (   0 nuclei)

NMR properties:
Chemical shifts                         ...  NO (   0 nuclei)
Spin-rotation constants                 ...  NO (   0 nuclei)
Spin-spin couplings                     ...  NO (   0 nuclei,    0 pairs)

Choice of magnetic origin               ... GIAO
Position of magnetic origin             ...     0.000000     0.000000     0.000000

Properties with geometric perturbations:
SCF Hessian                             ...  NO
IR spectrum                             ...  NO
VCD spectrum                            ...  NO
X-ray spectroscopy properties:
SCF XES/XAS/RIXS spectra                ...  NO


-------------
DIPOLE MOMENT
-------------

Method             : SCF
Type of density    : Electron Density
Multiplicity       :   3
Irrep              :   0
Energy             :  -153.7749253142091277 Eh
Relativity type    : 
Basis              : AO
                                X                 Y                 Z
Electronic contribution:      0.988601169       2.218723659      -0.013765013
Nuclear contribution   :     -1.041567083      -2.888560725       0.035095518
                        -----------------------------------------
Total Dipole Moment    :     -0.052965915      -0.669837065       0.021330505
                        -----------------------------------------
Magnitude (a.u.)       :      0.672266370
Magnitude (Debye)      :      1.708765316



--------------------
Rotational spectrum 
--------------------
 
Rotational constants in cm-1:             1.468242             0.317035             0.288280 
Rotational constants in MHz :         44016.794168          9504.482921          8642.418647 

Dipole components along the rotational axes: 
x,y,z [a.u.] :    -0.586423     0.328540     0.010541 
x,y,z [Debye]:    -1.490570     0.835083     0.026792 

 

-------------
DIPOLE MOMENT
-------------

Method             : TDA/CIS
Type of density    : Electron Density
Level              : Relaxed density
State              :   2
Multiplicity       :   3
Irrep              :   0
Energy             :     0.0000000000000000 Eh
Relativity type    : 
Basis              : AO
                                X                 Y                 Z
Electronic contribution:      0.931435200       2.243618285      -0.046978210
Nuclear contribution   :     -1.041567083      -2.888560725       0.035095518
                        -----------------------------------------
Total Dipole Moment    :     -0.110131883      -0.644942439      -0.011882692
                        -----------------------------------------
Magnitude (a.u.)       :      0.654385957
Magnitude (Debye)      :      1.663316916



--------------------
Rotational spectrum 
--------------------
 
Rotational constants in cm-1:             1.468242             0.317035             0.288280 
Rotational constants in MHz :         44016.794168          9504.482921          8642.418647 

Dipole components along the rotational axes: 
x,y,z [a.u.] :    -0.596902     0.267215    -0.022929 
x,y,z [Debye]:    -1.517203     0.679206    -0.058281 

 

Dipole moment calculation done in   0.0 sec 

Maximum memory used throughout the entire PROP-calculation: 7.4 MB
[1741043488.561679] [ohm:318628:0]        ib_iface.c:1059 UCX  ERROR ibv_create_cq(cqe=256) failed: Connection timed out
[1741043488.561661] [ohm:318636:0]        ib_iface.c:1059 UCX  ERROR ibv_create_cq(cqe=256) failed: Connection timed out
[1741043488.562175] [ohm:318626:0]        ib_iface.c:1059 UCX  ERROR ibv_create_cq(cqe=256) failed: Connection timed out
[1741043488.562159] [ohm:318631:0]        ib_iface.c:1059 UCX  ERROR ibv_create_cq(cqe=256) failed: Connection timed out
[1741043488.562155] [ohm:318641:0]        ib_iface.c:1059 UCX  ERROR ibv_create_cq(cqe=256) failed: Connection timed out
[1741043488.568202] [ohm:318637:0]        ib_iface.c:1059 UCX  ERROR ibv_create_cq(cqe=256) failed: Connection timed out
[1741043488.569279] [ohm:318640:0]        ib_iface.c:1059 UCX  ERROR ibv_create_cq(cqe=256) failed: Connection timed out
[1741043488.569680] [ohm:318632:0]        ib_iface.c:1059 UCX  ERROR ibv_create_cq(cqe=256) failed: Connection timed out
[1741043488.595986] [ohm:318635:0]        ib_iface.c:1059 UCX  ERROR ibv_create_cq(cqe=256) failed: Connection timed out
[1741043488.607189] [ohm:318630:0]        ib_iface.c:1059 UCX  ERROR ibv_create_cq(cqe=256) failed: Connection timed out
[1741043488.607738] [ohm:318656:0]        ib_iface.c:1059 UCX  ERROR ibv_create_cq(cqe=256) failed: Connection timed out
[1741043488.622510] [ohm:318646:0]        ib_iface.c:1059 UCX  ERROR ibv_create_cq(cqe=256) failed: Connection timed out
[1741043488.634376] [ohm:318667:0]        ib_iface.c:1059 UCX  ERROR ibv_create_cq(cqe=256) failed: Connection timed out
[1741043488.635012] [ohm:318634:0]        ib_iface.c:1059 UCX  ERROR ibv_create_cq(cqe=256) failed: Connection timed out
[1741043488.635170] [ohm:318669:0]        ib_iface.c:1059 UCX  ERROR ibv_create_cq(cqe=256) failed: Connection timed out
[1741043488.640309] [ohm:318648:0]        ib_iface.c:1059 UCX  ERROR ibv_create_cq(cqe=256) failed: Connection timed out
[1741043488.640307] [ohm:318650:0]        ib_iface.c:1059 UCX  ERROR ibv_create_cq(cqe=256) failed: Connection timed out
[1741043488.641024] [ohm:318644:0]        ib_iface.c:1059 UCX  ERROR ibv_create_cq(cqe=256) failed: Connection timed out
[1741043488.647360] [ohm:318643:0]        ib_iface.c:1059 UCX  ERROR ibv_create_cq(cqe=256) failed: Connection timed out
[1741043488.647987] [ohm:318659:0]        ib_iface.c:1059 UCX  ERROR ibv_create_cq(cqe=256) failed: Connection timed out
[1741043488.648574] [ohm:318645:0]        ib_iface.c:1059 UCX  ERROR ibv_create_cq(cqe=256) failed: Connection timed out
[1741043488.650057] [ohm:318647:0]        ib_iface.c:1059 UCX  ERROR ibv_create_cq(cqe=256) failed: Connection timed out
[1741043488.651665] [ohm:318651:0]        ib_iface.c:1059 UCX  ERROR ibv_create_cq(cqe=256) failed: Connection timed out
[1741043488.653169] [ohm:318629:0]        ib_iface.c:1059 UCX  ERROR ibv_create_cq(cqe=256) failed: Connection timed out
[1741043488.653156] [ohm:318638:0]        ib_iface.c:1059 UCX  ERROR ibv_create_cq(cqe=256) failed: Connection timed out
[1741043488.654072] [ohm:318633:0]        ib_iface.c:1059 UCX  ERROR ibv_create_cq(cqe=256) failed: Connection timed out
[1741043488.654072] [ohm:318639:0]        ib_iface.c:1059 UCX  ERROR ibv_create_cq(cqe=256) failed: Connection timed out
[1741043488.654107] [ohm:318642:0]        ib_iface.c:1059 UCX  ERROR ibv_create_cq(cqe=256) failed: Connection timed out
[1741043488.654116] [ohm:318674:0]        ib_iface.c:1059 UCX  ERROR ibv_create_cq(cqe=256) failed: Connection timed out
[1741043488.654170] [ohm:318649:0]        ib_iface.c:1059 UCX  ERROR ibv_create_cq(cqe=256) failed: Connection timed out
[1741043488.654508] [ohm:318627:0]        ib_iface.c:1059 UCX  ERROR ibv_create_cq(cqe=256) failed: Connection timed out
[1741043488.654541] [ohm:318625:0]        ib_iface.c:1059 UCX  ERROR ibv_create_cq(cqe=256) failed: Connection timed out

--------------------------------
SUGGESTED CITATIONS FOR THIS RUN
--------------------------------

Below you find a list of papers that are relevant to this ORCA run
We neither can nor want to force you to cite these papers, but we appreciate if you do
You receive ORCA, which is the product of decades of hard work by many enthusiastic individuals, for free
The only thing we kindly ask in return is that you cite our papers,
We deeply appreciate it, if you show your appreciation for ORCA by not just citing the generic ORCA reference.

Please note that relegating all ORCA citations to the supporting information does *not* help us.
SI sections are not indexed - citations you put there will not count into any citation statistics
But we need these citations in order to attract the funding resources that allow us to do what we are doing

Therefore, if you are a happy ORCA user, please consider citing a few of the papers listed below in the main body of your paper

In addition to the list printed below, the program has created the file orca.bibtex that contains the list in bibtex format
You can import this file easily into all common literature databanks and citation aid programs


List of essential papers. We consider these as the minimum necessary citations

  1. Neese,F.
     Software update: the ORCA program system, version 5.0
     WIRES Comput. Molec. Sci., 2022 12(1)e1606
     doi.org/10.1002/wcms.1606

List of papers to cite with high priority. The work reported in these papers was absolutely
necessary for this run to complete.
Our perspective: the developers of density functionals and basis sets usually get cited in chemistry papers
Good! But without the algorithms to do something with them, the functionals or basis sets would not do anything.
Hence, in our opinion, the algorithm design and method developments papers are equally worthy of getting cited

  1. Neese,F.; Olbrich,G.
     Efficient use of the resolution of the identity approximation in time-dependent density functional calculations with hybrid density functionals
     Chem. Phys. Lett., 2002 362 170-178
     doi.org/10.1016/s0009-2614(02)01053-9
  2. Neese,F.
     An improvement of the resolution of the identity approximation for the formation of the Coulomb matrix
     J. Comp. Chem., 2003 24(14)1740-1747
     doi.org/10.1002/jcc.10318
  3. Neese,F.; Wennmohs,F.; Hansen,A.; Becker,U.
     Efficient, approximate and parallel Hartree-Fock and hybrid DFT calculations. A 'chain-of-spheres' algorithm for the Hartree-Fock exchange
     Chem. Phys., 2009 356(1-3)98-109
     doi.org/10.1016/j.chemphys.2008.10.036
  4. Petrenko,T.; Kossmann,S.; Neese,F.
     Efficient time-dependent density functional theory approximations for hybrid density functionals: Analytical gradients and parallelization
     J. Chem. Phys., 2011 134 054116
     doi.org/10.1063/1.3533441
  5. Helmich-Paris,B.; de Souza,B.; Neese,F.; Izsák,R.
     An improved chain of spheres for exchange algorithm
     J. Chem. Phys., 2021 155 104109
     doi.org/doi: 10.1063/5.0058766.
  6. Neese,F.
     The SHARK Integral Generation and Digestion System
     J. Comp. Chem., 2022  1-16
     doi.org/10.1002/jcc.26942
  7. Lehtola,S.; Steigemann,C.; Oliveira,M.; Marques,M.
     Recent developments in Libxc - A comprehensive library of functionals for density functional theory
     Software X, 2018 7 
     doi.org/10.1016/j.softx.2017.11.002
  8. Grimme,S.; Antony,J.; Ehrlich,S.; Krieg,H.
     A consistent and accurate ab initio parametrization of density functional dispersion correction (DFT-D) for the 94 elements H-Pu
     J. Chem. Phys., 2010 132 154104-XXXX
     doi.org/10.1063/1.3382344
  9. Grimme,S.; Ehrlich,S.; Goerigk,L.
     Effect of the damping function in dispersion corrected density functional theory
     J. Comput. Chem., 2011 32(7)1456-1465
     doi.org/10.1002/jcc.21759

List of suggested additional citations. These are papers that are important in the 'surrounding' of 
of this run, or papers that preceded the highly important papers. If you like your results we are grateful for a citation.

  1. Izsak,R.; Neese,F.
     An overlap fitted chain of spheres exchange method
     J. Chem. Phys., 2011 135 144105
     doi.org/10.1063/1.3646921
  2. Izsak,R.; Hansen,A.; Neese,F.
     The resolution of identity and chain of spheres approximations for the LPNO-CCSD singles Fock term
     Molec. Phys., 2012 110 2413-2417
     doi.org/10.1080/00268976.2012.687466
  3. Neese,F.
     The ORCA program system
     WIRES Comput. Molec. Sci., 2012 2(1)73-78
     doi.org/10.1002/wcms.81
  4. Izsak,R.; Neese,F.; Klopper,W.
     Robust fitting techniques in the chain of spheres approximation to the Fock exchange: The role of the complementary space
     J. Chem. Phys., 2013 139 
     doi.org/10.1063/1.4819264
  5. Neese,F.
     Software update: the ORCA program system, version 4.0
     WIRES Comput. Molec. Sci., 2018 8(1)1-6
     doi.org/10.1002/wcms.1327
  6. Neese,F.; Wennmohs,F.; Becker,U.; Riplinger,C.
     The ORCA quantum chemistry program package
     J. Chem. Phys., 2020 152 Art. No. L224108
     doi.org/10.1063/5.0004608

List of optional additional citations

  1. Neese,F.
     Approximate second-order SCF convergence for spin unrestricted wavefunctions
     Chem. Phys. Lett., 2000 325(1-3)93-98
     doi.org/10.1016/s0009-2614(00)00662-x

Timings for individual modules:

Sum of individual times          ...       14.980 sec (=   0.250 min)
Startup calculation              ...        1.193 sec (=   0.020 min)   8.0 %
SCF iterations                   ...        5.653 sec (=   0.094 min)  37.7 %
Property integrals               ...        0.923 sec (=   0.015 min)   6.2 %
Property calculations            ...        0.938 sec (=   0.016 min)   6.3 %
CIS module                       ...        6.273 sec (=   0.105 min)  41.9 %
                             ****ORCA TERMINATED NORMALLY****
TOTAL RUN TIME: 0 days 0 hours 0 minutes 15 seconds 949 msec
