30
Properties=species:S:1:pos:R:3:momenta:R:3:forces:R:3 Coordinates=T from=T ORCA-job=T orca=T E=T -908.931592107915=T energy=-24728.57767187957 free_energy=-24728.57767187957 stress="1.77930224469131e-06 -1.8253155068760874e-07 -7.339699050023274e-07 -1.8253155068760874e-07 9.703424420088503e-07 -1.945451720725207e-06 -7.339699050023274e-07 -1.945451720725207e-06 -1.478496361828209e-06" pbc="F F F"
O        2.87650763       1.33007983       0.06978899      -0.10491806      -0.31058442       0.28007898       0.22655183      -0.26092023      -0.50962128
O       -0.77020784       0.32777298      -2.26850222       0.55997464      -0.44973694      -0.02279180       0.07927829       0.47706829       0.28690626
O        1.64043179      -2.75463524      -1.55623223       0.96788686      -0.02250046      -0.42598935      -0.26234031      -0.75176348      -0.12145857
O       -3.32785879      -1.12873282       1.17753669      -0.37360430       0.07093294       0.62223997       0.65646100      -0.32774962      -0.31672242
N        0.65133591      -1.92697906       0.35151922       0.67736030       0.40665936       0.85911100      -0.18655934      -2.81317033      -1.75074721
N       -2.08208654       0.72597930       1.49438367       0.05636140      -0.58977727      -0.33967553       1.64296620       1.09299756      -0.40734292
N        2.11953407      -0.61739125      -0.91119059      -0.34926600       0.96810937      -0.45192550      -0.75683297      -0.68989724       2.19759358
N       -2.33030062      -0.12668627      -0.66840757       0.22802588      -0.07512300      -0.94019275       0.93520979       0.09624040       1.39671339
C        1.57137791      -0.03428196       1.39061547       0.33043660       0.14951396       1.60855351      -0.95901044      -0.96034693      -1.12644610
C       -0.84816318       1.69967824      -0.31329950       1.06781458       0.19526727      -0.09646263       1.56756758       0.76879947      -0.32032940
C        0.67705162      -1.13020419       1.41288184      -0.99125258       0.26325938      -0.05431887      -0.34275553       0.60438015       1.26421022
C       -1.15245875       1.70143789       1.01589882      -1.14293451      -0.90464248      -1.24916565      -1.82334156      -1.03348489       0.72908399
C        1.62754470       0.91004542       2.46380801      -0.02693076      -0.19748092       0.20304247      -0.76363264       1.97651545       1.46926706
C        0.13969112       2.64641201      -0.90568248      -0.35231930      -0.25173962      -0.01031562      -0.40546279       0.44003835       0.12669553
C        2.25885773       0.26457596       0.17398968      -0.53584858       0.04648410      -0.25905987       0.02154149       0.68083533      -0.13725513
C       -1.21667306       0.63191543      -1.17222158      -0.26683384       1.10732060      -0.02555368      -1.88327275      -1.99395019      -0.64335610
C        1.48815206      -1.88751661      -0.75334421      -0.19641620      -0.79205955       0.48448868       0.80079092       2.24554829      -0.60357803
C       -2.54175769      -0.31578052       0.71698089       0.60652146       0.48145417      -0.42799748      -1.65668904       1.01328814      -0.31993719
H       -0.06746265      -1.37205003       2.18049943      -0.07092588       0.18943305       0.06195211       0.55184232       0.40211196      -0.12342781
H       -0.87557229       2.44482529       1.74152661      -0.14642430       0.22359073       0.05711482       0.15961762       0.09217128      -0.19107927
H        1.79852776       1.98884358       2.11325065       0.19137756      -0.22964346      -0.18144215      -0.18259225      -1.33191074       0.25970223
H        0.64670394       0.90068204       3.06113267       0.10024062       0.16434997       0.15824543       1.32967966      -0.07921804      -0.48544901
H        2.48147476       0.68696584       3.10189598       0.10566418      -0.18082072       0.19414479      -0.10897875       0.08566809       0.30946861
H        0.61029130       2.15298854      -1.74952473      -0.31943620       0.03881900       0.13587536      -0.00064564       0.35507596      -0.24628332
H       -0.32426031       3.62835271      -1.17260103      -0.14977059       0.02940634       0.08877725       0.31992178      -0.67800450       0.00619490
H        0.89832673       2.81645546      -0.17071948      -0.02710310       0.02140653       0.28118612       0.46116419       0.37216006       0.23133812
H        0.21379272      -2.87233968       0.35747946       0.17095519      -0.18601927      -0.06590797       0.11428791       0.95501035       0.34254693
H       -2.35502079       0.81924835       2.45699801      -0.00579906      -0.14626284      -0.18647272      -0.19374941      -0.47009942      -0.07458028
H        2.50533996      -0.29966714      -1.75195744      -0.01163155       0.15169518      -0.22631748       0.39301964      -0.11250694      -1.00504878
H       -2.78906050      -0.80859202      -1.24182324       0.00879554      -0.17131098      -0.07122147       0.26596317      -0.15488660      -0.23705800
