30
Properties=species:S:1:pos:R:3:momenta:R:3:forces:R:3 Coordinates=T from=T ORCA-job=T orca=T E=T -908.748819972294=T energy=-24725.99426068871 free_energy=-24725.99426068871 stress="1.8043474775724388e-06 -1.1616715804002568e-06 -4.132083974728364e-07 -1.1616715804002568e-06 7.66212975358389e-07 -1.2968647830558535e-07 -4.132083974728364e-07 -1.2968647830558535e-07 -9.580624367938862e-07" pbc="F F F"
O        2.51410315      -0.25331928      -1.22257220      -0.46048597       0.13412697      -0.04749342      -0.05100543       0.14851339      -0.24453960
O       -0.28651172       2.67095238      -2.06369591       0.50391195      -0.14741394      -0.49486694       0.09243670       0.26004146       0.08070647
O        0.36027144      -3.70734559       0.61544171      -0.38209642       0.37482423       0.23123813      -0.81180520      -1.80667700      -0.40120156
O       -1.97257111      -1.41521406      -1.33144316       0.23429605      -1.06446942       0.11495099       0.04711259       0.38354743       0.49182004
N        0.78584821      -2.04088554       1.94536443       0.27212954      -0.21387972      -0.33805353       0.02346393       1.94399236       1.99935636
N       -1.28311787      -0.32565820       0.57742070       0.01585772      -0.20900959      -0.98256805      -0.97899026      -1.34305965      -0.70767949
N        1.23651719      -1.93905740      -0.30019304      -0.99521500       0.36278004       0.01094357       0.66807290       1.30949129      -1.90786749
N       -1.43439114       0.79954759      -1.51001835       0.59757391      -0.13839033       0.16383455       0.51610168      -0.32570181       1.43246605
C        1.31924574       0.14049389       0.86723820       0.20752727      -0.53715415      -0.53511618      -0.13173204       0.92592867      -1.12677077
C       -1.32959277       2.72522132       0.07312604       0.74583422       0.58234763       0.35734013       0.46224170       0.24133356      -1.42008255
C        0.84281567      -0.64083908       2.04350069       0.29569027       0.58767937       0.28038126      -1.05691232       1.49486166      -0.46445401
C       -0.22200487       0.24158235       1.24803442       0.18913181       0.32165363      -0.03619339       2.07111916       1.13602621       1.37488863
C        2.12131034       1.43450707       1.08288841      -0.40294180      -0.00606826       1.29035026       0.48774851      -2.15203226       1.01757913
C       -1.41163207       4.18958001       0.22622222       0.05292876       0.33108305      -0.30720535      -0.20303190       1.08100748       1.11957814
C        1.75995691      -0.63604739      -0.37576022      -0.61733026      -0.42325589      -0.39155197      -0.89621766      -0.59370424       1.71561430
C       -0.88227885       2.06226522      -1.20944055      -0.39614065      -0.28990538      -0.26950029      -1.10191790       0.01936370       1.47674120
C        0.70518373      -2.57189151       0.74573576       0.65445666       0.25747689      -0.04474641       0.19063078      -2.11445604       0.25253711
C       -1.57535350      -0.41388464      -0.77449033      -0.01833508       0.70552386       0.64530028       0.25781772       1.28853503      -1.01353557
H        1.01271878      -0.20237316       3.01260910       0.05705194      -0.07537876       0.11344926       0.31318577      -0.26822450       0.07186923
H       -0.39858223       1.22575234       1.76455258       0.01785980      -0.00063119       0.25215771       0.03712288      -1.04588719      -0.64441844
H        2.08692788       2.10439480       0.29069502      -0.06240718      -0.25629539      -0.03964801      -0.52705854       0.88694206      -1.26904213
H        1.71300972       1.85523934       1.98162197      -0.02366258       0.11550534       0.02274892       0.25030558       0.56078805       0.32433025
H        3.20038647       1.17833532       1.18161863      -0.27501648      -0.33504045      -0.18291870      -0.65789721       0.09543542       0.27105688
H       -2.07016386       4.62628566       1.04894813       0.25144894      -0.00833240       0.21259888       0.72039245      -1.14059715      -0.29846633
H       -0.41340450       4.64379345       0.37902149      -0.32045009       0.05726405      -0.18507817      -0.13799729      -0.30523307       0.09951485
H       -1.81343756       4.76999266      -0.60717690      -0.08675208       0.03005056      -0.10780928       0.02013601      -0.69076556      -0.71138680
H        0.60485446      -2.59185070       2.77730944      -0.10259726       0.03796760      -0.08485778      -0.16254816      -0.00750501      -0.52783147
H       -1.74813349      -1.14107158       0.96201192      -0.19186521       0.11006619       0.12189177       0.39031202       0.10868232       0.51584311
H        1.27939321      -2.58498401      -1.07519681       0.06906868      -0.14507166       0.10707927       0.15733731       0.39181048      -0.30019525
H       -1.48128977       0.69620000      -2.47653763       0.17052854      -0.15805288       0.12334248       0.01157621      -0.48245709      -1.20643030
