
                                 *****************
                                 * O   R   C   A *
                                 *****************

                                            #,                                       
                                            ###                                      
                                            ####                                     
                                            #####                                    
                                            ######                                   
                                           ########,                                 
                                     ,,################,,,,,                         
                               ,,#################################,,                 
                          ,,##########################################,,             
                       ,#########################################, ''#####,          
                    ,#############################################,,   '####,        
                  ,##################################################,,,,####,       
                ,###########''''           ''''###############################       
              ,#####''   ,,,,##########,,,,          '''####'''          '####       
            ,##' ,,,,###########################,,,                        '##       
           ' ,,###''''                  '''############,,,                           
         ,,##''                                '''############,,,,        ,,,,,,###''
      ,#''                                            '''#######################'''  
     '                                                          ''''####''''         
             ,#######,   #######,   ,#######,      ##                                
            ,#'     '#,  ##    ##  ,#'     '#,    #''#        ,####,   ,####,        
            ##       ##  ##   ,#'  ##            #'  '#       #'       #'  '#        
            ##       ##  #######   ##           ,######,      #####,   #    #        
            '#,     ,#'  ##    ##  '#,     ,#' ,#      #,     #,   #   #,  ,#        
             '#######'   ##     ##  '#######'  #'      '#     '####' # '####'        



                #########################################################
                #                        -***-                          #
                #          Department of theory and spectroscopy        #
                #                                                       #
                #                      Frank Neese                      #
                #                                                       #
                #     Directorship, Architecture, Infrastructure        #
                #                    SHARK, DRIVERS                     #
                #        Core code/Algorithms in most modules           #
                #                                                       #
                #        Max Planck Institute fuer Kohlenforschung      #
                #                Kaiser Wilhelm Platz 1                 #
                #                 D-45470 Muelheim/Ruhr                 #
                #                      Germany                          #
                #                                                       #
                #                  All rights reserved                  #
                #                        -***-                          #
                #########################################################


                         Program Version 6.0.0  -   RELEASE  -


 With contributions from (in alphabetic order):
   Daniel Aravena         : Magnetic Suceptibility
   Michael Atanasov       : Ab Initio Ligand Field Theory (pilot matlab implementation)
   Alexander A. Auer      : GIAO ZORA, VPT2 properties, NMR spectrum
   Ute Becker             : All parallelization in ORCA, NUMFREQ, NUMCALC
   Giovanni Bistoni       : ED, misc. LED, open-shell LED, HFLD
   Martin Brehm           : Molecular dynamics
   Dmytro Bykov           : pre 5.0 version of the SCF Hessian
   Marcos Casanova-Páez   : Triplet and SCS-CIS(D). UHF-(DLPNO)-IP/EA/STEOM-CCSD. UHF-CVS-IP/STEOM-CCSD
   Vijay G. Chilkuri      : MRCI spin determinant printing, contributions to CSF-ICE
   Pauline Colinet        : FMM embedding
   Dipayan Datta          : RHF DLPNO-CCSD density
   Achintya Kumar Dutta   : EOM-CC, STEOM-CC
   Nicolas Foglia         : Exact transition moments, OPA infrastructure, MCD improvements
   Dmitry Ganyushin       : Spin-Orbit,Spin-Spin,Magnetic field MRCI
   Miquel Garcia          : C-PCM and meta-GGA Hessian, CCSD/C-PCM, Gaussian charge scheme
   Tiago L. C. Gouveia    : GS-ROHF, GS-ROCIS
   Yang Guo               : DLPNO-NEVPT2, F12-NEVPT2, CIM, IAO-localization
   Andreas Hansen         : Spin unrestricted coupled pair/coupled cluster methods
   Ingolf Harden          : AUTO-CI MPn and infrastructure 
   Benjamin Helmich-Paris : MC-RPA, TRAH-(SCF,CASSCF), AVAS, COSX integrals, SCF dyn. polar.
   Lee Huntington         : MR-EOM, pCC
   Robert Izsak           : Overlap fitted RIJCOSX, COSX-SCS-MP3, EOM
   Riya Kayal             : Wick's Theorem for AUTO-CI, AUTO-CI UHF-CCSDT
   Emily Kempfer          : AUTO-CI, RHF CISDT and CCSDT
   Christian Kollmar      : KDIIS, OOCD, Brueckner-CCSD(T), CCSD density, CASPT2, CASPT2-K, improved NEVPT2
   Axel Koslowski         : Symmetry handling
   Simone Kossmann        : Meta GGA functionals, TD-DFT gradient, OOMP2, (MP2 Hessian; deprecated post 5.0)
   Lucas Lang             : DCDCAS
   Marvin Lechner         : AUTO-CI (C++ implementation), FIC-MRCC
   Spencer Leger          : CASSCF response
   Dagmar Lenk            : GEPOL surface, SMD, ORCA-2-JSON
   Dimitrios Liakos       : Extrapolation schemes; Compound Job, initial MDCI parallelization
   Dimitrios Manganas     : Further ROCIS development; embedding schemes. LFT, Crystal Embedding
   Dimitrios Pantazis     : SARC Basis sets
   Anastasios Papadopoulos: AUTO-CI, single reference methods and gradients
   Taras Petrenko         : pre 6.0 DFT Hessian and TD-DFT gradient, (ASA, deprecated), ECA, 1-Electron XAS/XES, NRVS
   Peter Pinski           : DLPNO-MP2, DLPNO-MP2 Gradient
   Christoph Reimann      : Effective Core Potentials
   Marius Retegan         : Local ZFS, SOC
   Christoph Riplinger    : Optimizer, TS searches, QM/MM, DLPNO-CCSD(T), (RO)-DLPNO pert. Triples
   Michael Roemelt        : Original ROCIS implementation
   Masaaki Saitow         : Open-shell DLPNO-CCSD energy and density
   Barbara Sandhoefer     : DKH picture change effects
   Kantharuban Sivalingam : CASSCF convergence/infrastructure, NEVPT2 and variants, FIC-MRCI
   Bernardo de Souza      : ESD, SOC TD-DFT
   Georgi Stoychev        : AutoAux, RI-MP2 NMR, DLPNO-MP2 response, X2C
   Van Anh Tran           : RI-MP2 g-tensors
   Willem Van den Heuvel  : Paramagnetic NMR
   Zikuan Wang            : NOTCH, Electric field optimization 
   Frank Wennmohs         : Technical directorship and infrastructure
   Hang Xu                : AUTO-CI-Response properties 


 We gratefully acknowledge several colleagues who have allowed us to
 interface, adapt or use parts of their codes:
   Stefan Grimme, W. Hujo, H. Kruse, P. Pracht,  : VdW corrections, initial TS optimization,
                  C. Bannwarth, S. Ehlert,         DFT functionals, gCP, sTDA/sTD-DF
                  L. Wittmann, M. Mueller
   Ed Valeev, F. Pavosevic, A. Kumar             : LibInt (2-el integral package), F12 methods
   Garnet Chan, S. Sharma, J. Yang, R. Olivares  : DMRG
   Ulf Ekstrom                                   : XCFun DFT Library
   Mihaly Kallay                                 : mrcc  (arbitrary order and MRCC methods)
   Frank Weinhold                                : gennbo (NPA and NBO analysis)
   Simon Mueller                                 : openCOSMO-RS
   Christopher J. Cramer and Donald G. Truhlar   : smd solvation model
   Lars Goerigk                                  : TD-DFT with DH, B97 family of functionals
   V. Asgeirsson, H. Jonsson                     : NEB implementation
   FAccTs GmbH                                   : IRC, NEB, NEB-TS, DLPNO-Multilevel, CI-OPT
                                                   MM, QMMM, 2- and 3-layer-ONIOM, Crystal-QMMM,
                                                   LR-CPCM, SF, NACMEs, symmetry and pop. for TD-DFT,
                                                   nearIR, NL-DFT gradient (VV10), updates on ESD,
                                                   ML-optimized integration grids, MBIS, APM,
                                                   GOAT, DOCKER, SOLVATOR, interface openCOSMO-RS
   S Lehtola, MJT Oliveira, MAL Marques          : LibXC Library
   Liviu Ungur et al                             : ANISO software


 Your calculation uses the libint2 library for the computation of 2-el integrals
 For citations please refer to: http://libint.valeyev.net

 Your ORCA version has been built with support for libXC version: 6.2.2
 For citations please refer to: https://libxc.gitlab.io

 This ORCA versions uses:
   CBLAS   interface :  Fast vector & matrix operations
   LAPACKE interface :  Fast linear algebra routines
   SCALAPACK package :  Parallel linear algebra routines
   Shared memory     :  Shared parallel matrices
   BLAS/LAPACK       :  OpenBLAS 0.3.27  USE64BITINT DYNAMIC_ARCH NO_AFFINITY Zen SINGLE_THREADED
        Core in use  :  Zen
   Copyright (c) 2011-2014, The OpenBLAS Project


Your calculation utilizes the atom-pairwise dispersion correction
with the Becke-Johnson damping scheme (D3BJ)


Warning: RI is on but no J-basis has been assigned. Assigning Def2/J (nothing to worry about!)
================================================================================

----- Orbital basis set information -----
Your calculation utilizes the basis: def2-TZVPPD
   F. Weigend and R. Ahlrichs, Phys. Chem. Chem. Phys. 7, 3297 (2005).
   D. Rappoport and F. Furche, J. Chem. Phys. 133, 134105 (2010)
   D. Rappoport, J. Chem. Phys. 155, 124102 (2021).

----- AuxJ basis set information -----
Your calculation utilizes the auxiliary basis: def2/J
   F. Weigend, Phys. Chem. Chem. Phys. 8, 1057 (2006).

================================================================================
                                        WARNINGS
                       Please study these warnings very carefully!
================================================================================

Using LibXC functional ID 531 : wB97M-V exchange-correlation functional
[ 1]  N. Mardirossian and M. Head-Gordon.,  J. Chem. Phys. 144, 214110 (2016)
Using LibXC functional ID 531 : wB97M-V exchange-correlation functional
[ 1]  N. Mardirossian and M. Head-Gordon.,  J. Chem. Phys. 144, 214110 (2016)

WARNING: B97M-V or wB97M-V functional requested.
  ===> : libXC variant has now been activated.
         Any manually given DFX/HFX/RangeSep scaling parameters are IGNORED!

Your calculation utilizes LibXC
 by S Lehtola, C Steigemann, MJT Oliveira & MAL Marques
Please cite in your paper:
 S Lehtola, C Steigemann, MJT Oliveira & MAL Marques, SoftwareX, 7, (2018), 1.
   


WARNING: your system is open-shell and RHF/RKS was chosen
  ===> : WILL SWITCH to UHF/UKS

INFO   : Checking CIS options ...

WARNING: CIS/ROCIS methods need fully converged wavefunctions
  ===> : Setting SCFConvForced true
         You can overwrite this default with %scf ConvForced false 


================================================================================
                                       INPUT FILE
================================================================================
NAME = orca.inp
|  1> ! EnGrad wB97M-D3BJ def2-TZVPPD 
|  2> %pal nprocs 8 end%pal nprocs 16 end 
|  3> %tddft 
|  4>  sf true 
|  5>  nroots 2 Iroot 1 end 
|  6> *xyz 0 3 
|  7> O   -0.05051878786533 0.76085237494352 -3.568280191e-05
|  8> C   0.76259643788566 -0.47508603547787 -8.5480742e-06
|  9> C   -0.73719671647828 -0.39588164692683 1.815222596e-05
| 10> H   1.28269492694698 -0.65312897820892 0.92796189241092
| 11> H   1.28270952469442 -0.65320117736239 -0.92795496371465
| 12> H   -1.26901526596127 -0.65100992718189 -0.91327523962103
| 13> H   -1.26907011922216 -0.65094460978562 0.91329438957491
| 14> *
| 15> 
| 16>                          ****END OF INPUT****
================================================================================

                     *******************************
                     * Energy+Gradient Calculation *
                     *******************************

---------------------------------
CARTESIAN COORDINATES (ANGSTROEM)
---------------------------------
  O     -0.050519    0.760852   -0.000036
  C      0.762596   -0.475086   -0.000009
  C     -0.737197   -0.395882    0.000018
  H      1.282695   -0.653129    0.927962
  H      1.282710   -0.653201   -0.927955
  H     -1.269015   -0.651010   -0.913275
  H     -1.269070   -0.650945    0.913294

----------------------------
CARTESIAN COORDINATES (A.U.)
----------------------------
  NO LB      ZA    FRAG     MASS         X           Y           Z
   0 O     8.0000    0    15.999   -0.095467    1.437803   -0.000067
   1 C     6.0000    0    12.011    1.441098   -0.897782   -0.000016
   2 C     6.0000    0    12.011   -1.393100   -0.748108    0.000034
   3 H     1.0000    0     1.008    2.423942   -1.234235    1.753594
   4 H     1.0000    0     1.008    2.423970   -1.234371   -1.753581
   5 H     1.0000    0     1.008   -2.398091   -1.230230   -1.725840
   6 H     1.0000    0     1.008   -2.398195   -1.230107    1.725876

--------------------------------
INTERNAL COORDINATES (ANGSTROEM)
--------------------------------
 O      0   0   0     0.000000000000     0.00000000     0.00000000
 C      1   0   0     1.479425606592     0.00000000     0.00000000
 C      1   2   0     1.345198936178    64.03549317     0.00000000
 H      2   1   3     1.078578168792   113.76263240   250.06238200
 H      2   1   3     1.078576458643   113.76466324   109.94035553
 H      3   1   2     1.087210296379   116.83686007   250.29649380
 H      3   1   2     1.087207393865   116.83959135   109.70900235

---------------------------
INTERNAL COORDINATES (A.U.)
---------------------------
 O      0   0   0     0.000000000000     0.00000000     0.00000000
 C      1   0   0     2.795709231969     0.00000000     0.00000000
 C      1   2   0     2.542057585019    64.03549317     0.00000000
 H      2   1   3     2.038217353043   113.76263240   250.06238200
 H      2   1   3     2.038214121329   113.76466324   109.94035553
 H      3   1   2     2.054529710135   116.83686007   250.29649380
 H      3   1   2     2.054524225179   116.83959135   109.70900235

---------------------
BASIS SET INFORMATION
---------------------
There are 3 groups of distinct atoms

 Group   1 Type O   : 12s7p3d1f contracted to 6s4p3d1f pattern {621111/4111/111/1}
 Group   2 Type C   : 12s6p3d1f contracted to 6s3p3d1f pattern {621111/411/111/1}
 Group   3 Type H   : 5s3p1d contracted to 3s3p1d pattern {311/111/1}

Atom   0O    basis set group =>   1
Atom   1C    basis set group =>   2
Atom   2C    basis set group =>   2
Atom   3H    basis set group =>   3
Atom   4H    basis set group =>   3
Atom   5H    basis set group =>   3
Atom   6H    basis set group =>   3
---------------------------------
AUXILIARY/J BASIS SET INFORMATION
---------------------------------
There are 3 groups of distinct atoms

 Group   1 Type O   : 12s5p4d2f1g contracted to 6s4p3d1f1g pattern {711111/2111/211/2/1}
 Group   2 Type C   : 12s5p4d2f1g contracted to 6s4p3d1f1g pattern {711111/2111/211/2/1}
 Group   3 Type H   : 5s2p1d contracted to 3s1p1d pattern {311/2/1}

Atom   0O    basis set group =>   1
Atom   1C    basis set group =>   2
Atom   2C    basis set group =>   2
Atom   3H    basis set group =>   3
Atom   4H    basis set group =>   3
Atom   5H    basis set group =>   3
Atom   6H    basis set group =>   3
[1740996071.629264] [ohm:3117496:0]        ib_iface.c:1059 UCX  ERROR ibv_create_cq(cqe=256) failed: Connection timed out
[1740996071.635213] [ohm:3117494:0]        ib_iface.c:1059 UCX  ERROR ibv_create_cq(cqe=256) failed: Connection timed out
[1740996071.635340] [ohm:3117492:0]        ib_iface.c:1059 UCX  ERROR ibv_create_cq(cqe=256) failed: Connection timed out
[1740996071.647012] [ohm:3117497:0]        ib_iface.c:1059 UCX  ERROR ibv_create_cq(cqe=256) failed: Connection timed out
[1740996071.647135] [ohm:3117495:0]        ib_iface.c:1059 UCX  ERROR ibv_create_cq(cqe=256) failed: Connection timed out
[1740996071.648142] [ohm:3117491:0]        ib_iface.c:1059 UCX  ERROR ibv_create_cq(cqe=256) failed: Connection timed out
[1740996071.648317] [ohm:3117493:0]        ib_iface.c:1059 UCX  ERROR ibv_create_cq(cqe=256) failed: Connection timed out
[1740996071.654575] [ohm:3117501:0]        ib_iface.c:1059 UCX  ERROR ibv_create_cq(cqe=256) failed: Connection timed out
[1740996071.658651] [ohm:3117511:0]        ib_iface.c:1059 UCX  ERROR ibv_create_cq(cqe=256) failed: Connection timed out
[1740996071.659708] [ohm:3117499:0]        ib_iface.c:1059 UCX  ERROR ibv_create_cq(cqe=256) failed: Connection timed out
[1740996071.661215] [ohm:3117498:0]        ib_iface.c:1059 UCX  ERROR ibv_create_cq(cqe=256) failed: Connection timed out
[1740996071.664471] [ohm:3117504:0]        ib_iface.c:1059 UCX  ERROR ibv_create_cq(cqe=256) failed: Connection timed out
[1740996071.665804] [ohm:3117503:0]        ib_iface.c:1059 UCX  ERROR ibv_create_cq(cqe=256) failed: Connection timed out
[1740996071.678323] [ohm:3117519:0]        ib_iface.c:1059 UCX  ERROR ibv_create_cq(cqe=256) failed: Connection timed out
[1740996071.678968] [ohm:3117516:0]        ib_iface.c:1059 UCX  ERROR ibv_create_cq(cqe=256) failed: Connection timed out
[1740996071.679102] [ohm:3117506:0]        ib_iface.c:1059 UCX  ERROR ibv_create_cq(cqe=256) failed: Connection timed out


           ************************************************************
           *        Program running with 16 parallel MPI-processes    *
           *              working on a common directory               *
           ************************************************************
------------------------------------------------------------------------------
                             ORCA STARTUP CALCULATIONS
                           -- RI-GTO INTEGRALS CHOSEN --
------------------------------------------------------------------------------
------------------------------------------------------------------------------
                   ___                                                        
                  /   \      - P O W E R E D   B Y -                         
                 /     \                                                     
                 |  |  |   _    _      __       _____    __    __             
                 |  |  |  | |  | |    /  \     |  _  \  |  |  /  |          
                  \  \/   | |  | |   /    \    | | | |  |  | /  /          
                 / \  \   | |__| |  /  /\  \   | |_| |  |  |/  /          
                |  |  |   |  __  | /  /__\  \  |    /   |      \           
                |  |  |   | |  | | |   __   |  |    \   |  |\   \          
                \     /   | |  | | |  |  |  |  | |\  \  |  | \   \       
                 \___/    |_|  |_| |__|  |__|  |_| \__\ |__|  \__/        
                                                                              
                      - O R C A' S   B I G   F R I E N D -                    
                                      &                                       
                       - I N T E G R A L  F E E D E R -                       
                                                                              
 v1 FN, 2020, v2 2021, v3 2022-2024                                           
------------------------------------------------------------------------------


----------------------
SHARK INTEGRAL PACKAGE
----------------------

Number of atoms                             ...      7
Number of basis functions                   ...    182
Number of shells                            ...     68
Maximum angular momentum                    ...      3
Integral batch strategy                     ... SHARK/LIBINT Hybrid
RI-J (if used) integral strategy            ... SPLIT-RIJ (Revised 2003 algorithm where possible)
Printlevel                                  ...      1
Contraction scheme used                     ... SEGMENTED contraction
Prescreening option                         ... SCHWARTZ
   Thresh                                   ... 2.500e-11
   Tcut                                     ... 2.500e-12
   Tpresel                                  ... 2.500e-12 
Coulomb Range Separation                    ... NOT USED
Exchange Range Separation                   ... Long Range
   Mu parameter                             ... 3.000e-01
   Scaling (regular/separated)              ... 1.500e-01 8.500e-01
Multipole approximations                    ... NOT USED
Finite Nucleus Model                        ... NOT USED
CABS basis                                  ... NOT available
Auxiliary Coulomb fitting basis             ... AVAILABLE
   # of basis functions in Aux-J            ...    191
   # of shells in Aux-J                     ...     65
   Maximum angular momentum in Aux-J        ...      4
Auxiliary J/K fitting basis                 ... NOT available
Auxiliary Correlation fitting basis         ... NOT available
Auxiliary 'external' fitting basis          ... NOT available

Checking pre-screening integrals            ... done (  0.0 sec) Dimension = 68
Check shell pair data                       ... done (  0.0 sec)
Shell pair information
Shell pair cut-off parameter TPreSel        ...   2.5e-12
Total number of shell pairs                 ...      2346
Shell pairs after pre-screening             ...      2342
Total number of primitive shell pairs       ...      5434
Primitive shell pairs kept                  ...      4920
          la=0 lb=0:    461 shell pairs
          la=1 lb=0:    660 shell pairs
          la=1 lb=1:    253 shell pairs
          la=2 lb=0:    390 shell pairs
          la=2 lb=1:    286 shell pairs
          la=2 lb=2:     91 shell pairs
          la=3 lb=0:     90 shell pairs
          la=3 lb=1:     66 shell pairs
          la=3 lb=2:     39 shell pairs
          la=3 lb=3:      6 shell pairs

Calculating one electron integrals          ... done (  0.0 sec)
Calculating RI/J V-Matrix + Cholesky decomp.... done (  0.0 sec)
Calculating Nuclear repulsion               ... done (  0.0 sec) ENN=     75.478574516023 Eh

Diagonalization of the overlap matrix:
Smallest eigenvalue                        ... 1.258e-05
Time for diagonalization                   ...    0.003 sec
Threshold for overlap eigenvalues          ... 1.000e-07
Number of eigenvalues below threshold      ... 0
Time for construction of square roots      ...    0.002 sec
Total time needed                          ...    0.005 sec

-------------------
DFT GRID GENERATION
-------------------

General Integration Accuracy     IntAcc      ... 4.388
Radial Grid Type                 RadialGrid  ... OptM3 with GC (2021)
Angular Grid (max. ang.)         AngularGrid ... 4 (Lebedev-302)
Angular grid pruning method      GridPruning ... 4 (adaptive)
Weight generation scheme         WeightScheme... mBecke (2022)
Basis function cutoff            BFCut       ... 1.0000e-11
Integration weight cutoff        WCut        ... 1.0000e-14
Partially contracted basis set               ... off
Rotationally invariant grid construction     ... off
Angular grids for H and He will be reduced by one unit
Diffuse basis detected: some atoms will have their outermost
                        angular grid increased by 1.

Total number of grid points                  ...    33070
Total number of batches                      ...      520
Average number of points per batch           ...       63
Average number of grid points per atom       ...     4724

--------------------
COSX GRID GENERATION
--------------------

GRIDX 1
-------
General Integration Accuracy     IntAcc      ... 3.816
Radial Grid Type                 RadialGrid  ... OptM3 with GC (2021)
Angular Grid (max. ang.)         AngularGrid ... 1 (Lebedev-50)
Angular grid pruning method      GridPruning ... 4 (adaptive)
Weight generation scheme         WeightScheme... mBecke (2022)
Basis function cutoff            BFCut       ... 1.0000e-11
Integration weight cutoff        WCut        ... 1.0000e-14
Partially contracted basis set               ... on
Rotationally invariant grid construction     ... off
Angular grids for H and He will be reduced by one unit
Diffuse basis detected: some atoms will have their outermost
                        angular grid increased by 1.

Total number of grid points                  ...     4165
Total number of batches                      ...       37
Average number of points per batch           ...      112
Average number of grid points per atom       ...      595
UseSFitting                                  ... on

GRIDX 2
-------
General Integration Accuracy     IntAcc      ... 4.020
Radial Grid Type                 RadialGrid  ... OptM3 with GC (2021)
Angular Grid (max. ang.)         AngularGrid ... 2 (Lebedev-110)
Angular grid pruning method      GridPruning ... 4 (adaptive)
Weight generation scheme         WeightScheme... mBecke (2022)
Basis function cutoff            BFCut       ... 1.0000e-11
Integration weight cutoff        WCut        ... 1.0000e-14
Partially contracted basis set               ... on
Rotationally invariant grid construction     ... off
Angular grids for H and He will be reduced by one unit
Diffuse basis detected: some atoms will have their outermost
                        angular grid increased by 1.

Total number of grid points                  ...    10270
Total number of batches                      ...       84
Average number of points per batch           ...      122
Average number of grid points per atom       ...     1467
UseSFitting                                  ... on

GRIDX 3
-------
General Integration Accuracy     IntAcc      ... 4.338
Radial Grid Type                 RadialGrid  ... OptM3 with GC (2021)
Angular Grid (max. ang.)         AngularGrid ... 3 (Lebedev-194)
Angular grid pruning method      GridPruning ... 4 (adaptive)
Weight generation scheme         WeightScheme... mBecke (2022)
Basis function cutoff            BFCut       ... 1.0000e-11
Integration weight cutoff        WCut        ... 1.0000e-14
Partially contracted basis set               ... on
Rotationally invariant grid construction     ... off
Angular grids for H and He will be reduced by one unit
Diffuse basis detected: some atoms will have their outermost
                        angular grid increased by 1.

Total number of grid points                  ...    23031
Total number of batches                      ...      185
Average number of points per batch           ...      124
Average number of grid points per atom       ...     3290
UseSFitting                                  ... on
Initializing property integral containers    ... done (  0.0 sec)

SHARK setup successfully completed in   0.4 seconds

Maximum memory used throughout the entire STARTUP-calculation: 13.8 MB
[1740996072.647503] [ohm:3117580:0]        ib_iface.c:1059 UCX  ERROR ibv_create_cq(cqe=256) failed: Connection timed out
[1740996072.647602] [ohm:3117578:0]        ib_iface.c:1059 UCX  ERROR ibv_create_cq(cqe=256) failed: Connection timed out
[1740996072.649498] [ohm:3117576:0]        ib_iface.c:1059 UCX  ERROR ibv_create_cq(cqe=256) failed: Connection timed out
[1740996072.659824] [ohm:3117582:0]        ib_iface.c:1059 UCX  ERROR ibv_create_cq(cqe=256) failed: Connection timed out
[1740996072.677769] [ohm:3117579:0]        ib_iface.c:1059 UCX  ERROR ibv_create_cq(cqe=256) failed: Connection timed out
[1740996072.677777] [ohm:3117575:0]        ib_iface.c:1059 UCX  ERROR ibv_create_cq(cqe=256) failed: Connection timed out
[1740996072.678010] [ohm:3117583:0]        ib_iface.c:1059 UCX  ERROR ibv_create_cq(cqe=256) failed: Connection timed out
[1740996072.681033] [ohm:3117585:0]        ib_iface.c:1059 UCX  ERROR ibv_create_cq(cqe=256) failed: Connection timed out
[1740996072.682421] [ohm:3117588:0]        ib_iface.c:1059 UCX  ERROR ibv_create_cq(cqe=256) failed: Connection timed out
[1740996072.684769] [ohm:3117587:0]        ib_iface.c:1059 UCX  ERROR ibv_create_cq(cqe=256) failed: Connection timed out
[1740996072.685152] [ohm:3117577:0]        ib_iface.c:1059 UCX  ERROR ibv_create_cq(cqe=256) failed: Connection timed out
[1740996072.685149] [ohm:3117581:0]        ib_iface.c:1059 UCX  ERROR ibv_create_cq(cqe=256) failed: Connection timed out
[1740996072.694867] [ohm:3117605:0]        ib_iface.c:1059 UCX  ERROR ibv_create_cq(cqe=256) failed: Connection timed out
[1740996072.694916] [ohm:3117598:0]        ib_iface.c:1059 UCX  ERROR ibv_create_cq(cqe=256) failed: Connection timed out
[1740996072.696523] [ohm:3117591:0]        ib_iface.c:1059 UCX  ERROR ibv_create_cq(cqe=256) failed: Connection timed out
[1740996072.736721] [ohm:3117602:0]        ib_iface.c:1059 UCX  ERROR ibv_create_cq(cqe=256) failed: Connection timed out


           ************************************************************
           *        Program running with 16 parallel MPI-processes    *
           *              working on a common directory               *
           ************************************************************
-------------------------------------------------------------------------------
                                 ORCA GUESS
                   Start orbitals & Density for SCF / CASSCF
-------------------------------------------------------------------------------

------------
SCF SETTINGS
------------
Hamiltonian:
 Density Functional     Method          .... DFT(GTOs)
  Functional kind                       .... Exchange-Correlation
  Functional name                       .... wB97M-V exchange-correlation functional
  Functional family                     .... Hybrid MGGA
  Functional refs                              
    [ 0] N. Mardirossian and M. Head-Gordon.,  J. Chem. Phys. 144, 214110 (2016), doi: 10.1063/1.4952647
  Fraction of HF Exchange (short range) .... 0.1500
  Fraction of HF Exchange (long range)  .... 1.0000
  Range separation parameter mu         .... 0.3000
  Functional external parameters        .... 17
    Parameter  0 _cx00      =  8.500000e-01 : u^00 coefficient for exchange
    Parameter  1 _cx01      =  1.007000e+00 : u^01 coefficient for exchange
    Parameter  2 _cx10      =  2.590000e-01 : u^10 coefficient for exchange
    Parameter  3 _css00     =  4.430000e-01 : u^00 coefficient for same-spin correlation
    Parameter  4 _css04     = -1.437000e+00 : u^04 coefficient for same-spin correlation
    Parameter  5 _css10     = -4.535000e+00 : u^10 coefficient for same-spin correlation
    Parameter  6 _css20     = -3.390000e+00 : u^20 coefficient for same-spin correlation
    Parameter  7 _css43     =  4.278000e+00 : u^43 coefficient for same-spin correlation
    Parameter  8 _cos00     =  1.000000e+00 : u^00 coefficient for opposite-spin correlation
    Parameter  9 _cos10     =  1.358000e+00 : u^10 coefficient for opposite-spin correlation
    Parameter 10 _cos20     =  2.924000e+00 : u^20 coefficient for opposite-spin correlation
    Parameter 11 _cos21     = -8.812000e+00 : u^21 coefficient for opposite-spin correlation
    Parameter 12 _cos60     = -1.390000e+00 : u^60 coefficient for opposite-spin correlation
    Parameter 13 _cos61     =  9.142000e+00 : u^61 coefficient for opposite-spin correlation
    Parameter 14 _alpha     =  1.000000e+00 : fraction of HF exchange
    Parameter 15 _beta      = -8.500000e-01 : fraction of short-range exchange
    Parameter 16 _omega     =  3.000000e-01 : range-separation constant
 Long-range corrected/Screened/Range-Separated Hybrid DFT is turned on
   Amount of maximum screened exact exchange              ....  0.850000
   Range separation parameter mu (erf(mu*r12)/r12)        ....  0.300000
 RI-approximation to the Coulomb term is turned on
   Number of AuxJ basis functions       .... 191
   RIJ-COSX (HFX calculated with COS-X)).... on


General Settings:
 Integral files         IntName         .... orca
 Hartree-Fock type      HFTyp           .... UHF
 Total Charge           Charge          ....    0
 Multiplicity           Mult            ....    3
 Number of Electrons    NEL             ....   24
 Basis Dimension        Dim             ....  182
 Nuclear Repulsion      ENuc            ....     75.4785745160 Eh

Convergence Acceleration:
 AO-DIIS                CNVDIIS         .... on
   Start iteration      DIISMaxIt       ....    12
   Startup error        DIISStart       ....  0.200000
   # of expansion vecs  DIISMaxEq       ....     5
   Bias factor          DIISBfac        ....   1.050
   Max. coefficient     DIISMaxC        ....  10.000
 MO-DIIS                CNVKDIIS        .... off
 Trust-Rad. Augm. Hess. CNVTRAH         .... auto
   Auto Start mean grad. ratio tolernc. ....  1.125000
   Auto Start start iteration           ....    50
   Auto Start num. interpolation iter.  ....    10
   Max. Number of Micro iterations      ....    24
   Max. Number of Macro iterations      .... Maxiter - #DIIS iter
   Number of Davidson start vectors     ....     2
   Converg. threshold    (grad. norm)   ....   1.000e-05
   Grad. Scal. Fac. for Micro threshold ....   0.100
   Minimum threshold for Micro iter.    ....   1.000e-02
   NR start threshold (gradient norm)   ....   1.000e-04
   Initial trust radius                 ....   0.400
   Minimum AH scaling param. (alpha)    ....   1.000
   Maximum AH scaling param. (alpha)    .... 1000.000
   Quad. conv. algorithm                .... NR
   White noise on init. David. guess    .... on
   Maximum white noise                  ....   0.010
   Pseudo random numbers                .... off
   Inactive MOs                         .... canonical
   Orbital update algorithm             .... Taylor
   Preconditioner                       .... Diag
   Full preconditioner red. dimension   ....   250
 SOSCF                  CNVSOSCF        .... on
   Start iteration      SOSCFMaxIt      ....   150
   Startup grad/error   SOSCFStart      ....  0.003300
   Hessian update       SOSCFHessUp     .... L-BFGS
 Level Shifting         CNVShift        .... on
   Level shift para.    LevelShift      ....    0.2500
   Turn off err/grad.   ShiftErr        ....    0.0010
 Zerner damping         CNVZerner       .... off
 Static damping         CNVDamp         .... on
   Fraction old density DampFac         ....    0.7000
   Max. Damping (<1)    DampMax         ....    0.9800
   Min. Damping (>=0)   DampMin         ....    0.0000
   Turn off err/grad.   DampErr         ....    0.1000

SCF Procedure:
 Maximum # iterations   MaxIter         ....   125
 SCF integral mode      SCFMode         .... Direct
   Integral package                     .... SHARK and LIBINT hybrid scheme
 Reset frequency        DirectResetFreq ....    20
 Integral Threshold     Thresh          ....  2.500e-11 Eh
 Primitive CutOff       TCut            ....  2.500e-12 Eh

Convergence Tolerance:
 Convergence Check Mode ConvCheckMode   .... Total+1el-Energy
 Convergence forced     ConvForced      .... 1
 Energy Change          TolE            ....  1.000e-08 Eh
 1-El. energy change                    ....  1.000e-05 Eh
 Orbital Gradient       TolG            ....  1.000e-05
 Orbital Rotation angle TolX            ....  1.000e-05
 DIIS Error             TolErr          ....  5.000e-07

------------------------------
INITIAL GUESS: MODEL POTENTIAL
------------------------------
Loading Hartree-Fock densities                     ... done
Calculating cut-offs                               ... done
Initializing the effective Hamiltonian             ... done
Setting up the integral package (SHARK)            ... done
Starting the Coulomb interaction                   ... done (   0.0 sec)
Making the grid                                    ... done (   0.0 sec)
Mapping shells                                     ... done
Starting the XC term evaluation                    ... done (   0.0 sec)
  promolecular density results
     # of electrons  =     23.997265043
     EX              =    -19.547839943
     EC              =     -0.782668891
     EX+EC           =    -20.330508834
Transforming the Hamiltonian                       ... done (   0.0 sec)
Diagonalizing the Hamiltonian                      ... done (   0.0 sec)
Back transforming the eigenvectors                 ... done (   0.0 sec)
Now organizing SCF variables                       ... done
                      ------------------
                      INITIAL GUESS DONE (   0.1 sec)
                      ------------------
             **** ENERGY FILE WAS UPDATED (orca.en.tmp) ****
Finished Guess after   0.5 sec
Maximum memory used throughout the entire GUESS-calculation: 9.7 MB
[1740996073.442528] [ohm:3117671:0]        ib_iface.c:1059 UCX  ERROR ibv_create_cq(cqe=256) failed: Connection timed out
[1740996073.442603] [ohm:3117673:0]        ib_iface.c:1059 UCX  ERROR ibv_create_cq(cqe=256) failed: Connection timed out
[1740996073.442594] [ohm:3117675:0]        ib_iface.c:1059 UCX  ERROR ibv_create_cq(cqe=256) failed: Connection timed out
[1740996073.454240] [ohm:3117674:0]        ib_iface.c:1059 UCX  ERROR ibv_create_cq(cqe=256) failed: Connection timed out
[1740996073.454239] [ohm:3117670:0]        ib_iface.c:1059 UCX  ERROR ibv_create_cq(cqe=256) failed: Connection timed out
[1740996073.465413] [ohm:3117672:0]        ib_iface.c:1059 UCX  ERROR ibv_create_cq(cqe=256) failed: Connection timed out
[1740996073.481239] [ohm:3117680:0]        ib_iface.c:1059 UCX  ERROR ibv_create_cq(cqe=256) failed: Connection timed out
[1740996073.483147] [ohm:3117677:0]        ib_iface.c:1059 UCX  ERROR ibv_create_cq(cqe=256) failed: Connection timed out
[1740996073.483770] [ohm:3117676:0]        ib_iface.c:1059 UCX  ERROR ibv_create_cq(cqe=256) failed: Connection timed out
[1740996073.483786] [ohm:3117678:0]        ib_iface.c:1059 UCX  ERROR ibv_create_cq(cqe=256) failed: Connection timed out
[1740996073.485180] [ohm:3117691:0]        ib_iface.c:1059 UCX  ERROR ibv_create_cq(cqe=256) failed: Connection timed out
[1740996073.485203] [ohm:3117683:0]        ib_iface.c:1059 UCX  ERROR ibv_create_cq(cqe=256) failed: Connection timed out
[1740996073.485327] [ohm:3117682:0]        ib_iface.c:1059 UCX  ERROR ibv_create_cq(cqe=256) failed: Connection timed out
[1740996073.485328] [ohm:3117685:0]        ib_iface.c:1059 UCX  ERROR ibv_create_cq(cqe=256) failed: Connection timed out
[1740996073.486199] [ohm:3117697:0]        ib_iface.c:1059 UCX  ERROR ibv_create_cq(cqe=256) failed: Connection timed out
[1740996073.494040] [ohm:3117699:0]        ib_iface.c:1059 UCX  ERROR ibv_create_cq(cqe=256) failed: Connection timed out


           ************************************************************
           *        Program running with 16 parallel MPI-processes    *
           *              working on a common directory               *
           ************************************************************

-------------------------------------------------------------------------------------------
                                      ORCA LEAN-SCF
                              memory conserving SCF solver
-------------------------------------------------------------------------------------------

----------------------------------------D-I-I-S--------------------------------------------
Iteration    Energy (Eh)           Delta-E    RMSDP     MaxDP     DIISErr   Damp  Time(sec)
-------------------------------------------------------------------------------------------
               ***  Starting incremental Fock matrix formation  ***
    1    -153.5281607255278118     0.00e+00  1.87e-03  2.16e-01  8.89e-02  0.700   0.4
Warning: op=0 Small HOMO/LUMO gap (   0.098) - skipping pre-diagonalization
         Will do a full diagonalization
    2    -153.5601751745693946    -3.20e-02  3.42e-03  4.50e-01  5.32e-02  0.700   0.3
                               ***Turning on AO-DIIS***
    3    -153.5775800501256754    -1.74e-02  2.37e-03  3.16e-01  2.66e-02  0.700   0.3
    4    -153.5882724016955194    -1.07e-02  5.82e-03  7.75e-01  2.00e-02  0.000   0.3
    5    -153.6130829290596580    -2.48e-02  1.27e-03  1.63e-01  7.93e-03  0.000   0.3
    6    -153.6138544672719206    -7.72e-04  1.32e-03  1.64e-01  5.71e-03  0.000   0.3
    7    -153.6145418450815612    -6.87e-04  1.18e-03  1.32e-01  3.55e-03  0.000   0.3
                              *** Initializing SOSCF ***
---------------------------------------S-O-S-C-F--------------------------------------
Iteration    Energy (Eh)           Delta-E    RMSDP     MaxDP     MaxGrad    Time(sec)
--------------------------------------------------------------------------------------
    8    -153.6150725147844867    -5.31e-04  9.35e-04  8.36e-02  2.03e-03     0.3
               *** Restarting incremental Fock matrix formation ***
    9    -153.6154693574341081    -3.97e-04  1.18e-03  8.90e-02  3.56e-03     0.4
   10    -153.6158022010005197    -3.33e-04  5.66e-03  3.68e-01  2.71e-03     0.4
   11    -153.6165599275171871    -7.58e-04  7.48e-04  6.90e-02  1.13e-03     0.4
   12    -153.6165994733582636    -3.95e-05  4.75e-04  3.98e-02  7.45e-04     0.4
   13    -153.6166213953123929    -2.19e-05  6.94e-04  4.35e-02  5.58e-04     0.4
   14    -153.6166313039845193    -9.91e-06  7.69e-04  4.65e-02  3.85e-04     0.4
   15    -153.6166360430640339    -4.74e-06  5.53e-04  5.77e-02  2.32e-04     0.4
   16    -153.6166387886386531    -2.75e-06  5.97e-04  7.02e-02  1.93e-04     0.4
   17    -153.6166405514229893    -1.76e-06  4.27e-04  3.96e-02  1.52e-04     0.3
   18    -153.6166415794697571    -1.03e-06  4.04e-04  3.23e-02  1.17e-04     0.3
   19    -153.6166423932548355    -8.14e-07  1.74e-04  1.54e-02  8.29e-05     0.4
   20    -153.6166426828174565    -2.90e-07  7.76e-05  7.41e-03  7.99e-05     0.3
   21    -153.6166427757978568    -9.30e-08  3.41e-05  1.87e-03  4.26e-05     0.3
   22    -153.6166428026729989    -2.69e-08  2.15e-05  2.49e-03  1.82e-05     0.3
   23    -153.6166428110039988    -8.33e-09  1.42e-05  2.03e-03  4.74e-06     0.3
                 **** Energy Check signals convergence ****

               *****************************************************
               *                     SUCCESS                       *
               *           SCF CONVERGED AFTER  23 CYCLES          *
               *****************************************************

Recomputing exchange energy using gridx3       ... done (    0.440 sec)
Old exchange energy                            :     -6.169104890 Eh
New exchange energy                            :     -6.169096812 Eh
Exchange energy change after final integration :      0.000008078 Eh
Total energy after final integration           :   -153.616634733 Eh
             **** ENERGY FILE WAS UPDATED (orca.en.tmp) ****

----------------
TOTAL SCF ENERGY
----------------

Total Energy       :       -153.61663473260774 Eh           -4180.12114 eV

Components:
Nuclear Repulsion  :         75.47857451602312 Eh            2053.87643 eV
Electronic Energy  :       -229.09521732702711 Eh           -6233.99779 eV
One Electron Energy:       -356.05782545346472 Eh           -9688.82600 eV
Two Electron Energy:        126.96260812643760 Eh            3454.82821 eV

Virial components:
Potential Energy   :       -307.25822124291415 Eh           -8360.92126 eV
Kinetic Energy     :        153.64158651030641 Eh            4180.80012 eV
Virial Ratio       :          1.99983759750036

DFT components:
N(Alpha)           :       12.999243010552 electrons
N(Beta)            :       11.000003217373 electrons
N(Total)           :       23.999246227925 electrons
E(XC)              :      -14.718188626862 Eh       

---------------
SCF CONVERGENCE
---------------

  Last Energy change         ...    8.3310e-09  Tolerance :   1.0000e-08
  Last MAX-Density change    ...    2.0267e-03  Tolerance :   1.0000e-07
  Last RMS-Density change    ...    1.4233e-05  Tolerance :   5.0000e-09
  Last DIIS Error            ...    2.0303e-03  Tolerance :   5.0000e-07
  Last Orbital Gradient      ...    4.7376e-06  Tolerance :   1.0000e-05
  Last Orbital Rotation      ...    5.4498e-05  Tolerance :   1.0000e-05


----------------------
UHF SPIN CONTAMINATION
----------------------

Warning: in a DFT calculation there is little theoretical justification to 
         calculate <S**2> as in Hartree-Fock theory. We will do it anyways
         but you should keep in mind that the values have only limited relevance

Expectation value of <S**2>     :     2.005126
Ideal value S*(S+1) for S=1.0   :     2.000000
Deviation                       :     0.005126

----------------
ORBITAL ENERGIES
----------------
                 SPIN UP ORBITALS
  NO   OCC          E(Eh)            E(eV) 
   0   1.0000     -19.492134      -530.4079 
   1   1.0000     -10.433905      -283.9210 
   2   1.0000     -10.392718      -282.8002 
   3   1.0000      -1.332500       -36.2592 
   4   1.0000      -0.856824       -23.3154 
   5   1.0000      -0.806930       -21.9577 
   6   1.0000      -0.708921       -19.2907 
   7   1.0000      -0.666608       -18.1393 
   8   1.0000      -0.601246       -16.3607 
   9   1.0000      -0.520342       -14.1592 
  10   1.0000      -0.510267       -13.8851 
  11   1.0000      -0.461027       -12.5452 
  12   1.0000      -0.124660        -3.3922 
  13   0.0000       0.032989         0.8977 
  14   0.0000       0.058490         1.5916 
  15   0.0000       0.068047         1.8517 
  16   0.0000       0.083056         2.2601 
  17   0.0000       0.107149         2.9157 
  18   0.0000       0.126852         3.4518 
  19   0.0000       0.134015         3.6467 
  20   0.0000       0.142560         3.8793 
  21   0.0000       0.156217         4.2509 
  22   0.0000       0.191082         5.1996 
  23   0.0000       0.197645         5.3782 

                 SPIN DOWN ORBITALS
  NO   OCC          E(Eh)            E(eV) 
   0   1.0000     -19.461287      -529.5686 
   1   1.0000     -10.433326      -283.9052 
   2   1.0000     -10.386473      -282.6303 
   3   1.0000      -1.271976       -34.6122 
   4   1.0000      -0.824387       -22.4327 
   5   1.0000      -0.786787       -21.4096 
   6   1.0000      -0.646452       -17.5908 
   7   1.0000      -0.638241       -17.3674 
   8   1.0000      -0.562724       -15.3125 
   9   1.0000      -0.501191       -13.6381 
  10   1.0000      -0.435285       -11.8447 
  11   0.0000      -0.137628        -3.7450 
  12   0.0000       0.031229         0.8498 
  13   0.0000       0.057366         1.5610 
  14   0.0000       0.064155         1.7457 
  15   0.0000       0.069644         1.8951 
  16   0.0000       0.110452         3.0055 
  17   0.0000       0.115181         3.1342 
  18   0.0000       0.123887         3.3711 
  19   0.0000       0.148694         4.0462 
  20   0.0000       0.156867         4.2686 
  21   0.0000       0.162333         4.4173 
*Only the first 10 virtual orbitals were printed.

                    ********************************
                    * MULLIKEN POPULATION ANALYSIS *
                    ********************************

--------------------------------------------
MULLIKEN ATOMIC CHARGES AND SPIN POPULATIONS
--------------------------------------------
   0 O :   -0.335908    1.284628
   1 C :   -0.439012    0.455558
   2 C :    0.168539   -0.123504
   3 H :    0.139616    0.124472
   4 H :    0.139652    0.124448
   5 H :    0.163553    0.067215
   6 H :    0.163560    0.067182
Sum of atomic charges         :   -0.0000000
Sum of atomic spin populations:    2.0000000

-----------------------------------------------------
MULLIKEN REDUCED ORBITAL CHARGES AND SPIN POPULATIONS
-----------------------------------------------------
CHARGE
  0 O s       :     4.095913  s :     4.095913
      pz      :     1.108799  p :     4.186045
      px      :     1.539627
      py      :     1.537619
      dz2     :     0.005891  d :     0.051969
      dxz     :     0.000671
      dyz     :     0.010458
      dx2y2   :     0.013704
      dxy     :     0.021244
      f0      :     0.000223  f :     0.001981
      f+1     :     0.000110
      f-1     :     0.000293
      f+2     :     0.000080
      f-2     :     0.000236
      f+3     :     0.000410
      f-3     :     0.000627

  1 C s       :     3.523143  s :     3.523143
      pz      :     1.158402  p :     2.801058
      px      :     0.817023
      py      :     0.825633
      dz2     :     0.018160  d :     0.104910
      dxz     :    -0.022048
      dyz     :     0.001798
      dx2y2   :     0.062271
      dxy     :     0.044729
      f0      :     0.000910  f :     0.009901
      f+1     :     0.000834
      f-1     :     0.001039
      f+2     :     0.000678
      f-2     :     0.001051
      f+3     :     0.003337
      f-3     :     0.002051

  2 C s       :     3.232611  s :     3.232611
      pz      :     1.063565  p :     2.519015
      px      :     0.887749
      py      :     0.567701
      dz2     :     0.022331  d :     0.068006
      dxz     :    -0.003900
      dyz     :     0.013576
      dx2y2   :     0.027203
      dxy     :     0.008796
      f0      :     0.001288  f :     0.011829
      f+1     :     0.000949
      f-1     :     0.000813
      f+2     :     0.000765
      f-2     :     0.001574
      f+3     :     0.003209
      f-3     :     0.003232

  3 H s       :     0.711160  s :     0.711160
      pz      :     0.018625  p :     0.146706
      px      :     0.012748
      py      :     0.115332
      dz2     :     0.000699  d :     0.002518
      dxz     :     0.000548
      dyz     :     0.000709
      dx2y2   :     0.000263
      dxy     :     0.000299

  4 H s       :     0.711148  s :     0.711148
      pz      :     0.018631  p :     0.146682
      px      :     0.012747
      py      :     0.115304
      dz2     :     0.000699  d :     0.002518
      dxz     :     0.000548
      dyz     :     0.000709
      dx2y2   :     0.000263
      dxy     :     0.000299

  5 H s       :     0.775654  s :     0.775654
      pz      :     0.014296  p :     0.058140
      px      :     0.018444
      py      :     0.025399
      dz2     :     0.000770  d :     0.002653
      dxz     :     0.000656
      dyz     :     0.000545
      dx2y2   :     0.000333
      dxy     :     0.000349

  6 H s       :     0.775664  s :     0.775664
      pz      :     0.014299  p :     0.058123
      px      :     0.018439
      py      :     0.025385
      dz2     :     0.000770  d :     0.002653
      dxz     :     0.000656
      dyz     :     0.000545
      dx2y2   :     0.000333
      dxy     :     0.000349


SPIN
  0 O s       :     0.181655  s :     0.181655
      pz      :     0.811328  p :     1.093941
      px      :     0.088619
      py      :     0.193994
      dz2     :     0.001233  d :     0.009283
      dxz     :    -0.001204
      dyz     :    -0.005779
      dx2y2   :     0.007337
      dxy     :     0.007696
      f0      :    -0.000087  f :    -0.000252
      f+1     :    -0.000070
      f-1     :    -0.000123
      f+2     :    -0.000005
      f-2     :     0.000004
      f+3     :     0.000013
      f-3     :     0.000017

  1 C s       :     0.092646  s :     0.092646
      pz      :     0.038556  p :     0.294463
      px      :     0.021939
      py      :     0.233968
      dz2     :     0.007253  d :     0.066370
      dxz     :     0.001625
      dyz     :     0.000619
      dx2y2   :     0.036865
      dxy     :     0.020008
      f0      :     0.000260  f :     0.002080
      f+1     :    -0.000081
      f-1     :     0.000573
      f+2     :     0.000229
      f-2     :     0.000375
      f+3     :     0.000775
      f-3     :    -0.000050

  2 C s       :     0.011698  s :     0.011698
      pz      :     0.016452  p :    -0.158668
      px      :    -0.019416
      py      :    -0.155703
      dz2     :     0.024852  d :     0.021002
      dxz     :     0.004377
      dyz     :     0.012075
      dx2y2   :    -0.002334
      dxy     :    -0.017968
      f0      :     0.000593  f :     0.002464
      f+1     :    -0.000002
      f-1     :    -0.000015
      f+2     :     0.000478
      f-2     :     0.000621
      f+3     :     0.000827
      f-3     :    -0.000039

  3 H s       :     0.013367  s :     0.013367
      pz      :     0.004215  p :     0.110748
      px      :     0.000578
      py      :     0.105954
      dz2     :     0.000001  d :     0.000358
      dxz     :     0.000008
      dyz     :     0.000285
      dx2y2   :     0.000009
      dxy     :     0.000054

  4 H s       :     0.013367  s :     0.013367
      pz      :     0.004222  p :     0.110724
      px      :     0.000577
      py      :     0.105925
      dz2     :     0.000001  d :     0.000358
      dxz     :     0.000008
      dyz     :     0.000285
      dx2y2   :     0.000009
      dxy     :     0.000054

  5 H s       :     0.048791  s :     0.048791
      pz      :    -0.000316  p :     0.018411
      px      :     0.000569
      py      :     0.018158
      dz2     :    -0.000004  d :     0.000013
      dxz     :     0.000025
      dyz     :    -0.000020
      dx2y2   :     0.000017
      dxy     :    -0.000006

  6 H s       :     0.048776  s :     0.048776
      pz      :    -0.000316  p :     0.018392
      px      :     0.000563
      py      :     0.018146
      dz2     :    -0.000004  d :     0.000013
      dxz     :     0.000025
      dyz     :    -0.000020
      dx2y2   :     0.000017
      dxy     :    -0.000006



                     *******************************
                     * LOEWDIN POPULATION ANALYSIS *
                     *******************************

-------------------------------------------
LOEWDIN ATOMIC CHARGES AND SPIN POPULATIONS
-------------------------------------------
   0 O :    0.097933    1.051818
   1 C :    0.015390    0.409217
   2 C :   -0.010766    0.147159
   3 H :   -0.073910    0.140909
   4 H :   -0.073911    0.140913
   5 H :    0.022633    0.054997
   6 H :    0.022630    0.054988

----------------------------------------------------
LOEWDIN REDUCED ORBITAL CHARGES AND SPIN POPULATIONS
----------------------------------------------------
CHARGE
  0 O s       :     3.393854  s :     3.393854
      pz      :     1.022250  p :     4.037206
      px      :     1.442461
      py      :     1.572495
      dz2     :     0.036964  d :     0.463248
      dxz     :     0.060596
      dyz     :     0.083290
      dx2y2   :     0.135384
      dxy     :     0.147014
      f0      :     0.000795  f :     0.007758
      f+1     :     0.000313
      f-1     :     0.001001
      f+2     :     0.000169
      f-2     :     0.001209
      f+3     :     0.001251
      f-3     :     0.003019

  1 C s       :     2.673916  s :     2.673916
      pz      :     0.931544  p :     2.561302
      px      :     0.837810
      py      :     0.791948
      dz2     :     0.105166  d :     0.678437
      dxz     :     0.166363
      dyz     :     0.038237
      dx2y2   :     0.195071
      dxy     :     0.173600
      f0      :     0.005828  f :     0.070954
      f+1     :     0.007531
      f-1     :     0.008809
      f+2     :     0.004322
      f-2     :     0.004309
      f+3     :     0.024174
      f-3     :     0.015981

  2 C s       :     2.652741  s :     2.652741
      pz      :     0.910966  p :     2.558806
      px      :     0.901403
      py      :     0.746437
      dz2     :     0.097606  d :     0.711279
      dxz     :     0.188763
      dyz     :     0.062859
      dx2y2   :     0.191943
      dxy     :     0.170107
      f0      :     0.008380  f :     0.087941
      f+1     :     0.008418
      f-1     :     0.009156
      f+2     :     0.005747
      f-2     :     0.008194
      f+3     :     0.021730
      f-3     :     0.026316

  3 H s       :     0.685930  s :     0.685930
      pz      :     0.116102  p :     0.356981
      px      :     0.076527
      py      :     0.164352
      dz2     :     0.009070  d :     0.030999
      dxz     :     0.008735
      dyz     :     0.007897
      dx2y2   :     0.002750
      dxy     :     0.002549

  4 H s       :     0.685929  s :     0.685929
      pz      :     0.116100  p :     0.356982
      px      :     0.076526
      py      :     0.164356
      dz2     :     0.009069  d :     0.030999
      dxz     :     0.008734
      dyz     :     0.007897
      dx2y2   :     0.002750
      dxy     :     0.002549

  5 H s       :     0.679484  s :     0.679484
      pz      :     0.114360  p :     0.267566
      px      :     0.084949
      py      :     0.068257
      dz2     :     0.009121  d :     0.030317
      dxz     :     0.008789
      dyz     :     0.006294
      dx2y2   :     0.003339
      dxy     :     0.002774

  6 H s       :     0.679492  s :     0.679492
      pz      :     0.114359  p :     0.267561
      px      :     0.084950
      py      :     0.068252
      dz2     :     0.009122  d :     0.030317
      dxz     :     0.008789
      dyz     :     0.006293
      dx2y2   :     0.003339
      dxy     :     0.002774


SPIN
  0 O s       :     0.083776  s :     0.083776
      pz      :     0.710919  p :     0.931578
      px      :     0.081000
      py      :     0.139659
      dz2     :     0.005312  d :     0.035881
      dxz     :    -0.001716
      dyz     :     0.016648
      dx2y2   :     0.000310
      dxy     :     0.015326
      f0      :     0.000195  f :     0.000583
      f+1     :     0.000073
      f-1     :     0.000178
      f+2     :     0.000023
      f-2     :    -0.000001
      f+3     :     0.000115
      f-3     :     0.000000

  1 C s       :     0.017570  s :     0.017570
      pz      :     0.023407  p :     0.237350
      px      :     0.006473
      py      :     0.207470
      dz2     :     0.009596  d :     0.137420
      dxz     :     0.007021
      dyz     :     0.031858
      dx2y2   :     0.039967
      dxy     :     0.048978
      f0      :     0.001730  f :     0.016876
      f+1     :     0.000328
      f-1     :     0.001920
      f+2     :     0.001999
      f-2     :     0.002065
      f+3     :     0.008842
      f-3     :    -0.000009

  2 C s       :     0.002616  s :     0.002616
      pz      :     0.016037  p :     0.032334
      px      :     0.011896
      py      :     0.004401
      dz2     :     0.006158  d :     0.093722
      dxz     :     0.019206
      dyz     :     0.058744
      dx2y2   :    -0.002066
      dxy     :     0.011681
      f0      :     0.004063  f :     0.018486
      f+1     :     0.000647
      f-1     :     0.000465
      f+2     :     0.004049
      f-2     :     0.004132
      f+3     :     0.005089
      f-3     :     0.000040

  3 H s       :     0.015127  s :     0.015127
      pz      :     0.002049  p :     0.121930
      px      :     0.000342
      py      :     0.119539
      dz2     :     0.000137  d :     0.003852
      dxz     :     0.000263
      dyz     :     0.002988
      dx2y2   :     0.000040
      dxy     :     0.000424

  4 H s       :     0.015128  s :     0.015128
      pz      :     0.002050  p :     0.121932
      px      :     0.000342
      py      :     0.119541
      dz2     :     0.000137  d :     0.003852
      dxz     :     0.000263
      dyz     :     0.002988
      dx2y2   :     0.000040
      dxy     :     0.000424

  5 H s       :     0.032553  s :     0.032553
      pz      :     0.000940  p :     0.022408
      px      :     0.002962
      py      :     0.018506
      dz2     :    -0.000071  d :     0.000036
      dxz     :     0.000229
      dyz     :    -0.000156
      dx2y2   :     0.000160
      dxy     :    -0.000127

  6 H s       :     0.032544  s :     0.032544
      pz      :     0.000940  p :     0.022408
      px      :     0.002962
      py      :     0.018506
      dz2     :    -0.000071  d :     0.000036
      dxz     :     0.000229
      dyz     :    -0.000156
      dx2y2   :     0.000160
      dxy     :    -0.000127



                      *****************************
                      * MAYER POPULATION ANALYSIS *
                      *****************************

  NA   - Mulliken gross atomic population
  ZA   - Total nuclear charge
  QA   - Mulliken gross atomic charge
  VA   - Mayer's total valence
  BVA  - Mayer's bonded valence
  FA   - Mayer's free valence

  ATOM       NA         ZA         QA         VA         BVA        FA
  0 O      8.3359     8.0000    -0.3359     2.6347     1.7545     0.8802
  1 C      6.4390     6.0000    -0.4390     3.6023     3.4685     0.1338
  2 C      5.8315     6.0000     0.1685     3.0996     3.0820     0.0176
  3 H      0.8604     1.0000     0.1396     1.1848     1.1694     0.0153
  4 H      0.8603     1.0000     0.1397     1.1847     1.1694     0.0153
  5 H      0.8364     1.0000     0.1636     1.0666     1.0640     0.0026
  6 H      0.8364     1.0000     0.1636     1.0666     1.0640     0.0026

  Mayer bond orders larger than 0.100000
B(  0-O ,  1-C ) :   0.7365 B(  0-O ,  2-C ) :   0.6846 B(  0-O ,  3-H ) :   0.1166 
B(  0-O ,  4-H ) :   0.1166 B(  1-C ,  2-C ) :   0.6168 B(  1-C ,  3-H ) :   1.0594 
B(  1-C ,  4-H ) :   1.0594 B(  2-C ,  5-H ) :   0.9706 B(  2-C ,  6-H ) :   0.9706 


-------
TIMINGS
-------

Total SCF time: 0 days 0 hours 0 min 8 sec 

Total time                  ....       8.597 sec
Sum of individual times     ....       8.570 sec  ( 99.7%)

SCF preparation             ....       0.406 sec  (  4.7%)
Fock matrix formation       ....       7.374 sec  ( 85.8%)
  Startup                   ....       0.045 sec  (  0.6% of F)
  Split-RI-J                ....       0.321 sec  (  4.4% of F)
  Chain of spheres X        ....       4.716 sec  ( 64.0% of F)
  XC integration            ....       2.125 sec  ( 28.8% of F)
    XC Preparation          ....       0.000 sec  (  0.0% of XC)
    Basis function eval.    ....       0.143 sec  (  6.7% of XC)
    Density eval.           ....       0.653 sec  ( 30.7% of XC)
    XC-Functional eval.     ....       0.058 sec  (  2.7% of XC)
    XC-Potential eval.      ....       1.123 sec  ( 52.9% of XC)
Diagonalization             ....       0.000 sec  (  0.0%)
Density matrix formation    ....       0.112 sec  (  1.3%)
Total Energy calculation    ....       0.074 sec  (  0.9%)
Population analysis         ....       0.019 sec  (  0.2%)
Orbital Transformation      ....       0.047 sec  (  0.6%)
Orbital Orthonormalization  ....       0.000 sec  (  0.0%)
DIIS solution               ....       0.291 sec  (  3.4%)
SOSCF solution              ....       0.243 sec  (  2.8%)
Finished LeanSCF after   8.6 sec

Maximum memory used throughout the entire LEANSCF-calculation: 14.8 MB
[1740996082.354648] [ohm:3117785:0]        ib_iface.c:1059 UCX  ERROR ibv_create_cq(cqe=256) failed: Connection timed out
[1740996082.364659] [ohm:3117789:0]        ib_iface.c:1059 UCX  ERROR ibv_create_cq(cqe=256) failed: Connection timed out
[1740996082.364789] [ohm:3117787:0]        ib_iface.c:1059 UCX  ERROR ibv_create_cq(cqe=256) failed: Connection timed out
[1740996082.372363] [ohm:3117788:0]        ib_iface.c:1059 UCX  ERROR ibv_create_cq(cqe=256) failed: Connection timed out
[1740996082.374538] [ohm:3117786:0]        ib_iface.c:1059 UCX  ERROR ibv_create_cq(cqe=256) failed: Connection timed out
[1740996082.375273] [ohm:3117791:0]        ib_iface.c:1059 UCX  ERROR ibv_create_cq(cqe=256) failed: Connection timed out
[1740996082.375907] [ohm:3117784:0]        ib_iface.c:1059 UCX  ERROR ibv_create_cq(cqe=256) failed: Connection timed out
[1740996082.382044] [ohm:3117790:0]        ib_iface.c:1059 UCX  ERROR ibv_create_cq(cqe=256) failed: Connection timed out
[1740996082.384694] [ohm:3117800:0]        ib_iface.c:1059 UCX  ERROR ibv_create_cq(cqe=256) failed: Connection timed out
[1740996082.384728] [ohm:3117794:0]        ib_iface.c:1059 UCX  ERROR ibv_create_cq(cqe=256) failed: Connection timed out
[1740996082.386942] [ohm:3117792:0]        ib_iface.c:1059 UCX  ERROR ibv_create_cq(cqe=256) failed: Connection timed out
[1740996082.388159] [ohm:3117804:0]        ib_iface.c:1059 UCX  ERROR ibv_create_cq(cqe=256) failed: Connection timed out
[1740996082.388300] [ohm:3117796:0]        ib_iface.c:1059 UCX  ERROR ibv_create_cq(cqe=256) failed: Connection timed out
[1740996082.399287] [ohm:3117814:0]        ib_iface.c:1059 UCX  ERROR ibv_create_cq(cqe=256) failed: Connection timed out
[1740996082.399956] [ohm:3117808:0]        ib_iface.c:1059 UCX  ERROR ibv_create_cq(cqe=256) failed: Connection timed out
[1740996082.400201] [ohm:3117811:0]        ib_iface.c:1059 UCX  ERROR ibv_create_cq(cqe=256) failed: Connection timed out


           ************************************************************
           *        Program running with 16 parallel MPI-processes    *
           *              working on a common directory               *
           ************************************************************

------------------------------------------------------------------------------
                         ORCA PROPERTY INTEGRAL CALCULATIONS
------------------------------------------------------------------------------

GBWName                                   ... orca.gbw
Number of atoms                           ...      7
Number of basis functions                 ...    182
Max core memory                           ...   1024 MB

Dipole integrals                          ... YES
Quadrupole integrals                      ...  NO
Linear momentum integrals                 ... YES
Angular momentum integrals                ... YES
Higher moments length integrals           ...  NO
Higher moments velocity integrals         ...  NO
Kinetic energy integrals                  ...  NO
GIAO right hand sides                     ...  NO
GIAO dipole derivative integrals          ...  NO
SOC integrals                             ...  NO
EPR diamagnetic integrals (GIAO)          ...  NO
EPR gauge integrals                       ...  NO
Field gradient integrals                  ...  NO (   0 nuclei)
Spin-dipole/Fermi contact integrals       ...  NO (   0 nuclei)
Contact density integrals                 ...  NO (   0 nuclei)
Nucleus-orbit integrals                   ...  NO (   0 nuclei)
Geometric perturbations                   ...  NO (   7 nuclei)

Choice of electric origin   ... Center of mass
Position of electric origin ... ( -0.0204, -0.0394, -0.0000) 
Choice of magnetic origin   ... GIAO
Position of magnetic origin ... (  0.0000,  0.0000,  0.0000) 

Calculating integrals                     ... Electric Dipole (Length)     done (  0.0 sec)
Calculating integrals                     ... Linear Momentum              done (  0.0 sec)
Calculating integrals                     ... Angular Momentum  (ElOri)    done (  0.0 sec)

Property integrals calculated in   0.0 sec

Maximum memory used throughout the entire PROPINT-calculation: 10.4 MB
[1740996083.057081] [ohm:3117880:0]        ib_iface.c:1059 UCX  ERROR ibv_create_cq(cqe=256) failed: Connection timed out
[1740996083.057397] [ohm:3117884:0]        ib_iface.c:1059 UCX  ERROR ibv_create_cq(cqe=256) failed: Connection timed out
[1740996083.058582] [ohm:3117882:0]        ib_iface.c:1059 UCX  ERROR ibv_create_cq(cqe=256) failed: Connection timed out
[1740996083.062163] [ohm:3117881:0]        ib_iface.c:1059 UCX  ERROR ibv_create_cq(cqe=256) failed: Connection timed out
[1740996083.062163] [ohm:3117883:0]        ib_iface.c:1059 UCX  ERROR ibv_create_cq(cqe=256) failed: Connection timed out
[1740996083.062841] [ohm:3117879:0]        ib_iface.c:1059 UCX  ERROR ibv_create_cq(cqe=256) failed: Connection timed out
[1740996083.071578] [ohm:3117887:0]        ib_iface.c:1059 UCX  ERROR ibv_create_cq(cqe=256) failed: Connection timed out
[1740996083.074726] [ohm:3117886:0]        ib_iface.c:1059 UCX  ERROR ibv_create_cq(cqe=256) failed: Connection timed out
[1740996083.075014] [ohm:3117889:0]        ib_iface.c:1059 UCX  ERROR ibv_create_cq(cqe=256) failed: Connection timed out
[1740996083.078568] [ohm:3117885:0]        ib_iface.c:1059 UCX  ERROR ibv_create_cq(cqe=256) failed: Connection timed out
[1740996083.079322] [ohm:3117892:0]        ib_iface.c:1059 UCX  ERROR ibv_create_cq(cqe=256) failed: Connection timed out
[1740996083.082195] [ohm:3117900:0]        ib_iface.c:1059 UCX  ERROR ibv_create_cq(cqe=256) failed: Connection timed out
[1740996083.082278] [ohm:3117891:0]        ib_iface.c:1059 UCX  ERROR ibv_create_cq(cqe=256) failed: Connection timed out
[1740996083.101131] [ohm:3117908:0]        ib_iface.c:1059 UCX  ERROR ibv_create_cq(cqe=256) failed: Connection timed out
[1740996083.103871] [ohm:3117894:0]        ib_iface.c:1059 UCX  ERROR ibv_create_cq(cqe=256) failed: Connection timed out
[1740996083.103854] [ohm:3117905:0]        ib_iface.c:1059 UCX  ERROR ibv_create_cq(cqe=256) failed: Connection timed out


           ************************************************************
           *        Program running with 16 parallel MPI-processes    *
           *              working on a common directory               *
           ************************************************************
------------------------------------------------------------------------------
                        ORCA TD-DFT/TDA CALCULATION
------------------------------------------------------------------------------

Input orbitals are from        ... orca.gbw
CI-vector output               ... orca.cis
Solver                         ... FN-2001
Tamm-Dancoff approximation     ... operative
CIS-Integral strategy          ... AO-integrals
Integral handling              ... AO integral Direct
Max. core memory used          ... 512 MB
Reference state                ... UHF
Follow IRoot                   ... off
Number of operators            ... 2
Orbital ranges used for CIS calculation:
 Operator 0:  Orbitals   3... 12  to  11...181

-------------------
XC-INTEGRATION GRID
-------------------

General Integration Accuracy     IntAcc      ... 3.467
Radial Grid Type                 RadialGrid  ... OptM3 with GC (2021)
Angular Grid (max. ang.)         AngularGrid ... 1 (Lebedev-50)
Angular grid pruning method      GridPruning ... 4 (adaptive)
Weight generation scheme         WeightScheme... mBecke (2022)
Basis function cutoff            BFCut       ... 1.0000e-11
Integration weight cutoff        WCut        ... 1.0000e-14
Partially contracted basis set               ... off
Rotationally invariant grid construction     ... off
Angular grids for H and He will be reduced by one unit
Diffuse basis detected: some atoms will have their outermost
                        angular grid increased by 1.

Total number of grid points                  ...     4730
Total number of batches                      ...       77
Average number of points per batch           ...       61
Average number of grid points per atom       ...      676

---------------------
COSX-INTEGRATION GRID
---------------------

General Integration Accuracy     IntAcc      ... 3.067
Radial Grid Type                 RadialGrid  ... OptM3 with GC (2021)
Angular Grid (max. ang.)         AngularGrid ... 1 (Lebedev-50)
Angular grid pruning method      GridPruning ... 4 (adaptive)
Weight generation scheme         WeightScheme... mBecke (2022)
Basis function cutoff            BFCut       ... 1.0000e-11
Integration weight cutoff        WCut        ... 1.0000e-14
Partially contracted basis set               ... on
Rotationally invariant grid construction     ... off
Angular grids for H and He will be reduced by one unit
Diffuse basis detected: some atoms will have their outermost
                        angular grid increased by 1.

Total number of grid points                  ...     2151
Total number of batches                      ...       22
Average number of points per batch           ...       97
Average number of grid points per atom       ...      307

---------------
TD-DFT XC SETUP
---------------

DFT calculation                         ... on
Name of the grid file                   ... orca.grid_cis.tmp
RI-approximation                        ... on
Aux-basis dimension                     ... 0
Functional (TD-DFT)
  Functional kind                       .... Exchange-Correlation
  Functional name                       .... wB97M-V exchange-correlation functional
  Functional family                     .... Hybrid MGGA
  Functional refs                              
    [ 0] N. Mardirossian and M. Head-Gordon.,  J. Chem. Phys. 144, 214110 (2016), doi: 10.1063/1.4952647
  Fraction of HF Exchange (short range) .... 0.1500
  Fraction of HF Exchange (long range)  .... 1.0000
  Range separation parameter mu         .... 0.3000
  Functional external parameters        .... 17
    Parameter  0 _cx00      =  8.500000e-01 : u^00 coefficient for exchange
    Parameter  1 _cx01      =  1.007000e+00 : u^01 coefficient for exchange
    Parameter  2 _cx10      =  2.590000e-01 : u^10 coefficient for exchange
    Parameter  3 _css00     =  4.430000e-01 : u^00 coefficient for same-spin correlation
    Parameter  4 _css04     = -1.437000e+00 : u^04 coefficient for same-spin correlation
    Parameter  5 _css10     = -4.535000e+00 : u^10 coefficient for same-spin correlation
    Parameter  6 _css20     = -3.390000e+00 : u^20 coefficient for same-spin correlation
    Parameter  7 _css43     =  4.278000e+00 : u^43 coefficient for same-spin correlation
    Parameter  8 _cos00     =  1.000000e+00 : u^00 coefficient for opposite-spin correlation
    Parameter  9 _cos10     =  1.358000e+00 : u^10 coefficient for opposite-spin correlation
    Parameter 10 _cos20     =  2.924000e+00 : u^20 coefficient for opposite-spin correlation
    Parameter 11 _cos21     = -8.812000e+00 : u^21 coefficient for opposite-spin correlation
    Parameter 12 _cos60     = -1.390000e+00 : u^60 coefficient for opposite-spin correlation
    Parameter 13 _cos61     =  9.142000e+00 : u^61 coefficient for opposite-spin correlation
    Parameter 14 _alpha     =  1.000000e+00 : fraction of HF exchange
    Parameter 15 _beta      = -8.500000e-01 : fraction of short-range exchange
    Parameter 16 _omega     =  3.000000e-01 : range-separation constant
Hybrid DFT                              ... on
   Exchange mixing (TD-DFT)             ...  0.150
   GGA exch. scaling (TD-DFT)           ...  0.000
   GGA corr. scaling (TD-DFT)           ...  1.000
Range-Separated Exchange                ... on
   Range Range separation parameter mu  .... 0.300
   Max. amount of RS exchange (TD-DFT)  ...  0.850

Building densities             ... done
Calculating rho(r) on the grid ... done
Building xc-kernel on the grid ... done
                    *** TD-DFT CALCULATION INITIALIZED ***

------------------------
DAVIDSON-DIAGONALIZATION
------------------------

Dimension of the eigenvalue problem            ...   1710
Number of roots to be determined               ...      2
Maximum size of the expansion space            ...     20
Maximum number of iterations                   ...    100
Convergence tolerance for the residual         ...    2.500e-07
Convergence tolerance for the energies         ...    2.500e-07
Orthogonality tolerance                        ...    1.000e-14
Level Shift                                    ...    0.000e+00
Constructing the preconditioner                ... o.k.
Building the initial guess                     ... o.k.
Number of trial vectors determined             ...     20


                       ****Iteration    0****
   Time for iteration     :  TOTAL=0.2 TRAFO=0.0 COSX=0.2
   Size of expansion space: 6
   Lowest Energy          :    -0.248488763428
   Maximum Energy change  :     0.248488763428 (vector 0)
   Maximum residual norm  :     0.001610552459

                       ****Iteration    1****
   Time for iteration     :  TOTAL=0.1 TRAFO=0.0 COSX=0.1
   Size of expansion space: 8
   Lowest Energy          :    -0.250846665069
   Maximum Energy change  :     0.008231690110 (vector 1)
   Maximum residual norm  :     0.000315843781

                       ****Iteration    2****
   Time for iteration     :  TOTAL=0.1 TRAFO=0.0 COSX=0.1
   Size of expansion space: 10
   Lowest Energy          :    -0.250866459157
   Maximum Energy change  :     0.002911713101 (vector 1)
   Maximum residual norm  :     0.000241740221

                       ****Iteration    3****
   Time for iteration     :  TOTAL=0.1 TRAFO=0.0 COSX=0.1
   Size of expansion space: 12
   Lowest Energy          :    -0.250866780826
   Maximum Energy change  :     0.001069504660 (vector 1)
   Maximum residual norm  :     0.000102901032

                       ****Iteration    4****
   Time for iteration     :  TOTAL=0.1 TRAFO=0.0 COSX=0.1
   Size of expansion space: 14
   Lowest Energy          :    -0.250866785844
   Maximum Energy change  :     0.000515260267 (vector 1)
   Maximum residual norm  :     0.000057297867

                       ****Iteration    5****
   Time for iteration     :  TOTAL=0.1 TRAFO=0.0 COSX=0.1
   Size of expansion space: 16
   Lowest Energy          :    -0.250866785895
   Maximum Energy change  :     0.000109584901 (vector 1)
   Maximum residual norm  :     0.000015218185

                       ****Iteration    6****
   Time for iteration     :  TOTAL=0.1 TRAFO=0.0 COSX=0.1
   Size of expansion space: 18
   Lowest Energy          :    -0.250866785896
   Maximum Energy change  :     0.000033213565 (vector 1)
   Maximum residual norm  :     0.000005949438

                       ****Iteration    7****
   Time for iteration     :  TOTAL=0.1 TRAFO=0.0 RIJ=0.0 COSX=0.1
   Size of expansion space: 20
   Lowest Energy          :    -0.250866785896
   Maximum Energy change  :     0.000010880447 (vector 1)
   Maximum residual norm  :     0.000001879641
   Rebuilding the expansion space

                       ****Iteration    8****
   Time for iteration     :  TOTAL=0.2 TRAFO=0.0 COSX=0.1
   Size of expansion space: 4
   Lowest Energy          :    -0.250869933694
   Maximum Energy change  :     0.000003803288 (vector 1)
   Maximum residual norm  :     0.000001841793

                       ****Iteration    9****
   Time for iteration     :  TOTAL=0.1 TRAFO=0.0 COSX=0.1
   Size of expansion space: 6
   Lowest Energy          :    -0.250869933695
   Maximum Energy change  :     0.000004381610 (vector 1)
   Maximum residual norm  :     0.000002261759

                       ****Iteration   10****
   Time for iteration     :  TOTAL=0.1 TRAFO=0.0 COSX=0.1
   Size of expansion space: 7
   Lowest Energy          :    -0.250869933695
   Maximum Energy change  :     0.000004130443 (vector 1)
   Maximum residual norm  :     0.000000970427

                       ****Iteration   11****
   Time for iteration     :  TOTAL=0.1 TRAFO=0.0 COSX=0.1
   Size of expansion space: 8
   Lowest Energy          :    -0.250869933695
   Maximum Energy change  :     0.000000915187 (vector 1)
   Maximum residual norm  :     0.000000127265

      *** CONVERGENCE OF RESIDUAL NORM REACHED ***

Storing the converged CI vectors               ... orca.cis3

                 *** DAVIDSON DONE ***

Total time for solving the CIS problem:     1.750sec

---------------------
SF-TDA EXCITED STATES
---------------------

the weight of the individual excitations are printed if larger than 1.0e-02

UHF/UKS reference: multiplicity estimated based on rounded <S**2> value, RELEVANCE IS LIMITED!

(SPIN-FLIP GROUND STATE)
[...]
      f+1     :    -0.000127
      f-1     :    -0.000038
      f+2     :     0.000171
      f-2     :     0.000007
      f+3     :     0.000325
      f-3     :     0.000041
  2 C s       :    -0.003268  s :    -0.003268
      pz      :     0.008133  p :     0.012467
      px      :     0.004143
      py      :     0.000191
      dz2     :     0.003117  d :    -0.010782
      dxz     :    -0.002332
      dyz     :    -0.006199
      dx2y2   :    -0.000247
      dxy     :    -0.005121
      f0      :    -0.000062  f :    -0.000280
      f+1     :     0.000085
      f-1     :     0.000045
      f+2     :     0.000189
      f-2     :    -0.000014
      f+3     :    -0.000504
      f-3     :    -0.000019
  3 H s       :     0.000018  s :     0.000018
      pz      :     0.000930  p :    -0.011681
      px      :    -0.001700
      py      :    -0.010911
      dz2     :     0.000072  d :    -0.000196
      dxz     :     0.000045
      dyz     :    -0.000225
      dx2y2   :    -0.000008
      dxy     :    -0.000080
  4 H s       :     0.000051  s :     0.000051
      pz      :     0.000905  p :    -0.011604
      px      :    -0.001672
      py      :    -0.010837
      dz2     :     0.000073  d :    -0.000195
      dxz     :     0.000045
      dyz     :    -0.000228
      dx2y2   :    -0.000008
      dxy     :    -0.000077
  5 H s       :     0.002670  s :     0.002670
      pz      :     0.000031  p :     0.001613
      px      :     0.001005
      py      :     0.000577
      dz2     :     0.000038  d :     0.000155
      dxz     :     0.000060
      dyz     :     0.000030
      dx2y2   :     0.000044
      dxy     :    -0.000017
  6 H s       :     0.002549  s :     0.002549
      pz      :     0.000078  p :     0.002303
      px      :     0.000834
      py      :     0.001391
      dz2     :     0.000037  d :     0.000150
      dxz     :     0.000054
      dyz     :     0.000032
      dx2y2   :     0.000042
      dxy     :    -0.000015


                      *****************************
                      * MAYER POPULATION ANALYSIS *
                      *****************************

  NA   - Mulliken gross atomic population
  ZA   - Total nuclear charge
  QA   - Mulliken gross atomic charge
  VA   - Mayer's total valence
  BVA  - Mayer's bonded valence
  FA   - Mayer's free valence

  ATOM       NA         ZA         QA         VA         BVA        FA
  0 O      8.3712     8.0000    -0.3712     1.6245     1.7538    -0.1293
  1 C      6.4619     6.0000    -0.4619     3.3770     3.6210    -0.2440
  2 C      6.0840     6.0000    -0.0840     3.6706     3.6467     0.0239
  3 H      0.7099     1.0000     0.2901     0.9064     0.9319    -0.0255
  4 H      0.7299     1.0000     0.2701     0.9567     0.9343     0.0224
  5 H      0.8157     1.0000     0.1843     1.0764     1.0777    -0.0013
  6 H      0.8275     1.0000     0.1725     1.1133     1.0680     0.0453

  Mayer bond orders larger than 0.100000
B(  0-O ,  1-C ) :   0.9260 B(  0-O ,  2-C ) :   0.8479 B(  1-C ,  2-C ) :   0.7887 
B(  1-C ,  3-H ) :   0.9472 B(  1-C ,  4-H ) :   0.9496 B(  2-C ,  5-H ) :   1.0139 
B(  2-C ,  6-H ) :   1.0007 


-------
TIMINGS
-------

Total TD-DFT gradient time  ....        6.566 sec

Fock matrix formation       ....       1.215 sec  ( 18.5%)
  Coulomb formation         ....       0.936 sec  ( 77.1% of F)
  XC integration            ....       0.279 sec  ( 22.9% of F)
Z-vector equation           ....       2.638 sec  ( 40.2%)
Densities                   ....       0.000 sec  (  0.0%)
One electron gradient       ....       0.009 sec  (  0.1%)
RI-J Coulomb gradient       ....       0.094 sec  (  1.4%)
COSX gradient               ....       0.485 sec  (  7.4%)
XC gradient                 ....       1.906 sec  ( 29.0%)

Maximum memory used throughout the entire CIS-calculation: 35.8 MB
=> NOW LEAVING ORCA_CIS


-------------------------------------------------------------------------------
                          DFT DISPERSION CORRECTION                            
                                                                               
                              DFTD3 V3.1  Rev 1                                
                          USING Becke-Johnson damping                          
-------------------------------------------------------------------------------
The WB97M functional is recognized
Active option DFTDOPT                   ...         4   

molecular C6(AA) [au] = 350.827643 


            DFT-D V3
 parameters
 s6 scaling factor         :     1.0000 
 a1 scaling factor         :     0.5660 
 s8 scaling factor         :     0.3908 
 a2 scaling factor         :     3.1280 
 ad hoc parameters k1-k3   :    16.0000     1.3333    -4.0000 

 Edisp/kcal,au: -3.265399095609  -0.005203744138 
 E6   /kcal   :  -2.633456758 
 E8   /kcal   :  -0.631942337 
 % E8         :  19.352683044 

-------------------------   ----------------
Dispersion correction           -0.005203744
-------------------------   ----------------


-------------------------   --------------------
FINAL SINGLE POINT ENERGY      -153.872708410440
-------------------------   --------------------

[1740996092.181303] [ohm:3117992:0]        ib_iface.c:1059 UCX  ERROR ibv_create_cq(cqe=256) failed: Connection timed out
[1740996092.181420] [ohm:3117994:0]        ib_iface.c:1059 UCX  ERROR ibv_create_cq(cqe=256) failed: Connection timed out
[1740996092.183164] [ohm:3117996:0]        ib_iface.c:1059 UCX  ERROR ibv_create_cq(cqe=256) failed: Connection timed out
[1740996092.194824] [ohm:3117991:0]        ib_iface.c:1059 UCX  ERROR ibv_create_cq(cqe=256) failed: Connection timed out
[1740996092.195982] [ohm:3117995:0]        ib_iface.c:1059 UCX  ERROR ibv_create_cq(cqe=256) failed: Connection timed out
[1740996092.196867] [ohm:3117998:0]        ib_iface.c:1059 UCX  ERROR ibv_create_cq(cqe=256) failed: Connection timed out
[1740996092.196881] [ohm:3118012:0]        ib_iface.c:1059 UCX  ERROR ibv_create_cq(cqe=256) failed: Connection timed out
[1740996092.197349] [ohm:3118004:0]        ib_iface.c:1059 UCX  ERROR ibv_create_cq(cqe=256) failed: Connection timed out
[1740996092.198703] [ohm:3117993:0]        ib_iface.c:1059 UCX  ERROR ibv_create_cq(cqe=256) failed: Connection timed out
[1740996092.199938] [ohm:3118001:0]        ib_iface.c:1059 UCX  ERROR ibv_create_cq(cqe=256) failed: Connection timed out
[1740996092.201186] [ohm:3117997:0]        ib_iface.c:1059 UCX  ERROR ibv_create_cq(cqe=256) failed: Connection timed out
[1740996092.201167] [ohm:3117999:0]        ib_iface.c:1059 UCX  ERROR ibv_create_cq(cqe=256) failed: Connection timed out
[1740996092.201635] [ohm:3118003:0]        ib_iface.c:1059 UCX  ERROR ibv_create_cq(cqe=256) failed: Connection timed out
[1740996092.206130] [ohm:3118017:0]        ib_iface.c:1059 UCX  ERROR ibv_create_cq(cqe=256) failed: Connection timed out
[1740996092.206226] [ohm:3118006:0]        ib_iface.c:1059 UCX  ERROR ibv_create_cq(cqe=256) failed: Connection timed out
[1740996092.206677] [ohm:3118019:0]        ib_iface.c:1059 UCX  ERROR ibv_create_cq(cqe=256) failed: Connection timed out


           ************************************************************
           *        Program running with 16 parallel MPI-processes    *
           *              working on a common directory               *
           ************************************************************

------------------------------------------------------------------------------
                              ORCA PROPERTY CALCULATIONS
------------------------------------------------------------------------------

GBWName                                 ... orca.gbw
Number of atoms                         ...      7
Number of basis functions               ...    182
Max core memory                         ...   1024 MB

Electric properties:
Dipole moment                           ... YES
Quadrupole moment                       ...  NO
Static polarizability (Dipole/Dipole)   ...  NO
Static polarizability (Dipole/Quad.)    ...  NO
Static polarizability (Quad./Quad.)     ...  NO
Static polarizability (Velocity)        ...  NO

Atomic electric properties:
Dipole moment                           ...  NO
Quadrupole moment                       ...  NO
Static polarizability                   ...  NO

Choice of electric origin               ... Center of mass
Position of electric origin             ...    -0.020403    -0.039356    -0.000018

General magnetic properties:
Magnetizability                         ...  NO

EPR properties:
g-Tensor (aka g-matrix)                 ...  NO
Zero-Field splitting spin-orbit         ...  NO
Zero-field splitting spin-spin          ...  NO
Hyperfine couplings                     ...  NO (   0 nuclei)
Quadrupole couplings                    ...  NO (   0 nuclei)
Contact density                         ...  NO (   0 nuclei)

NMR properties:
Chemical shifts                         ...  NO (   0 nuclei)
Spin-rotation constants                 ...  NO (   0 nuclei)
Spin-spin couplings                     ...  NO (   0 nuclei,    0 pairs)

Choice of magnetic origin               ... GIAO
Position of magnetic origin             ...     0.000000     0.000000     0.000000

Properties with geometric perturbations:
SCF Hessian                             ...  NO
IR spectrum                             ...  NO
VCD spectrum                            ...  NO
X-ray spectroscopy properties:
SCF XES/XAS/RIXS spectra                ...  NO


-------------
DIPOLE MOMENT
-------------

Method             : SCF
Type of density    : Electron Density
Multiplicity       :   3
Irrep              :   0
Energy             :  -153.6166347326077357 Eh
Relativity type    : 
Basis              : AO
                                X                 Y                 Z
Electronic contribution:     -0.902784335       2.459704471      -0.000065345
Nuclear contribution   :      0.065560282      -2.357315249       0.000060649
                        -----------------------------------------
Total Dipole Moment    :     -0.837224053       0.102389222      -0.000004696
                        -----------------------------------------
Magnitude (a.u.)       :      0.843461717
Magnitude (Debye)      :      2.143909305



--------------------
Rotational spectrum 
--------------------
 
Rotational constants in cm-1:             0.910153             0.703118             0.472702 
Rotational constants in MHz :         27285.686619         21078.944047         14171.249463 

Dipole components along the rotational axes: 
x,y,z [a.u.] :    -0.831534    -0.141347    -0.000019 
x,y,z [Debye]:    -2.113591    -0.359274    -0.000047 

 

-------------
DIPOLE MOMENT
-------------

Method             : TDA/CIS
Type of density    : Electron Density
Level              : Relaxed density
State              :   1
Multiplicity       :   3
Irrep              :   0
Energy             :     0.0000000000000000 Eh
Relativity type    : 
Basis              : AO
                                X                 Y                 Z
Electronic contribution:      0.109744939       1.015086591      -0.007701079
Nuclear contribution   :      0.065560282      -2.357315249       0.000060649
                        -----------------------------------------
Total Dipole Moment    :      0.175305221      -1.342228657      -0.007640431
                        -----------------------------------------
Magnitude (a.u.)       :      1.353649905
Magnitude (Debye)      :      3.440704621



--------------------
Rotational spectrum 
--------------------
 
Rotational constants in cm-1:             0.910153             0.703118             0.472702 
Rotational constants in MHz :         27285.686619         21078.944047         14171.249463 

Dipole components along the rotational axes: 
x,y,z [a.u.] :     0.551879    -1.236017    -0.007681 
x,y,z [Debye]:     1.402766    -3.141706    -0.019524 

 

Dipole moment calculation done in   0.0 sec 

Maximum memory used throughout the entire PROP-calculation: 7.6 MB
[1740996092.853164] [ohm:3118075:0]        ib_iface.c:1059 UCX  ERROR ibv_create_cq(cqe=256) failed: Connection timed out
[1740996092.853169] [ohm:3118077:0]        ib_iface.c:1059 UCX  ERROR ibv_create_cq(cqe=256) failed: Connection timed out
[1740996092.868266] [ohm:3118079:0]        ib_iface.c:1059 UCX  ERROR ibv_create_cq(cqe=256) failed: Connection timed out
[1740996092.870356] [ohm:3118074:0]        ib_iface.c:1059 UCX  ERROR ibv_create_cq(cqe=256) failed: Connection timed out
[1740996092.870501] [ohm:3118076:0]        ib_iface.c:1059 UCX  ERROR ibv_create_cq(cqe=256) failed: Connection timed out
[1740996092.873911] [ohm:3118078:0]        ib_iface.c:1059 UCX  ERROR ibv_create_cq(cqe=256) failed: Connection timed out
[1740996092.877153] [ohm:3118081:0]        ib_iface.c:1059 UCX  ERROR ibv_create_cq(cqe=256) failed: Connection timed out
[1740996092.877153] [ohm:3118087:0]        ib_iface.c:1059 UCX  ERROR ibv_create_cq(cqe=256) failed: Connection timed out
[1740996092.877313] [ohm:3118084:0]        ib_iface.c:1059 UCX  ERROR ibv_create_cq(cqe=256) failed: Connection timed out
[1740996092.879935] [ohm:3118080:0]        ib_iface.c:1059 UCX  ERROR ibv_create_cq(cqe=256) failed: Connection timed out
[1740996092.879992] [ohm:3118082:0]        ib_iface.c:1059 UCX  ERROR ibv_create_cq(cqe=256) failed: Connection timed out
[1740996092.895221] [ohm:3118098:0]        ib_iface.c:1059 UCX  ERROR ibv_create_cq(cqe=256) failed: Connection timed out
[1740996092.895369] [ohm:3118089:0]        ib_iface.c:1059 UCX  ERROR ibv_create_cq(cqe=256) failed: Connection timed out
[1740996092.896438] [ohm:3118093:0]        ib_iface.c:1059 UCX  ERROR ibv_create_cq(cqe=256) failed: Connection timed out
[1740996092.896769] [ohm:3118102:0]        ib_iface.c:1059 UCX  ERROR ibv_create_cq(cqe=256) failed: Connection timed out
[1740996092.897010] [ohm:3118086:0]        ib_iface.c:1059 UCX  ERROR ibv_create_cq(cqe=256) failed: Connection timed out

--------------------------------
SUGGESTED CITATIONS FOR THIS RUN
--------------------------------

Below you find a list of papers that are relevant to this ORCA run
We neither can nor want to force you to cite these papers, but we appreciate if you do
You receive ORCA, which is the product of decades of hard work by many enthusiastic individuals, for free
The only thing we kindly ask in return is that you cite our papers,
We deeply appreciate it, if you show your appreciation for ORCA by not just citing the generic ORCA reference.

Please note that relegating all ORCA citations to the supporting information does *not* help us.
SI sections are not indexed - citations you put there will not count into any citation statistics
But we need these citations in order to attract the funding resources that allow us to do what we are doing

Therefore, if you are a happy ORCA user, please consider citing a few of the papers listed below in the main body of your paper

In addition to the list printed below, the program has created the file orca.bibtex that contains the list in bibtex format
You can import this file easily into all common literature databanks and citation aid programs


List of essential papers. We consider these as the minimum necessary citations

  1. Neese,F.
     Software update: the ORCA program system, version 5.0
     WIRES Comput. Molec. Sci., 2022 12(1)e1606
     doi.org/10.1002/wcms.1606

List of papers to cite with high priority. The work reported in these papers was absolutely
necessary for this run to complete.
Our perspective: the developers of density functionals and basis sets usually get cited in chemistry papers
Good! But without the algorithms to do something with them, the functionals or basis sets would not do anything.
Hence, in our opinion, the algorithm design and method developments papers are equally worthy of getting cited

  1. Neese,F.; Olbrich,G.
     Efficient use of the resolution of the identity approximation in time-dependent density functional calculations with hybrid density functionals
     Chem. Phys. Lett., 2002 362 170-178
     doi.org/10.1016/s0009-2614(02)01053-9
  2. Neese,F.
     An improvement of the resolution of the identity approximation for the formation of the Coulomb matrix
     J. Comp. Chem., 2003 24(14)1740-1747
     doi.org/10.1002/jcc.10318
  3. Neese,F.; Wennmohs,F.; Hansen,A.; Becker,U.
     Efficient, approximate and parallel Hartree-Fock and hybrid DFT calculations. A 'chain-of-spheres' algorithm for the Hartree-Fock exchange
     Chem. Phys., 2009 356(1-3)98-109
     doi.org/10.1016/j.chemphys.2008.10.036
  4. Petrenko,T.; Kossmann,S.; Neese,F.
     Efficient time-dependent density functional theory approximations for hybrid density functionals: Analytical gradients and parallelization
     J. Chem. Phys., 2011 134 054116
     doi.org/10.1063/1.3533441
  5. Helmich-Paris,B.; de Souza,B.; Neese,F.; Izsák,R.
     An improved chain of spheres for exchange algorithm
     J. Chem. Phys., 2021 155 104109
     doi.org/doi: 10.1063/5.0058766.
  6. Neese,F.
     The SHARK Integral Generation and Digestion System
     J. Comp. Chem., 2022  1-16
     doi.org/10.1002/jcc.26942
  7. Lehtola,S.; Steigemann,C.; Oliveira,M.; Marques,M.
     Recent developments in Libxc - A comprehensive library of functionals for density functional theory
     Software X, 2018 7 
     doi.org/10.1016/j.softx.2017.11.002
  8. Grimme,S.; Antony,J.; Ehrlich,S.; Krieg,H.
     A consistent and accurate ab initio parametrization of density functional dispersion correction (DFT-D) for the 94 elements H-Pu
     J. Chem. Phys., 2010 132 154104-XXXX
     doi.org/10.1063/1.3382344
  9. Grimme,S.; Ehrlich,S.; Goerigk,L.
     Effect of the damping function in dispersion corrected density functional theory
     J. Comput. Chem., 2011 32(7)1456-1465
     doi.org/10.1002/jcc.21759

List of suggested additional citations. These are papers that are important in the 'surrounding' of 
of this run, or papers that preceded the highly important papers. If you like your results we are grateful for a citation.

  1. Izsak,R.; Neese,F.
     An overlap fitted chain of spheres exchange method
     J. Chem. Phys., 2011 135 144105
     doi.org/10.1063/1.3646921
  2. Izsak,R.; Hansen,A.; Neese,F.
     The resolution of identity and chain of spheres approximations for the LPNO-CCSD singles Fock term
     Molec. Phys., 2012 110 2413-2417
     doi.org/10.1080/00268976.2012.687466
  3. Neese,F.
     The ORCA program system
     WIRES Comput. Molec. Sci., 2012 2(1)73-78
     doi.org/10.1002/wcms.81
  4. Izsak,R.; Neese,F.; Klopper,W.
     Robust fitting techniques in the chain of spheres approximation to the Fock exchange: The role of the complementary space
     J. Chem. Phys., 2013 139 
     doi.org/10.1063/1.4819264
  5. Neese,F.
     Software update: the ORCA program system, version 4.0
     WIRES Comput. Molec. Sci., 2018 8(1)1-6
     doi.org/10.1002/wcms.1327
  6. Neese,F.; Wennmohs,F.; Becker,U.; Riplinger,C.
     The ORCA quantum chemistry program package
     J. Chem. Phys., 2020 152 Art. No. L224108
     doi.org/10.1063/5.0004608

List of optional additional citations

  1. Neese,F.
     Approximate second-order SCF convergence for spin unrestricted wavefunctions
     Chem. Phys. Lett., 2000 325(1-3)93-98
     doi.org/10.1016/s0009-2614(00)00662-x

Timings for individual modules:

Sum of individual times          ...       21.155 sec (=   0.353 min)
Startup calculation              ...        1.005 sec (=   0.017 min)   4.7 %
SCF iterations                   ...        9.701 sec (=   0.162 min)  45.9 %
Property integrals               ...        0.689 sec (=   0.011 min)   3.3 %
Property calculations            ...        0.668 sec (=   0.011 min)   3.2 %
CIS module                       ...        9.094 sec (=   0.152 min)  43.0 %
                             ****ORCA TERMINATED NORMALLY****
TOTAL RUN TIME: 0 days 0 hours 0 minutes 21 seconds 894 msec
