
                                 *****************
                                 * O   R   C   A *
                                 *****************

                                            #,                                       
                                            ###                                      
                                            ####                                     
                                            #####                                    
                                            ######                                   
                                           ########,                                 
                                     ,,################,,,,,                         
                               ,,#################################,,                 
                          ,,##########################################,,             
                       ,#########################################, ''#####,          
                    ,#############################################,,   '####,        
                  ,##################################################,,,,####,       
                ,###########''''           ''''###############################       
              ,#####''   ,,,,##########,,,,          '''####'''          '####       
            ,##' ,,,,###########################,,,                        '##       
           ' ,,###''''                  '''############,,,                           
         ,,##''                                '''############,,,,        ,,,,,,###''
      ,#''                                            '''#######################'''  
     '                                                          ''''####''''         
             ,#######,   #######,   ,#######,      ##                                
            ,#'     '#,  ##    ##  ,#'     '#,    #''#        ,####,   ,####,        
            ##       ##  ##   ,#'  ##            #'  '#       #'       #'  '#        
            ##       ##  #######   ##           ,######,      #####,   #    #        
            '#,     ,#'  ##    ##  '#,     ,#' ,#      #,     #,   #   #,  ,#        
             '#######'   ##     ##  '#######'  #'      '#     '####' # '####'        



                #########################################################
                #                        -***-                          #
                #          Department of theory and spectroscopy        #
                #                                                       #
                #                      Frank Neese                      #
                #                                                       #
                #     Directorship, Architecture, Infrastructure        #
                #                    SHARK, DRIVERS                     #
                #        Core code/Algorithms in most modules           #
                #                                                       #
                #        Max Planck Institute fuer Kohlenforschung      #
                #                Kaiser Wilhelm Platz 1                 #
                #                 D-45470 Muelheim/Ruhr                 #
                #                      Germany                          #
                #                                                       #
                #                  All rights reserved                  #
                #                        -***-                          #
                #########################################################


                         Program Version 6.0.0  -   RELEASE  -


 With contributions from (in alphabetic order):
   Daniel Aravena         : Magnetic Suceptibility
   Michael Atanasov       : Ab Initio Ligand Field Theory (pilot matlab implementation)
   Alexander A. Auer      : GIAO ZORA, VPT2 properties, NMR spectrum
   Ute Becker             : All parallelization in ORCA, NUMFREQ, NUMCALC
   Giovanni Bistoni       : ED, misc. LED, open-shell LED, HFLD
   Martin Brehm           : Molecular dynamics
   Dmytro Bykov           : pre 5.0 version of the SCF Hessian
   Marcos Casanova-Páez   : Triplet and SCS-CIS(D). UHF-(DLPNO)-IP/EA/STEOM-CCSD. UHF-CVS-IP/STEOM-CCSD
   Vijay G. Chilkuri      : MRCI spin determinant printing, contributions to CSF-ICE
   Pauline Colinet        : FMM embedding
   Dipayan Datta          : RHF DLPNO-CCSD density
   Achintya Kumar Dutta   : EOM-CC, STEOM-CC
   Nicolas Foglia         : Exact transition moments, OPA infrastructure, MCD improvements
   Dmitry Ganyushin       : Spin-Orbit,Spin-Spin,Magnetic field MRCI
   Miquel Garcia          : C-PCM and meta-GGA Hessian, CCSD/C-PCM, Gaussian charge scheme
   Tiago L. C. Gouveia    : GS-ROHF, GS-ROCIS
   Yang Guo               : DLPNO-NEVPT2, F12-NEVPT2, CIM, IAO-localization
   Andreas Hansen         : Spin unrestricted coupled pair/coupled cluster methods
   Ingolf Harden          : AUTO-CI MPn and infrastructure 
   Benjamin Helmich-Paris : MC-RPA, TRAH-(SCF,CASSCF), AVAS, COSX integrals, SCF dyn. polar.
   Lee Huntington         : MR-EOM, pCC
   Robert Izsak           : Overlap fitted RIJCOSX, COSX-SCS-MP3, EOM
   Riya Kayal             : Wick's Theorem for AUTO-CI, AUTO-CI UHF-CCSDT
   Emily Kempfer          : AUTO-CI, RHF CISDT and CCSDT
   Christian Kollmar      : KDIIS, OOCD, Brueckner-CCSD(T), CCSD density, CASPT2, CASPT2-K, improved NEVPT2
   Axel Koslowski         : Symmetry handling
   Simone Kossmann        : Meta GGA functionals, TD-DFT gradient, OOMP2, (MP2 Hessian; deprecated post 5.0)
   Lucas Lang             : DCDCAS
   Marvin Lechner         : AUTO-CI (C++ implementation), FIC-MRCC
   Spencer Leger          : CASSCF response
   Dagmar Lenk            : GEPOL surface, SMD, ORCA-2-JSON
   Dimitrios Liakos       : Extrapolation schemes; Compound Job, initial MDCI parallelization
   Dimitrios Manganas     : Further ROCIS development; embedding schemes. LFT, Crystal Embedding
   Dimitrios Pantazis     : SARC Basis sets
   Anastasios Papadopoulos: AUTO-CI, single reference methods and gradients
   Taras Petrenko         : pre 6.0 DFT Hessian and TD-DFT gradient, (ASA, deprecated), ECA, 1-Electron XAS/XES, NRVS
   Peter Pinski           : DLPNO-MP2, DLPNO-MP2 Gradient
   Christoph Reimann      : Effective Core Potentials
   Marius Retegan         : Local ZFS, SOC
   Christoph Riplinger    : Optimizer, TS searches, QM/MM, DLPNO-CCSD(T), (RO)-DLPNO pert. Triples
   Michael Roemelt        : Original ROCIS implementation
   Masaaki Saitow         : Open-shell DLPNO-CCSD energy and density
   Barbara Sandhoefer     : DKH picture change effects
   Kantharuban Sivalingam : CASSCF convergence/infrastructure, NEVPT2 and variants, FIC-MRCI
   Bernardo de Souza      : ESD, SOC TD-DFT
   Georgi Stoychev        : AutoAux, RI-MP2 NMR, DLPNO-MP2 response, X2C
   Van Anh Tran           : RI-MP2 g-tensors
   Willem Van den Heuvel  : Paramagnetic NMR
   Zikuan Wang            : NOTCH, Electric field optimization 
   Frank Wennmohs         : Technical directorship and infrastructure
   Hang Xu                : AUTO-CI-Response properties 


 We gratefully acknowledge several colleagues who have allowed us to
 interface, adapt or use parts of their codes:
   Stefan Grimme, W. Hujo, H. Kruse, P. Pracht,  : VdW corrections, initial TS optimization,
                  C. Bannwarth, S. Ehlert,         DFT functionals, gCP, sTDA/sTD-DF
                  L. Wittmann, M. Mueller
   Ed Valeev, F. Pavosevic, A. Kumar             : LibInt (2-el integral package), F12 methods
   Garnet Chan, S. Sharma, J. Yang, R. Olivares  : DMRG
   Ulf Ekstrom                                   : XCFun DFT Library
   Mihaly Kallay                                 : mrcc  (arbitrary order and MRCC methods)
   Frank Weinhold                                : gennbo (NPA and NBO analysis)
   Simon Mueller                                 : openCOSMO-RS
   Christopher J. Cramer and Donald G. Truhlar   : smd solvation model
   Lars Goerigk                                  : TD-DFT with DH, B97 family of functionals
   V. Asgeirsson, H. Jonsson                     : NEB implementation
   FAccTs GmbH                                   : IRC, NEB, NEB-TS, DLPNO-Multilevel, CI-OPT
                                                   MM, QMMM, 2- and 3-layer-ONIOM, Crystal-QMMM,
                                                   LR-CPCM, SF, NACMEs, symmetry and pop. for TD-DFT,
                                                   nearIR, NL-DFT gradient (VV10), updates on ESD,
                                                   ML-optimized integration grids, MBIS, APM,
                                                   GOAT, DOCKER, SOLVATOR, interface openCOSMO-RS
   S Lehtola, MJT Oliveira, MAL Marques          : LibXC Library
   Liviu Ungur et al                             : ANISO software


 Your calculation uses the libint2 library for the computation of 2-el integrals
 For citations please refer to: http://libint.valeyev.net

 Your ORCA version has been built with support for libXC version: 6.2.2
 For citations please refer to: https://libxc.gitlab.io

 This ORCA versions uses:
   CBLAS   interface :  Fast vector & matrix operations
   LAPACKE interface :  Fast linear algebra routines
   SCALAPACK package :  Parallel linear algebra routines
   Shared memory     :  Shared parallel matrices
   BLAS/LAPACK       :  OpenBLAS 0.3.27  USE64BITINT DYNAMIC_ARCH NO_AFFINITY Zen SINGLE_THREADED
        Core in use  :  Zen
   Copyright (c) 2011-2014, The OpenBLAS Project


Your calculation utilizes the atom-pairwise dispersion correction
with the Becke-Johnson damping scheme (D3BJ)


Warning: RI is on but no J-basis has been assigned. Assigning Def2/J (nothing to worry about!)
================================================================================

----- Orbital basis set information -----
Your calculation utilizes the basis: def2-TZVPPD
   F. Weigend and R. Ahlrichs, Phys. Chem. Chem. Phys. 7, 3297 (2005).
   D. Rappoport and F. Furche, J. Chem. Phys. 133, 134105 (2010)
   D. Rappoport, J. Chem. Phys. 155, 124102 (2021).

----- AuxJ basis set information -----
Your calculation utilizes the auxiliary basis: def2/J
   F. Weigend, Phys. Chem. Chem. Phys. 8, 1057 (2006).

================================================================================
                                        WARNINGS
                       Please study these warnings very carefully!
================================================================================

Using LibXC functional ID 531 : wB97M-V exchange-correlation functional
[ 1]  N. Mardirossian and M. Head-Gordon.,  J. Chem. Phys. 144, 214110 (2016)
Using LibXC functional ID 531 : wB97M-V exchange-correlation functional
[ 1]  N. Mardirossian and M. Head-Gordon.,  J. Chem. Phys. 144, 214110 (2016)

WARNING: B97M-V or wB97M-V functional requested.
  ===> : libXC variant has now been activated.
         Any manually given DFX/HFX/RangeSep scaling parameters are IGNORED!

Your calculation utilizes LibXC
 by S Lehtola, C Steigemann, MJT Oliveira & MAL Marques
Please cite in your paper:
 S Lehtola, C Steigemann, MJT Oliveira & MAL Marques, SoftwareX, 7, (2018), 1.
   


WARNING: your system is open-shell and RHF/RKS was chosen
  ===> : WILL SWITCH to UHF/UKS

INFO   : Checking CIS options ...

WARNING: CIS/ROCIS methods need fully converged wavefunctions
  ===> : Setting SCFConvForced true
         You can overwrite this default with %scf ConvForced false 


================================================================================
                                       INPUT FILE
================================================================================
NAME = orca.inp
|  1> ! Engrad def2-TZVPPD wB97M-D3BJ 
|  2> %pal nprocs 8 end%pal nprocs 64 end 
|  3> %tddft Nroots 2 Iroot 2 
|  4> sf true 
|  5> end 
|  6> *xyz 0 3 
|  7> O   2.40195386 -0.39063364 -1.11127086
|  8> O   0.0690808 2.8972845 -2.01768338
|  9> O   0.18367385 -3.83932395 0.77256138
| 10> O   -2.05286975 -1.00020622 -1.55821285
| 11> N   0.42131657 -1.95882582 2.01762062
| 12> N   -1.37402338 -0.28986204 0.47439213
| 13> N   1.07998584 -1.99593899 -0.20601469
| 14> N   -0.72731322 0.82301794 -1.53473054
| 15> C   1.46967684 0.04203345 1.02010747
| 16> C   -0.50291434 2.85222726 -0.00372706
| 17> C   0.5779769 -0.53216657 2.06655831
| 18> C   -0.43971249 0.29514113 1.34723774
| 19> C   2.30859067 1.26779138 1.27033555
| 20> C   -1.73026454 3.61935337 0.18065476
| 21> C   1.71232669 -0.75406133 -0.1846563
| 22> C   -0.38118495 2.12104074 -1.20395419
| 23> C   0.52643968 -2.68443732 0.87520343
| 24> C   -1.44181027 -0.19879325 -0.90119356
| 25> H   0.79894409 -0.19491125 3.07186199
| 26> H   -0.52622356 1.34756922 1.59927304
| 27> H   2.50384351 1.796192 0.3491039
| 28> H   1.80450656 1.94349433 1.96188654
| 29> H   3.28371273 0.99382842 1.71465715
| 30> H   -2.42495634 2.94607536 0.71206233
| 31> H   -1.62426336 4.51762026 0.78574681
| 32> H   -2.20275097 3.87203463 -0.77325489
| 33> H   -0.03187238 -2.43641591 2.76880949
| 34> H   -1.77441847 -1.15941392 0.7810763
| 35> H   1.23780624 -2.54596732 -1.02520346
| 36> H   -0.62050504 0.65694154 -2.521883
| 37> *
| 38> 
| 39>                          ****END OF INPUT****
================================================================================

                     *******************************
                     * Energy+Gradient Calculation *
                     *******************************

---------------------------------
CARTESIAN COORDINATES (ANGSTROEM)
---------------------------------
  O      2.401954   -0.390634   -1.111271
  O      0.069081    2.897285   -2.017683
  O      0.183674   -3.839324    0.772561
  O     -2.052870   -1.000206   -1.558213
  N      0.421317   -1.958826    2.017621
  N     -1.374023   -0.289862    0.474392
  N      1.079986   -1.995939   -0.206015
  N     -0.727313    0.823018   -1.534731
  C      1.469677    0.042033    1.020107
  C     -0.502914    2.852227   -0.003727
  C      0.577977   -0.532167    2.066558
  C     -0.439712    0.295141    1.347238
  C      2.308591    1.267791    1.270336
  C     -1.730265    3.619353    0.180655
  C      1.712327   -0.754061   -0.184656
  C     -0.381185    2.121041   -1.203954
  C      0.526440   -2.684437    0.875203
  C     -1.441810   -0.198793   -0.901194
  H      0.798944   -0.194911    3.071862
  H     -0.526224    1.347569    1.599273
  H      2.503844    1.796192    0.349104
  H      1.804507    1.943494    1.961887
  H      3.283713    0.993828    1.714657
  H     -2.424956    2.946075    0.712062
  H     -1.624263    4.517620    0.785747
  H     -2.202751    3.872035   -0.773255
  H     -0.031872   -2.436416    2.768809
  H     -1.774418   -1.159414    0.781076
  H      1.237806   -2.545967   -1.025203
  H     -0.620505    0.656942   -2.521883

----------------------------
CARTESIAN COORDINATES (A.U.)
----------------------------
  NO LB      ZA    FRAG     MASS         X           Y           Z
   0 O     8.0000    0    15.999    4.539035   -0.738191   -2.099998
   1 O     8.0000    0    15.999    0.130544    5.475074   -3.812869
   2 O     8.0000    0    15.999    0.347093   -7.255271    1.459929
   3 O     8.0000    0    15.999   -3.879362   -1.890116   -2.944596
   4 N     7.0000    0    14.007    0.796173   -3.701644    3.812750
   5 N     7.0000    0    14.007   -2.596528   -0.547760    0.896471
   6 N     7.0000    0    14.007    2.040877   -3.771778   -0.389311
   7 N     7.0000    0    14.007   -1.374423    1.555279   -2.900220
   8 C     6.0000    0    12.011    2.777287    0.079432    1.927724
   9 C     6.0000    0    12.011   -0.950370    5.389928   -0.007043
  10 C     6.0000    0    12.011    1.092218   -1.005649    3.905229
  11 C     6.0000    0    12.011   -0.830936    0.557736    2.545910
  12 C     6.0000    0    12.011    4.362604    2.395779    2.400586
  13 C     6.0000    0    12.011   -3.269726    6.839587    0.341388
  14 C     6.0000    0    12.011    3.235828   -1.424969   -0.348950
  15 C     6.0000    0    12.011   -0.720335    4.008186   -2.275144
  16 C     6.0000    0    12.011    0.994827   -5.072851    1.653895
  17 C     6.0000    0    12.011   -2.724627   -0.375665   -1.703009
  18 H     1.0000    0     1.008    1.509786   -0.368329    5.804978
  19 H     1.0000    0     1.008   -0.994418    2.546537    3.022188
  20 H     1.0000    0     1.008    4.731579    3.394311    0.659711
  21 H     1.0000    0     1.008    3.410023    3.672672    3.707428
  22 H     1.0000    0     1.008    6.205318    1.878064    3.240232
  23 H     1.0000    0     1.008   -4.582503    5.567276    1.345603
  24 H     1.0000    0     1.008   -3.069413    8.537065    1.484846
  25 H     1.0000    0     1.008   -4.162596    7.317085   -1.461240
  26 H     1.0000    0     1.008   -0.060230   -4.604159    5.232292
  27 H     1.0000    0     1.008   -3.353165   -2.190975    1.476020
  28 H     1.0000    0     1.008    2.339115   -4.811181   -1.937354
  29 H     1.0000    0     1.008   -1.172585    1.241440   -4.765668

--------------------------------
INTERNAL COORDINATES (ANGSTROEM)
--------------------------------
 O      0   0   0     0.000000000000     0.00000000     0.00000000
 O      1   0   0     4.132104314490     0.00000000     0.00000000
 O      1   2   0     4.512544178788   114.97052923     0.00000000
 O      3   1   2     4.300607546700    61.63202135    22.45053348
 N      3   1   2     2.267800650501    62.86798811   290.89170526
 N      4   3   1     2.257632444142    64.11266027   286.12545701
 N      1   2   3     2.268059400890   108.76407188     0.71466328
 N      4   3   1     2.254284336706   102.85506289   338.30736905
 C      1   2   3     2.366244881322    80.19218294   304.18299684
 C      2   1   3     2.094093754809    85.76350580    54.80782340
 C      5   3   1     1.436068930138   148.64106054    27.92324682
 C      6   4   3     1.406067212824   152.82406960    87.35932751
 C      9   1   2     1.506277865848    94.53112314   286.75511026
 C     10   2   1     1.459063959404   109.87625611   198.25453212
 C      1   2   3     1.210900434497    94.88406627   331.37706437
 C      2   1   3     1.211383017555    63.42429444    19.55026694
 C      3   1   2     1.209043809296    33.49487741   297.28446946
 C      4   3   1     1.203050615732    83.08718043   312.30862051
 H     11   5   3     1.083145022121   111.29745913   188.93476688
 H     12   6   4     1.085638449162   119.63630016    97.25969168
 H     13   9   1     1.079814169062   110.92787251    33.27615428
 H     13   9   1     1.090375182386   110.62024003   154.04611507
 H     13   9   1     1.106047204950   110.86621677   273.62754840
 H     14  10   2     1.103763553117   105.63833866   127.90876178
 H     14  10   2     1.088235289266   114.98073276   245.99412216
 H     14  10   2     1.094090885645   111.99451892    12.02466968
 H      5   3   1     0.998877988986    88.21578398   183.14857286
 H      6   4   3     1.005232251888    83.26587765   310.51807482
 H      7   1   2     0.999254063466    88.29971734   112.15194346
 H      8   4   3     1.006707175516    85.33943492   113.36897895

---------------------------
INTERNAL COORDINATES (A.U.)
---------------------------
 O      0   0   0     0.000000000000     0.00000000     0.00000000
 O      1   0   0     7.808545511181     0.00000000     0.00000000
 O      1   2   0     8.527472665131   114.97052923     0.00000000
 O      3   1   2     8.126970472738    61.63202135    22.45053348
 N      3   1   2     4.285522155775    62.86798811   290.89170526
 N      4   3   1     4.266307030484    64.11266027   286.12545701
 N      1   2   3     4.286011123147   108.76407188     0.71466328
 N      4   3   1     4.259980024362   102.85506289   338.30736905
 C      1   2   3     4.471554791492    80.19218294   304.18299684
 C      2   1   3     3.957263695343    85.76350580    54.80782340
 C      5   3   1     2.713776987395   148.64106054    27.92324682
 C      6   4   3     2.657081958124   152.82406960    87.35932751
 C      9   1   2     2.846452648040    94.53112314   286.75511026
 C     10   2   1     2.757231295147   109.87625611   198.25453212
 C      1   2   3     2.288270196646    94.88406627   331.37706437
 C      2   1   3     2.289182146462    63.42429444    19.55026694
 C      3   1   2     2.284761683482    33.49487741   297.28446946
 C      4   3   1     2.273436188980    83.08718043   312.30862051
 H     11   5   3     2.046847455129   111.29745913   188.93476688
 H     12   6   4     2.051559349372   119.63630016    97.25969168
 H     13   9   1     2.040553055054   110.92787251    33.27615428
 H     13   9   1     2.060510477934   110.62024003   154.04611507
 H     13   9   1     2.090126308544   110.86621677   273.62754840
 H     14  10   2     2.085810831996   105.63833866   127.90876178
 H     14  10   2     2.056466665982   114.98073276   245.99412216
 H     14  10   2     2.067532139489   111.99451892    12.02466968
 H      5   3   1     1.887605840385    88.21578398   183.14857286
 H      6   4   3     1.899613657054    83.26587765   310.51807482
 H      7   1   2     1.888316518158    88.29971734   112.15194346
 H      8   4   3     1.902400858779    85.33943492   113.36897895

---------------------
BASIS SET INFORMATION
---------------------
There are 4 groups of distinct atoms

 Group   1 Type O   : 12s7p3d1f contracted to 6s4p3d1f pattern {621111/4111/111/1}
 Group   2 Type N   : 12s6p3d1f contracted to 6s3p3d1f pattern {621111/411/111/1}
 Group   3 Type C   : 12s6p3d1f contracted to 6s3p3d1f pattern {621111/411/111/1}
 Group   4 Type H   : 5s3p1d contracted to 3s3p1d pattern {311/111/1}

Atom   0O    basis set group =>   1
Atom   1O    basis set group =>   1
Atom   2O    basis set group =>   1
Atom   3O    basis set group =>   1
Atom   4N    basis set group =>   2
Atom   5N    basis set group =>   2
Atom   6N    basis set group =>   2
Atom   7N    basis set group =>   2
Atom   8C    basis set group =>   3
Atom   9C    basis set group =>   3
Atom  10C    basis set group =>   3
Atom  11C    basis set group =>   3
Atom  12C    basis set group =>   3
Atom  13C    basis set group =>   3
Atom  14C    basis set group =>   3
Atom  15C    basis set group =>   3
Atom  16C    basis set group =>   3
Atom  17C    basis set group =>   3
Atom  18H    basis set group =>   4
Atom  19H    basis set group =>   4
Atom  20H    basis set group =>   4
Atom  21H    basis set group =>   4
Atom  22H    basis set group =>   4
Atom  23H    basis set group =>   4
Atom  24H    basis set group =>   4
Atom  25H    basis set group =>   4
Atom  26H    basis set group =>   4
Atom  27H    basis set group =>   4
Atom  28H    basis set group =>   4
Atom  29H    basis set group =>   4
---------------------------------
AUXILIARY/J BASIS SET INFORMATION
---------------------------------
There are 4 groups of distinct atoms

 Group   1 Type O   : 12s5p4d2f1g contracted to 6s4p3d1f1g pattern {711111/2111/211/2/1}
 Group   2 Type N   : 12s5p4d2f1g contracted to 6s4p3d1f1g pattern {711111/2111/211/2/1}
 Group   3 Type C   : 12s5p4d2f1g contracted to 6s4p3d1f1g pattern {711111/2111/211/2/1}
 Group   4 Type H   : 5s2p1d contracted to 3s1p1d pattern {311/2/1}

Atom   0O    basis set group =>   1
Atom   1O    basis set group =>   1
Atom   2O    basis set group =>   1
Atom   3O    basis set group =>   1
Atom   4N    basis set group =>   2
Atom   5N    basis set group =>   2
Atom   6N    basis set group =>   2
Atom   7N    basis set group =>   2
Atom   8C    basis set group =>   3
Atom   9C    basis set group =>   3
Atom  10C    basis set group =>   3
Atom  11C    basis set group =>   3
Atom  12C    basis set group =>   3
Atom  13C    basis set group =>   3
Atom  14C    basis set group =>   3
Atom  15C    basis set group =>   3
Atom  16C    basis set group =>   3
Atom  17C    basis set group =>   3
Atom  18H    basis set group =>   4
Atom  19H    basis set group =>   4
Atom  20H    basis set group =>   4
Atom  21H    basis set group =>   4
Atom  22H    basis set group =>   4
Atom  23H    basis set group =>   4
Atom  24H    basis set group =>   4
Atom  25H    basis set group =>   4
Atom  26H    basis set group =>   4
Atom  27H    basis set group =>   4
Atom  28H    basis set group =>   4
Atom  29H    basis set group =>   4
[1739921501.176879] [ohm:593589:0]        ib_iface.c:1059 UCX  ERROR ibv_create_cq(cqe=256) failed: Connection timed out
[1739921501.192178] [ohm:593590:0]        ib_iface.c:1059 UCX  ERROR ibv_create_cq(cqe=256) failed: Connection timed out
[1739921501.212104] [ohm:593587:0]        ib_iface.c:1059 UCX  ERROR ibv_create_cq(cqe=256) failed: Connection timed out
[1739921501.240266] [ohm:593586:0]        ib_iface.c:1059 UCX  ERROR ibv_create_cq(cqe=256) failed: Connection timed out
[1739921501.241773] [ohm:593588:0]        ib_iface.c:1059 UCX  ERROR ibv_create_cq(cqe=256) failed: Connection timed out
[1739921501.249655] [ohm:593585:0]        ib_iface.c:1059 UCX  ERROR ibv_create_cq(cqe=256) failed: Connection timed out
[1739921501.257866] [ohm:593593:0]        ib_iface.c:1059 UCX  ERROR ibv_create_cq(cqe=256) failed: Connection timed out
[1739921501.269145] [ohm:593592:0]        ib_iface.c:1059 UCX  ERROR ibv_create_cq(cqe=256) failed: Connection timed out
[1739921501.271242] [ohm:593599:0]        ib_iface.c:1059 UCX  ERROR ibv_create_cq(cqe=256) failed: Connection timed out
[1739921501.274073] [ohm:593591:0]        ib_iface.c:1059 UCX  ERROR ibv_create_cq(cqe=256) failed: Connection timed out
[1739921501.275279] [ohm:593606:0]        ib_iface.c:1059 UCX  ERROR ibv_create_cq(cqe=256) failed: Connection timed out
[1739921501.279858] [ohm:593595:0]        ib_iface.c:1059 UCX  ERROR ibv_create_cq(cqe=256) failed: Connection timed out
[1739921501.283323] [ohm:593596:0]        ib_iface.c:1059 UCX  ERROR ibv_create_cq(cqe=256) failed: Connection timed out
[1739921501.290384] [ohm:593603:0]        ib_iface.c:1059 UCX  ERROR ibv_create_cq(cqe=256) failed: Connection timed out
[1739921501.300527] [ohm:593600:0]        ib_iface.c:1059 UCX  ERROR ibv_create_cq(cqe=256) failed: Connection timed out
[1739921501.308761] [ohm:593602:0]        ib_iface.c:1059 UCX  ERROR ibv_create_cq(cqe=256) failed: Connection timed out
[1739921501.311903] [ohm:593597:0]        ib_iface.c:1059 UCX  ERROR ibv_create_cq(cqe=256) failed: Connection timed out
[1739921501.351359] [ohm:593594:0]        ib_iface.c:1059 UCX  ERROR ibv_create_cq(cqe=256) failed: Connection timed out
[1739921501.352296] [ohm:593608:0]        ib_iface.c:1059 UCX  ERROR ibv_create_cq(cqe=256) failed: Connection timed out
[1739921501.376743] [ohm:593601:0]        ib_iface.c:1059 UCX  ERROR ibv_create_cq(cqe=256) failed: Connection timed out
[1739921501.393946] [ohm:593598:0]        ib_iface.c:1059 UCX  ERROR ibv_create_cq(cqe=256) failed: Connection timed out
[1739921501.406915] [ohm:593609:0]        ib_iface.c:1059 UCX  ERROR ibv_create_cq(cqe=256) failed: Connection timed out
[1739921501.416831] [ohm:593611:0]        ib_iface.c:1059 UCX  ERROR ibv_create_cq(cqe=256) failed: Connection timed out
[1739921501.416977] [ohm:593604:0]        ib_iface.c:1059 UCX  ERROR ibv_create_cq(cqe=256) failed: Connection timed out
[1739921501.422384] [ohm:593607:0]        ib_iface.c:1059 UCX  ERROR ibv_create_cq(cqe=256) failed: Connection timed out
[1739921501.430420] [ohm:593605:0]        ib_iface.c:1059 UCX  ERROR ibv_create_cq(cqe=256) failed: Connection timed out
[1739921501.437510] [ohm:593612:0]        ib_iface.c:1059 UCX  ERROR ibv_create_cq(cqe=256) failed: Connection timed out
[1739921501.437795] [ohm:593629:0]        ib_iface.c:1059 UCX  ERROR ibv_create_cq(cqe=256) failed: Connection timed out
[1739921501.443585] [ohm:593665:0]        ib_iface.c:1059 UCX  ERROR ibv_create_cq(cqe=256) failed: Connection timed out
[1739921501.445251] [ohm:593706:0]        ib_iface.c:1059 UCX  ERROR ibv_create_cq(cqe=256) failed: Connection timed out
[1739921501.447914] [ohm:593674:0]        ib_iface.c:1059 UCX  ERROR ibv_create_cq(cqe=256) failed: Connection timed out
[1739921501.473633] [ohm:593637:0]        ib_iface.c:1059 UCX  ERROR ibv_create_cq(cqe=256) failed: Connection timed out
[1739921501.479424] [ohm:593709:0]        ib_iface.c:1059 UCX  ERROR ibv_create_cq(cqe=256) failed: Connection timed out
[1739921501.481754] [ohm:593692:0]        ib_iface.c:1059 UCX  ERROR ibv_create_cq(cqe=256) failed: Connection timed out
[1739921501.483184] [ohm:593610:0]        ib_iface.c:1059 UCX  ERROR ibv_create_cq(cqe=256) failed: Connection timed out
[1739921501.484232] [ohm:593685:0]        ib_iface.c:1059 UCX  ERROR ibv_create_cq(cqe=256) failed: Connection timed out
[1739921501.500664] [ohm:593676:0]        ib_iface.c:1059 UCX  ERROR ibv_create_cq(cqe=256) failed: Connection timed out
[1739921501.501097] [ohm:593704:0]        ib_iface.c:1059 UCX  ERROR ibv_create_cq(cqe=256) failed: Connection timed out
[1739921501.503080] [ohm:593652:0]        ib_iface.c:1059 UCX  ERROR ibv_create_cq(cqe=256) failed: Connection timed out
[1739921501.503378] [ohm:593720:0]        ib_iface.c:1059 UCX  ERROR ibv_create_cq(cqe=256) failed: Connection timed out
[1739921501.506630] [ohm:593699:0]        ib_iface.c:1059 UCX  ERROR ibv_create_cq(cqe=256) failed: Connection timed out
[1739921501.506708] [ohm:593728:0]        ib_iface.c:1059 UCX  ERROR ibv_create_cq(cqe=256) failed: Connection timed out
[1739921501.511260] [ohm:593656:0]        ib_iface.c:1059 UCX  ERROR ibv_create_cq(cqe=256) failed: Connection timed out
[1739921501.512962] [ohm:593723:0]        ib_iface.c:1059 UCX  ERROR ibv_create_cq(cqe=256) failed: Connection timed out
[1739921501.521841] [ohm:593641:0]        ib_iface.c:1059 UCX  ERROR ibv_create_cq(cqe=256) failed: Connection timed out
[1739921501.524170] [ohm:593713:0]        ib_iface.c:1059 UCX  ERROR ibv_create_cq(cqe=256) failed: Connection timed out
[1739921501.530754] [ohm:593615:0]        ib_iface.c:1059 UCX  ERROR ibv_create_cq(cqe=256) failed: Connection timed out
[1739921501.531131] [ohm:593683:0]        ib_iface.c:1059 UCX  ERROR ibv_create_cq(cqe=256) failed: Connection timed out
[1739921501.531596] [ohm:593660:0]        ib_iface.c:1059 UCX  ERROR ibv_create_cq(cqe=256) failed: Connection timed out
[1739921501.532502] [ohm:593648:0]        ib_iface.c:1059 UCX  ERROR ibv_create_cq(cqe=256) failed: Connection timed out
[1739921501.532494] [ohm:593667:0]        ib_iface.c:1059 UCX  ERROR ibv_create_cq(cqe=256) failed: Connection timed out
[1739921501.534788] [ohm:593634:0]        ib_iface.c:1059 UCX  ERROR ibv_create_cq(cqe=256) failed: Connection timed out
[1739921501.540411] [ohm:593677:0]        ib_iface.c:1059 UCX  ERROR ibv_create_cq(cqe=256) failed: Connection timed out
[1739921501.543362] [ohm:593622:0]        ib_iface.c:1059 UCX  ERROR ibv_create_cq(cqe=256) failed: Connection timed out
[1739921501.543848] [ohm:593631:0]        ib_iface.c:1059 UCX  ERROR ibv_create_cq(cqe=256) failed: Connection timed out
[1739921501.545506] [ohm:593646:0]        ib_iface.c:1059 UCX  ERROR ibv_create_cq(cqe=256) failed: Connection timed out
[1739921501.546210] [ohm:593620:0]        ib_iface.c:1059 UCX  ERROR ibv_create_cq(cqe=256) failed: Connection timed out
[1739921501.546856] [ohm:593689:0]        ib_iface.c:1059 UCX  ERROR ibv_create_cq(cqe=256) failed: Connection timed out
[1739921501.546881] [ohm:593735:0]        ib_iface.c:1059 UCX  ERROR ibv_create_cq(cqe=256) failed: Connection timed out
[1739921501.548451] [ohm:593712:0]        ib_iface.c:1059 UCX  ERROR ibv_create_cq(cqe=256) failed: Connection timed out
[1739921501.548938] [ohm:593696:0]        ib_iface.c:1059 UCX  ERROR ibv_create_cq(cqe=256) failed: Connection timed out
[1739921501.550111] [ohm:593717:0]        ib_iface.c:1059 UCX  ERROR ibv_create_cq(cqe=256) failed: Connection timed out
[1739921501.550235] [ohm:593613:0]        ib_iface.c:1059 UCX  ERROR ibv_create_cq(cqe=256) failed: Connection timed out
[1739921501.550923] [ohm:593671:0]        ib_iface.c:1059 UCX  ERROR ibv_create_cq(cqe=256) failed: Connection timed out


           ************************************************************
           *        Program running with 64 parallel MPI-processes    *
           *              working on a common directory               *
           ************************************************************
------------------------------------------------------------------------------
                             ORCA STARTUP CALCULATIONS
                           -- RI-GTO INTEGRALS CHOSEN --
------------------------------------------------------------------------------
------------------------------------------------------------------------------
                   ___                                                        
                  /   \      - P O W E R E D   B Y -                         
                 /     \                                                     
                 |  |  |   _    _      __       _____    __    __             
                 |  |  |  | |  | |    /  \     |  _  \  |  |  /  |          
                  \  \/   | |  | |   /    \    | | | |  |  | /  /          
                 / \  \   | |__| |  /  /\  \   | |_| |  |  |/  /          
                |  |  |   |  __  | /  /__\  \  |    /   |      \           
                |  |  |   | |  | | |   __   |  |    \   |  |\   \          
                \     /   | |  | | |  |  |  |  | |\  \  |  | \   \       
                 \___/    |_|  |_| |__|  |__|  |_| \__\ |__|  \__/        
                                                                              
                      - O R C A' S   B I G   F R I E N D -                    
                                      &                                       
                       - I N T E G R A L  F E E D E R -                       
                                                                              
 v1 FN, 2020, v2 2021, v3 2022-2024                                           
------------------------------------------------------------------------------


----------------------
SHARK INTEGRAL PACKAGE
----------------------

Number of atoms                             ...     30
Number of basis functions                   ...    882
Number of shells                            ...    322
Maximum angular momentum                    ...      3
Integral batch strategy                     ... SHARK/LIBINT Hybrid
RI-J (if used) integral strategy            ... SPLIT-RIJ (Revised 2003 algorithm where possible)
Printlevel                                  ...      1
Contraction scheme used                     ... SEGMENTED contraction
Prescreening option                         ... SCHWARTZ
   Thresh                                   ... 2.500e-11
   Tcut                                     ... 2.500e-12
   Tpresel                                  ... 2.500e-12 
Coulomb Range Separation                    ... NOT USED
Exchange Range Separation                   ... Long Range
   Mu parameter                             ... 3.000e-01
   Scaling (regular/separated)              ... 1.500e-01 8.500e-01
Multipole approximations                    ... NOT USED
Finite Nucleus Model                        ... NOT USED
CABS basis                                  ... NOT available
Auxiliary Coulomb fitting basis             ... AVAILABLE
   # of basis functions in Aux-J            ...   1014
   # of shells in Aux-J                     ...    330
   Maximum angular momentum in Aux-J        ...      4
Auxiliary J/K fitting basis                 ... NOT available
Auxiliary Correlation fitting basis         ... NOT available
Auxiliary 'external' fitting basis          ... NOT available

Checking pre-screening integrals            ... done (  0.0 sec) Dimension = 322
Check shell pair data                       ... done (  0.0 sec)
Shell pair information
Shell pair cut-off parameter TPreSel        ...   2.5e-12
Total number of shell pairs                 ...     52003
Shell pairs after pre-screening             ...     44350
Total number of primitive shell pairs       ...    129718
Primitive shell pairs kept                  ...     82528
          la=0 lb=0:   8600 shell pairs
          la=1 lb=0:  11739 shell pairs
          la=1 lb=1:   4060 shell pairs
          la=2 lb=0:   7963 shell pairs
          la=2 lb=1:   5503 shell pairs
          la=2 lb=2:   1905 shell pairs
          la=3 lb=0:   2029 shell pairs
          la=3 lb=1:   1434 shell pairs
          la=3 lb=2:    979 shell pairs
          la=3 lb=3:    138 shell pairs

Calculating one electron integrals          ... done (  0.2 sec)
Calculating RI/J V-Matrix + Cholesky decomp.... done (  0.1 sec)
Calculating Nuclear repulsion               ... done (  0.0 sec) ENN=   1420.614984034994 Eh

Diagonalization of the overlap matrix:
Smallest eigenvalue                        ... 5.100e-07
Time for diagonalization                   ...    0.124 sec
Threshold for overlap eigenvalues          ... 1.000e-07
Number of eigenvalues below threshold      ... 0

IMPORTANT:
Smallest eigenvalue of S below the DiffSThresh (1.000e-06) while
Thresh>1e-12 and/or TCut>1e-13! In order to avoid SCF convergence issues,
Thresh will be set to at least 1e-12 and TCut to at least 1e-13.
This can be turned off by adding %SCF DiffSThresh -1 END to the input.

Time for construction of square roots      ...    0.122 sec
Total time needed                          ...    0.263 sec

-------------------
DFT GRID GENERATION
-------------------

General Integration Accuracy     IntAcc      ... 4.388
Radial Grid Type                 RadialGrid  ... OptM3 with GC (2021)
Angular Grid (max. ang.)         AngularGrid ... 4 (Lebedev-302)
Angular grid pruning method      GridPruning ... 4 (adaptive)
Weight generation scheme         WeightScheme... mBecke (2022)
Basis function cutoff            BFCut       ... 1.0000e-11
Integration weight cutoff        WCut        ... 1.0000e-14
Partially contracted basis set               ... off
Rotationally invariant grid construction     ... off
Angular grids for H and He will be reduced by one unit
Diffuse basis detected: some atoms will have their outermost
                        angular grid increased by 1.

Total number of grid points                  ...   152331
Total number of batches                      ...     2398
Average number of points per batch           ...       63
Average number of grid points per atom       ...     5078

--------------------
COSX GRID GENERATION
--------------------

GRIDX 1
-------
General Integration Accuracy     IntAcc      ... 3.816
Radial Grid Type                 RadialGrid  ... OptM3 with GC (2021)
Angular Grid (max. ang.)         AngularGrid ... 1 (Lebedev-50)
Angular grid pruning method      GridPruning ... 4 (adaptive)
Weight generation scheme         WeightScheme... mBecke (2022)
Basis function cutoff            BFCut       ... 1.0000e-11
Integration weight cutoff        WCut        ... 1.0000e-14
Partially contracted basis set               ... on
Rotationally invariant grid construction     ... off
Angular grids for H and He will be reduced by one unit
Diffuse basis detected: some atoms will have their outermost
                        angular grid increased by 1.

Total number of grid points                  ...    19078
Total number of batches                      ...      165
Average number of points per batch           ...      115
Average number of grid points per atom       ...      636
UseSFitting                                  ... on

GRIDX 2
-------
General Integration Accuracy     IntAcc      ... 4.020
Radial Grid Type                 RadialGrid  ... OptM3 with GC (2021)
Angular Grid (max. ang.)         AngularGrid ... 2 (Lebedev-110)
Angular grid pruning method      GridPruning ... 4 (adaptive)
Weight generation scheme         WeightScheme... mBecke (2022)
Basis function cutoff            BFCut       ... 1.0000e-11
Integration weight cutoff        WCut        ... 1.0000e-14
Partially contracted basis set               ... on
Rotationally invariant grid construction     ... off
Angular grids for H and He will be reduced by one unit
Diffuse basis detected: some atoms will have their outermost
                        angular grid increased by 1.

Total number of grid points                  ...    46089
Total number of batches                      ...      378
Average number of points per batch           ...      121
Average number of grid points per atom       ...     1536
UseSFitting                                  ... on

GRIDX 3
-------
General Integration Accuracy     IntAcc      ... 4.338
Radial Grid Type                 RadialGrid  ... OptM3 with GC (2021)
Angular Grid (max. ang.)         AngularGrid ... 3 (Lebedev-194)
Angular grid pruning method      GridPruning ... 4 (adaptive)
Weight generation scheme         WeightScheme... mBecke (2022)
Basis function cutoff            BFCut       ... 1.0000e-11
Integration weight cutoff        WCut        ... 1.0000e-14
Partially contracted basis set               ... on
Rotationally invariant grid construction     ... off
Angular grids for H and He will be reduced by one unit
Diffuse basis detected: some atoms will have their outermost
                        angular grid increased by 1.

Total number of grid points                  ...   101423
Total number of batches                      ...      810
Average number of points per batch           ...      125
Average number of grid points per atom       ...     3381
UseSFitting                                  ... on
Initializing property integral containers    ... done (  0.0 sec)

SHARK setup successfully completed in   4.1 seconds

Maximum memory used throughout the entire STARTUP-calculation: 79.3 MB
[1739921507.356045] [ohm:593949:0]        ib_iface.c:1059 UCX  ERROR ibv_create_cq(cqe=256) failed: Connection timed out
[1739921507.360588] [ohm:593950:0]        ib_iface.c:1059 UCX  ERROR ibv_create_cq(cqe=256) failed: Connection timed out
[1739921507.372941] [ohm:593952:0]        ib_iface.c:1059 UCX  ERROR ibv_create_cq(cqe=256) failed: Connection timed out
[1739921507.379854] [ohm:593955:0]        ib_iface.c:1059 UCX  ERROR ibv_create_cq(cqe=256) failed: Connection timed out
[1739921507.427682] [ohm:594010:0]        ib_iface.c:1059 UCX  ERROR ibv_create_cq(cqe=256) failed: Connection timed out
[1739921507.435436] [ohm:593957:0]        ib_iface.c:1059 UCX  ERROR ibv_create_cq(cqe=256) failed: Connection timed out
[1739921507.436015] [ohm:593953:0]        ib_iface.c:1059 UCX  ERROR ibv_create_cq(cqe=256) failed: Connection timed out
[1739921507.437370] [ohm:594011:0]        ib_iface.c:1059 UCX  ERROR ibv_create_cq(cqe=256) failed: Connection timed out
[1739921507.439991] [ohm:593982:0]        ib_iface.c:1059 UCX  ERROR ibv_create_cq(cqe=256) failed: Connection timed out
[1739921507.443456] [ohm:594006:0]        ib_iface.c:1059 UCX  ERROR ibv_create_cq(cqe=256) failed: Connection timed out
[1739921507.480030] [ohm:594096:0]        ib_iface.c:1059 UCX  ERROR ibv_create_cq(cqe=256) failed: Connection timed out
[1739921507.486880] [ohm:594022:0]        ib_iface.c:1059 UCX  ERROR ibv_create_cq(cqe=256) failed: Connection timed out
[1739921507.488171] [ohm:594001:0]        ib_iface.c:1059 UCX  ERROR ibv_create_cq(cqe=256) failed: Connection timed out
[1739921507.491929] [ohm:593954:0]        ib_iface.c:1059 UCX  ERROR ibv_create_cq(cqe=256) failed: Connection timed out
[1739921507.496060] [ohm:593960:0]        ib_iface.c:1059 UCX  ERROR ibv_create_cq(cqe=256) failed: Connection timed out
[1739921507.512614] [ohm:593963:0]        ib_iface.c:1059 UCX  ERROR ibv_create_cq(cqe=256) failed: Connection timed out
[1739921507.514353] [ohm:594019:0]        ib_iface.c:1059 UCX  ERROR ibv_create_cq(cqe=256) failed: Connection timed out
[1739921507.520782] [ohm:594029:0]        ib_iface.c:1059 UCX  ERROR ibv_create_cq(cqe=256) failed: Connection timed out
[1739921507.538897] [ohm:594065:0]        ib_iface.c:1059 UCX  ERROR ibv_create_cq(cqe=256) failed: Connection timed out
[1739921507.551180] [ohm:594101:0]        ib_iface.c:1059 UCX  ERROR ibv_create_cq(cqe=256) failed: Connection timed out
[1739921507.555609] [ohm:593956:0]        ib_iface.c:1059 UCX  ERROR ibv_create_cq(cqe=256) failed: Connection timed out
[1739921507.555897] [ohm:593994:0]        ib_iface.c:1059 UCX  ERROR ibv_create_cq(cqe=256) failed: Connection timed out
[1739921507.567162] [ohm:594014:0]        ib_iface.c:1059 UCX  ERROR ibv_create_cq(cqe=256) failed: Connection timed out
[1739921507.568269] [ohm:594009:0]        ib_iface.c:1059 UCX  ERROR ibv_create_cq(cqe=256) failed: Connection timed out
[1739921507.568492] [ohm:594035:0]        ib_iface.c:1059 UCX  ERROR ibv_create_cq(cqe=256) failed: Connection timed out
[1739921507.574205] [ohm:593951:0]        ib_iface.c:1059 UCX  ERROR ibv_create_cq(cqe=256) failed: Connection timed out
[1739921507.574703] [ohm:593979:0]        ib_iface.c:1059 UCX  ERROR ibv_create_cq(cqe=256) failed: Connection timed out
[1739921507.608860] [ohm:594020:0]        ib_iface.c:1059 UCX  ERROR ibv_create_cq(cqe=256) failed: Connection timed out
[1739921507.610004] [ohm:594053:0]        ib_iface.c:1059 UCX  ERROR ibv_create_cq(cqe=256) failed: Connection timed out
[1739921507.615228] [ohm:593989:0]        ib_iface.c:1059 UCX  ERROR ibv_create_cq(cqe=256) failed: Connection timed out
[1739921507.625680] [ohm:594082:0]        ib_iface.c:1059 UCX  ERROR ibv_create_cq(cqe=256) failed: Connection timed out
[1739921507.627639] [ohm:594094:0]        ib_iface.c:1059 UCX  ERROR ibv_create_cq(cqe=256) failed: Connection timed out
[1739921507.635248] [ohm:594028:0]        ib_iface.c:1059 UCX  ERROR ibv_create_cq(cqe=256) failed: Connection timed out
[1739921507.638195] [ohm:594012:0]        ib_iface.c:1059 UCX  ERROR ibv_create_cq(cqe=256) failed: Connection timed out
[1739921507.643080] [ohm:594060:0]        ib_iface.c:1059 UCX  ERROR ibv_create_cq(cqe=256) failed: Connection timed out
[1739921507.646302] [ohm:593961:0]        ib_iface.c:1059 UCX  ERROR ibv_create_cq(cqe=256) failed: Connection timed out
[1739921507.650762] [ohm:594077:0]        ib_iface.c:1059 UCX  ERROR ibv_create_cq(cqe=256) failed: Connection timed out
[1739921507.651511] [ohm:594070:0]        ib_iface.c:1059 UCX  ERROR ibv_create_cq(cqe=256) failed: Connection timed out
[1739921507.661766] [ohm:594073:0]        ib_iface.c:1059 UCX  ERROR ibv_create_cq(cqe=256) failed: Connection timed out
[1739921507.663635] [ohm:593959:0]        ib_iface.c:1059 UCX  ERROR ibv_create_cq(cqe=256) failed: Connection timed out
[1739921507.669860] [ohm:594048:0]        ib_iface.c:1059 UCX  ERROR ibv_create_cq(cqe=256) failed: Connection timed out
[1739921507.672834] [ohm:594003:0]        ib_iface.c:1059 UCX  ERROR ibv_create_cq(cqe=256) failed: Connection timed out
[1739921507.677551] [ohm:594056:0]        ib_iface.c:1059 UCX  ERROR ibv_create_cq(cqe=256) failed: Connection timed out
[1739921507.679484] [ohm:593985:0]        ib_iface.c:1059 UCX  ERROR ibv_create_cq(cqe=256) failed: Connection timed out
[1739921507.687343] [ohm:594015:0]        ib_iface.c:1059 UCX  ERROR ibv_create_cq(cqe=256) failed: Connection timed out
[1739921507.692589] [ohm:593964:0]        ib_iface.c:1059 UCX  ERROR ibv_create_cq(cqe=256) failed: Connection timed out
[1739921507.692966] [ohm:594013:0]        ib_iface.c:1059 UCX  ERROR ibv_create_cq(cqe=256) failed: Connection timed out
[1739921507.697608] [ohm:594018:0]        ib_iface.c:1059 UCX  ERROR ibv_create_cq(cqe=256) failed: Connection timed out
[1739921507.698136] [ohm:594049:0]        ib_iface.c:1059 UCX  ERROR ibv_create_cq(cqe=256) failed: Connection timed out
[1739921507.699249] [ohm:593998:0]        ib_iface.c:1059 UCX  ERROR ibv_create_cq(cqe=256) failed: Connection timed out
[1739921507.704541] [ohm:594024:0]        ib_iface.c:1059 UCX  ERROR ibv_create_cq(cqe=256) failed: Connection timed out
[1739921507.706164] [ohm:594042:0]        ib_iface.c:1059 UCX  ERROR ibv_create_cq(cqe=256) failed: Connection timed out
[1739921507.710071] [ohm:593962:0]        ib_iface.c:1059 UCX  ERROR ibv_create_cq(cqe=256) failed: Connection timed out
[1739921507.710385] [ohm:594080:0]        ib_iface.c:1059 UCX  ERROR ibv_create_cq(cqe=256) failed: Connection timed out
[1739921507.711644] [ohm:594087:0]        ib_iface.c:1059 UCX  ERROR ibv_create_cq(cqe=256) failed: Connection timed out
[1739921507.716117] [ohm:593958:0]        ib_iface.c:1059 UCX  ERROR ibv_create_cq(cqe=256) failed: Connection timed out
[1739921507.716715] [ohm:594008:0]        ib_iface.c:1059 UCX  ERROR ibv_create_cq(cqe=256) failed: Connection timed out
[1739921507.719641] [ohm:594016:0]        ib_iface.c:1059 UCX  ERROR ibv_create_cq(cqe=256) failed: Connection timed out
[1739921507.720184] [ohm:593996:0]        ib_iface.c:1059 UCX  ERROR ibv_create_cq(cqe=256) failed: Connection timed out
[1739921507.720273] [ohm:594017:0]        ib_iface.c:1059 UCX  ERROR ibv_create_cq(cqe=256) failed: Connection timed out
[1739921507.720727] [ohm:594089:0]        ib_iface.c:1059 UCX  ERROR ibv_create_cq(cqe=256) failed: Connection timed out
[1739921507.723034] [ohm:594040:0]        ib_iface.c:1059 UCX  ERROR ibv_create_cq(cqe=256) failed: Connection timed out
[1739921507.724089] [ohm:594034:0]        ib_iface.c:1059 UCX  ERROR ibv_create_cq(cqe=256) failed: Connection timed out
[1739921507.725892] [ohm:593981:0]        ib_iface.c:1059 UCX  ERROR ibv_create_cq(cqe=256) failed: Connection timed out


           ************************************************************
           *        Program running with 64 parallel MPI-processes    *
           *              working on a common directory               *
           ************************************************************
-------------------------------------------------------------------------------
                                 ORCA GUESS
                   Start orbitals & Density for SCF / CASSCF
-------------------------------------------------------------------------------

------------
SCF SETTINGS
------------
Hamiltonian:
 Density Functional     Method          .... DFT(GTOs)
  Functional kind                       .... Exchange-Correlation
  Functional name                       .... wB97M-V exchange-correlation functional
  Functional family                     .... Hybrid MGGA
  Functional refs                              
    [ 0] N. Mardirossian and M. Head-Gordon.,  J. Chem. Phys. 144, 214110 (2016), doi: 10.1063/1.4952647
  Fraction of HF Exchange (short range) .... 0.1500
  Fraction of HF Exchange (long range)  .... 1.0000
  Range separation parameter mu         .... 0.3000
  Functional external parameters        .... 17
    Parameter  0 _cx00      =  8.500000e-01 : u^00 coefficient for exchange
    Parameter  1 _cx01      =  1.007000e+00 : u^01 coefficient for exchange
    Parameter  2 _cx10      =  2.590000e-01 : u^10 coefficient for exchange
    Parameter  3 _css00     =  4.430000e-01 : u^00 coefficient for same-spin correlation
    Parameter  4 _css04     = -1.437000e+00 : u^04 coefficient for same-spin correlation
    Parameter  5 _css10     = -4.535000e+00 : u^10 coefficient for same-spin correlation
    Parameter  6 _css20     = -3.390000e+00 : u^20 coefficient for same-spin correlation
    Parameter  7 _css43     =  4.278000e+00 : u^43 coefficient for same-spin correlation
    Parameter  8 _cos00     =  1.000000e+00 : u^00 coefficient for opposite-spin correlation
    Parameter  9 _cos10     =  1.358000e+00 : u^10 coefficient for opposite-spin correlation
    Parameter 10 _cos20     =  2.924000e+00 : u^20 coefficient for opposite-spin correlation
    Parameter 11 _cos21     = -8.812000e+00 : u^21 coefficient for opposite-spin correlation
    Parameter 12 _cos60     = -1.390000e+00 : u^60 coefficient for opposite-spin correlation
    Parameter 13 _cos61     =  9.142000e+00 : u^61 coefficient for opposite-spin correlation
    Parameter 14 _alpha     =  1.000000e+00 : fraction of HF exchange
    Parameter 15 _beta      = -8.500000e-01 : fraction of short-range exchange
    Parameter 16 _omega     =  3.000000e-01 : range-separation constant
 Long-range corrected/Screened/Range-Separated Hybrid DFT is turned on
   Amount of maximum screened exact exchange              ....  0.850000
   Range separation parameter mu (erf(mu*r12)/r12)        ....  0.300000
 RI-approximation to the Coulomb term is turned on
   Number of AuxJ basis functions       .... 1014
   RIJ-COSX (HFX calculated with COS-X)).... on


General Settings:
 Integral files         IntName         .... orca
 Hartree-Fock type      HFTyp           .... UHF
 Total Charge           Charge          ....    0
 Multiplicity           Mult            ....    3
 Number of Electrons    NEL             ....  132
 Basis Dimension        Dim             ....  882
 Nuclear Repulsion      ENuc            ....   1420.6149840350 Eh

Convergence Acceleration:
 AO-DIIS                CNVDIIS         .... on
   Start iteration      DIISMaxIt       ....    12
   Startup error        DIISStart       ....  0.200000
   # of expansion vecs  DIISMaxEq       ....     5
   Bias factor          DIISBfac        ....   1.050
   Max. coefficient     DIISMaxC        ....  10.000
 MO-DIIS                CNVKDIIS        .... off
 Trust-Rad. Augm. Hess. CNVTRAH         .... auto
   Auto Start mean grad. ratio tolernc. ....  1.125000
   Auto Start start iteration           ....    50
   Auto Start num. interpolation iter.  ....    10
   Max. Number of Micro iterations      ....    24
   Max. Number of Macro iterations      .... Maxiter - #DIIS iter
   Number of Davidson start vectors     ....     2
   Converg. threshold    (grad. norm)   ....   1.000e-05
   Grad. Scal. Fac. for Micro threshold ....   0.100
   Minimum threshold for Micro iter.    ....   1.000e-02
   NR start threshold (gradient norm)   ....   1.000e-04
   Initial trust radius                 ....   0.400
   Minimum AH scaling param. (alpha)    ....   1.000
   Maximum AH scaling param. (alpha)    .... 1000.000
   Quad. conv. algorithm                .... NR
   White noise on init. David. guess    .... on
   Maximum white noise                  ....   0.010
   Pseudo random numbers                .... off
   Inactive MOs                         .... canonical
   Orbital update algorithm             .... Taylor
   Preconditioner                       .... Diag
   Full preconditioner red. dimension   ....   250
 SOSCF                  CNVSOSCF        .... on
   Start iteration      SOSCFMaxIt      ....   150
   Startup grad/error   SOSCFStart      ....  0.003300
   Hessian update       SOSCFHessUp     .... L-BFGS
 Level Shifting         CNVShift        .... on
   Level shift para.    LevelShift      ....    0.2500
   Turn off err/grad.   ShiftErr        ....    0.0010
 Zerner damping         CNVZerner       .... off
 Static damping         CNVDamp         .... on
   Fraction old density DampFac         ....    0.7000
   Max. Damping (<1)    DampMax         ....    0.9800
   Min. Damping (>=0)   DampMin         ....    0.0000
   Turn off err/grad.   DampErr         ....    0.1000

SCF Procedure:
 Maximum # iterations   MaxIter         ....   125
 SCF integral mode      SCFMode         .... Direct
   Integral package                     .... SHARK and LIBINT hybrid scheme
 Reset frequency        DirectResetFreq ....    20
 Integral Threshold     Thresh          ....  1.000e-12 Eh
 Primitive CutOff       TCut            ....  1.000e-13 Eh

Convergence Tolerance:
 Convergence Check Mode ConvCheckMode   .... Total+1el-Energy
 Convergence forced     ConvForced      .... 1
 Energy Change          TolE            ....  1.000e-08 Eh
 1-El. energy change                    ....  1.000e-05 Eh
 Orbital Gradient       TolG            ....  1.000e-05
 Orbital Rotation angle TolX            ....  1.000e-05
 DIIS Error             TolErr          ....  5.000e-07

------------------------------
INITIAL GUESS: MODEL POTENTIAL
------------------------------
Loading Hartree-Fock densities                     ... done
Calculating cut-offs                               ... done
Initializing the effective Hamiltonian             ... done
Setting up the integral package (SHARK)            ... done
Starting the Coulomb interaction                   ... done (   0.1 sec)
Making the grid                                    ... done (   0.2 sec)
Mapping shells                                     ... done
Starting the XC term evaluation                    ... done (   0.1 sec)
  promolecular density results
     # of electrons  =    131.992326650
     EX              =   -113.524891056
     EC              =     -4.475432391
     EX+EC           =   -118.000323447
Transforming the Hamiltonian                       ... done (   0.1 sec)
Diagonalizing the Hamiltonian                      ... done (   0.1 sec)
Back transforming the eigenvectors                 ... done (   0.1 sec)
Now organizing SCF variables                       ... done
                      ------------------
                      INITIAL GUESS DONE (   1.1 sec)
                      ------------------
             **** ENERGY FILE WAS UPDATED (orca.en.tmp) ****
Finished Guess after   3.5 sec
Maximum memory used throughout the entire GUESS-calculation: 71.5 MB
[1739921511.458104] [ohm:594297:0]        ib_iface.c:1059 UCX  ERROR ibv_create_cq(cqe=256) failed: Connection timed out
[1739921511.484444] [ohm:594296:0]        ib_iface.c:1059 UCX  ERROR ibv_create_cq(cqe=256) failed: Connection timed out
[1739921511.487782] [ohm:594294:0]        ib_iface.c:1059 UCX  ERROR ibv_create_cq(cqe=256) failed: Connection timed out
[1739921511.525798] [ohm:594298:0]        ib_iface.c:1059 UCX  ERROR ibv_create_cq(cqe=256) failed: Connection timed out
[1739921511.534179] [ohm:594337:0]        ib_iface.c:1059 UCX  ERROR ibv_create_cq(cqe=256) failed: Connection timed out
[1739921511.541258] [ohm:594301:0]        ib_iface.c:1059 UCX  ERROR ibv_create_cq(cqe=256) failed: Connection timed out
[1739921511.546325] [ohm:594304:0]        ib_iface.c:1059 UCX  ERROR ibv_create_cq(cqe=256) failed: Connection timed out
[1739921511.547144] [ohm:594316:0]        ib_iface.c:1059 UCX  ERROR ibv_create_cq(cqe=256) failed: Connection timed out
[1739921511.547549] [ohm:594320:0]        ib_iface.c:1059 UCX  ERROR ibv_create_cq(cqe=256) failed: Connection timed out
[1739921511.551392] [ohm:594299:0]        ib_iface.c:1059 UCX  ERROR ibv_create_cq(cqe=256) failed: Connection timed out
[1739921511.607221] [ohm:594441:0]        ib_iface.c:1059 UCX  ERROR ibv_create_cq(cqe=256) failed: Connection timed out
[1739921511.607380] [ohm:594435:0]        ib_iface.c:1059 UCX  ERROR ibv_create_cq(cqe=256) failed: Connection timed out
[1739921511.612138] [ohm:594295:0]        ib_iface.c:1059 UCX  ERROR ibv_create_cq(cqe=256) failed: Connection timed out
[1739921511.617634] [ohm:594340:0]        ib_iface.c:1059 UCX  ERROR ibv_create_cq(cqe=256) failed: Connection timed out
[1739921511.625694] [ohm:594335:0]        ib_iface.c:1059 UCX  ERROR ibv_create_cq(cqe=256) failed: Connection timed out
[1739921511.635368] [ohm:594317:0]        ib_iface.c:1059 UCX  ERROR ibv_create_cq(cqe=256) failed: Connection timed out
[1739921511.641151] [ohm:594411:0]        ib_iface.c:1059 UCX  ERROR ibv_create_cq(cqe=256) failed: Connection timed out
[1739921511.653341] [ohm:594401:0]        ib_iface.c:1059 UCX  ERROR ibv_create_cq(cqe=256) failed: Connection timed out
[1739921511.660151] [ohm:594413:0]        ib_iface.c:1059 UCX  ERROR ibv_create_cq(cqe=256) failed: Connection timed out
[1739921511.670838] [ohm:594393:0]        ib_iface.c:1059 UCX  ERROR ibv_create_cq(cqe=256) failed: Connection timed out
[1739921511.670904] [ohm:594379:0]        ib_iface.c:1059 UCX  ERROR ibv_create_cq(cqe=256) failed: Connection timed out
[1739921511.675627] [ohm:594305:0]        ib_iface.c:1059 UCX  ERROR ibv_create_cq(cqe=256) failed: Connection timed out
[1739921511.683034] [ohm:594418:0]        ib_iface.c:1059 UCX  ERROR ibv_create_cq(cqe=256) failed: Connection timed out
[1739921511.684893] [ohm:594306:0]        ib_iface.c:1059 UCX  ERROR ibv_create_cq(cqe=256) failed: Connection timed out
[1739921511.698349] [ohm:594318:0]        ib_iface.c:1059 UCX  ERROR ibv_create_cq(cqe=256) failed: Connection timed out
[1739921511.700943] [ohm:594323:0]        ib_iface.c:1059 UCX  ERROR ibv_create_cq(cqe=256) failed: Connection timed out
[1739921511.702724] [ohm:594302:0]        ib_iface.c:1059 UCX  ERROR ibv_create_cq(cqe=256) failed: Connection timed out
[1739921511.705947] [ohm:594403:0]        ib_iface.c:1059 UCX  ERROR ibv_create_cq(cqe=256) failed: Connection timed out
[1739921511.714347] [ohm:594357:0]        ib_iface.c:1059 UCX  ERROR ibv_create_cq(cqe=256) failed: Connection timed out
[1739921511.744312] [ohm:594300:0]        ib_iface.c:1059 UCX  ERROR ibv_create_cq(cqe=256) failed: Connection timed out
[1739921511.745423] [ohm:594355:0]        ib_iface.c:1059 UCX  ERROR ibv_create_cq(cqe=256) failed: Connection timed out
[1739921511.750311] [ohm:594329:0]        ib_iface.c:1059 UCX  ERROR ibv_create_cq(cqe=256) failed: Connection timed out
[1739921511.752426] [ohm:594422:0]        ib_iface.c:1059 UCX  ERROR ibv_create_cq(cqe=256) failed: Connection timed out
[1739921511.755225] [ohm:594438:0]        ib_iface.c:1059 UCX  ERROR ibv_create_cq(cqe=256) failed: Connection timed out
[1739921511.755210] [ohm:594430:0]        ib_iface.c:1059 UCX  ERROR ibv_create_cq(cqe=256) failed: Connection timed out
[1739921511.757216] [ohm:594354:0]        ib_iface.c:1059 UCX  ERROR ibv_create_cq(cqe=256) failed: Connection timed out
[1739921511.761051] [ohm:594416:0]        ib_iface.c:1059 UCX  ERROR ibv_create_cq(cqe=256) failed: Connection timed out
[1739921511.763466] [ohm:594408:0]        ib_iface.c:1059 UCX  ERROR ibv_create_cq(cqe=256) failed: Connection timed out
[1739921511.764206] [ohm:594360:0]        ib_iface.c:1059 UCX  ERROR ibv_create_cq(cqe=256) failed: Connection timed out
[1739921511.782660] [ohm:594423:0]        ib_iface.c:1059 UCX  ERROR ibv_create_cq(cqe=256) failed: Connection timed out
[1739921511.784726] [ohm:594374:0]        ib_iface.c:1059 UCX  ERROR ibv_create_cq(cqe=256) failed: Connection timed out
[1739921511.796623] [ohm:594339:0]        ib_iface.c:1059 UCX  ERROR ibv_create_cq(cqe=256) failed: Connection timed out
[1739921511.799832] [ohm:594315:0]        ib_iface.c:1059 UCX  ERROR ibv_create_cq(cqe=256) failed: Connection timed out
[1739921511.800939] [ohm:594331:0]        ib_iface.c:1059 UCX  ERROR ibv_create_cq(cqe=256) failed: Connection timed out
[1739921511.800979] [ohm:594350:0]        ib_iface.c:1059 UCX  ERROR ibv_create_cq(cqe=256) failed: Connection timed out
[1739921511.803026] [ohm:594345:0]        ib_iface.c:1059 UCX  ERROR ibv_create_cq(cqe=256) failed: Connection timed out
[1739921511.806334] [ohm:594366:0]        ib_iface.c:1059 UCX  ERROR ibv_create_cq(cqe=256) failed: Connection timed out
[1739921511.809092] [ohm:594388:0]        ib_iface.c:1059 UCX  ERROR ibv_create_cq(cqe=256) failed: Connection timed out
[1739921511.810759] [ohm:594326:0]        ib_iface.c:1059 UCX  ERROR ibv_create_cq(cqe=256) failed: Connection timed out
[1739921511.813353] [ohm:594376:0]        ib_iface.c:1059 UCX  ERROR ibv_create_cq(cqe=256) failed: Connection timed out
[1739921511.815843] [ohm:594346:0]        ib_iface.c:1059 UCX  ERROR ibv_create_cq(cqe=256) failed: Connection timed out
[1739921511.825018] [ohm:594380:0]        ib_iface.c:1059 UCX  ERROR ibv_create_cq(cqe=256) failed: Connection timed out
[1739921511.829603] [ohm:594353:0]        ib_iface.c:1059 UCX  ERROR ibv_create_cq(cqe=256) failed: Connection timed out
[1739921511.831020] [ohm:594384:0]        ib_iface.c:1059 UCX  ERROR ibv_create_cq(cqe=256) failed: Connection timed out
[1739921511.832763] [ohm:594431:0]        ib_iface.c:1059 UCX  ERROR ibv_create_cq(cqe=256) failed: Connection timed out
[1739921511.834326] [ohm:594397:0]        ib_iface.c:1059 UCX  ERROR ibv_create_cq(cqe=256) failed: Connection timed out
[1739921511.834554] [ohm:594351:0]        ib_iface.c:1059 UCX  ERROR ibv_create_cq(cqe=256) failed: Connection timed out
[1739921511.836121] [ohm:594303:0]        ib_iface.c:1059 UCX  ERROR ibv_create_cq(cqe=256) failed: Connection timed out
[1739921511.836123] [ohm:594352:0]        ib_iface.c:1059 UCX  ERROR ibv_create_cq(cqe=256) failed: Connection timed out
[1739921511.836473] [ohm:594370:0]        ib_iface.c:1059 UCX  ERROR ibv_create_cq(cqe=256) failed: Connection timed out
[1739921511.838611] [ohm:594349:0]        ib_iface.c:1059 UCX  ERROR ibv_create_cq(cqe=256) failed: Connection timed out
[1739921511.840269] [ohm:594356:0]        ib_iface.c:1059 UCX  ERROR ibv_create_cq(cqe=256) failed: Connection timed out
[1739921511.841397] [ohm:594343:0]        ib_iface.c:1059 UCX  ERROR ibv_create_cq(cqe=256) failed: Connection timed out
[1739921511.841783] [ohm:594361:0]        ib_iface.c:1059 UCX  ERROR ibv_create_cq(cqe=256) failed: Connection timed out


           ************************************************************
           *        Program running with 64 parallel MPI-processes    *
           *              working on a common directory               *
           ************************************************************

-------------------------------------------------------------------------------------------
                                      ORCA LEAN-SCF
                              memory conserving SCF solver
-------------------------------------------------------------------------------------------

----------------------------------------D-I-I-S--------------------------------------------
Iteration    Energy (Eh)           Delta-E    RMSDP     MaxDP     DIISErr   Damp  Time(sec)
-------------------------------------------------------------------------------------------
               ***  Starting incremental Fock matrix formation  ***
    1    -908.0038949684044383     0.00e+00  1.23e-03  2.19e-01  1.46e-01  0.700   7.6
    2    -908.2702329497988103    -2.66e-01  9.83e-04  1.55e-01  7.02e-02  0.700   6.4
                               ***Turning on AO-DIIS***
    3    -908.3877553992347202    -1.18e-01  7.12e-04  1.13e-01  2.84e-02  0.700   5.6
    4    -908.4604847336809144    -7.27e-02  1.68e-03  2.66e-01  1.77e-02  0.000   5.5
    5    -908.6252031420804087    -1.65e-01  2.32e-04  8.11e-02  4.70e-03  0.000   5.6
                              *** Initializing SOSCF ***
---------------------------------------S-O-S-C-F--------------------------------------
Iteration    Energy (Eh)           Delta-E    RMSDP     MaxDP     MaxGrad    Time(sec)
--------------------------------------------------------------------------------------
    6    -908.6269883751256202    -1.79e-03  1.20e-04  2.67e-02  2.71e-03     6.3
               *** Restarting incremental Fock matrix formation ***
    7    -908.6278976154239899    -9.09e-04  2.37e-04  3.56e-02  6.45e-03     7.2
    8    -908.6284628658913789    -5.65e-04  2.21e-04  3.33e-02  3.45e-03     6.4
    9    -908.6285912368298341    -1.28e-04  1.50e-04  1.88e-02  1.29e-03     6.5
   10    -908.6287274369128681    -1.36e-04  1.45e-05  2.94e-03  4.09e-04     6.4
   11    -908.6287331494181672    -5.71e-06  6.86e-06  1.25e-03  3.15e-04     6.1
   12    -908.6287357835844887    -2.63e-06  8.10e-06  1.76e-03  1.96e-04     6.1
   13    -908.6287372783035607    -1.49e-06  3.42e-06  4.06e-04  8.48e-05     6.1
   14    -908.6287375257898020    -2.47e-07  1.72e-06  3.47e-04  6.55e-05     5.8
   15    -908.6287376209847935    -9.52e-08  1.85e-06  5.59e-04  3.17e-05     5.6
   16    -908.6287376623249656    -4.13e-08  1.31e-06  3.40e-04  2.65e-05     5.8
   17    -908.6287376926457000    -3.03e-08  7.74e-07  1.57e-04  1.09e-05     5.6
   18    -908.6287376757536549     1.69e-08  1.07e-06  2.98e-04  6.47e-06     5.4
   19    -908.6287377133608061    -3.76e-08  6.54e-07  1.47e-04  3.23e-06     5.5
   20    -908.6287377183502940    -4.99e-09  1.11e-06  2.34e-04  1.86e-06     5.2
                 **** Energy Check signals convergence ****

               *****************************************************
               *                     SUCCESS                       *
               *           SCF CONVERGED AFTER  20 CYCLES          *
               *****************************************************

Recomputing exchange energy using gridx3       ... done (    7.896 sec)
Old exchange energy                            :    -35.023143065 Eh
New exchange energy                            :    -35.023133883 Eh
Exchange energy change after final integration :      0.000009182 Eh
Total energy after final integration           :   -908.628728536 Eh
             **** ENERGY FILE WAS UPDATED (orca.en.tmp) ****

----------------
TOTAL SCF ENERGY
----------------

Total Energy       :       -908.62872853640215 Eh          -24725.04470 eV

Components:
Nuclear Repulsion  :       1420.61498403499354 Eh           38656.89899 eV
Electronic Energy  :      -2329.24372175334338 Eh          -63381.94394 eV
One Electron Energy:      -4058.14816617360702 Eh         -110427.82564 eV
Two Electron Energy:       1728.90444442026342 Eh           47045.88170 eV

Virial components:
Potential Energy   :      -1814.46344364214883 Eh          -49374.06043 eV
Kinetic Energy     :        905.83471510574657 Eh           24649.01573 eV
Virial Ratio       :          2.00308446274366

DFT components:
N(Alpha)           :       67.000000360571 electrons
N(Beta)            :       65.000035757484 electrons
N(Total)           :      132.000036118055 electrons
E(XC)              :      -86.239208515083 Eh       

---------------
SCF CONVERGENCE
---------------

  Last Energy change         ...    4.9895e-09  Tolerance :   1.0000e-08
  Last MAX-Density change    ...    2.3418e-04  Tolerance :   1.0000e-07
  Last RMS-Density change    ...    1.1086e-06  Tolerance :   5.0000e-09
  Last DIIS Error            ...    2.7124e-03  Tolerance :   5.0000e-07
  Last Orbital Gradient      ...    1.8613e-06  Tolerance :   1.0000e-05
  Last Orbital Rotation      ...    4.9751e-06  Tolerance :   1.0000e-05


----------------------
UHF SPIN CONTAMINATION
----------------------

Warning: in a DFT calculation there is little theoretical justification to 
         calculate <S**2> as in Hartree-Fock theory. We will do it anyways
         but you should keep in mind that the values have only limited relevance

Expectation value of <S**2>     :     2.010710
Ideal value S*(S+1) for S=1.0   :     2.000000
Deviation                       :     0.010710

----------------
ORBITAL ENERGIES
----------------
                 SPIN UP ORBITALS
  NO   OCC          E(Eh)            E(eV) 
   0   1.0000     -19.340508      -526.2820 
   1   1.0000     -19.332309      -526.0589 
   2   1.0000     -19.325778      -525.8812 
   3   1.0000     -19.319905      -525.7214 
   4   1.0000     -14.576835      -396.6558 
   5   1.0000     -14.572498      -396.5378 
   6   1.0000     -14.566061      -396.3627 
   7   1.0000     -14.560064      -396.1995 
   8   1.0000     -10.518906      -286.2340 
   9   1.0000     -10.506301      -285.8910 
  10   1.0000     -10.486277      -285.3461 
  11   1.0000     -10.481436      -285.2144 
  12   1.0000     -10.449793      -284.3533 
  13   1.0000     -10.448361      -284.3144 
  14   1.0000     -10.412116      -283.3281 
  15   1.0000     -10.400414      -283.0096 
  16   1.0000     -10.375467      -282.3308 
  17   1.0000     -10.367178      -282.1053 
  18   1.0000      -1.232649       -33.5421 
  19   1.0000      -1.220531       -33.2123 
  20   1.0000      -1.215845       -33.0848 
  21   1.0000      -1.194063       -32.4921 
  22   1.0000      -1.124723       -30.6053 
  23   1.0000      -1.096925       -29.8488 
  24   1.0000      -1.074077       -29.2271 
  25   1.0000      -1.061401       -28.8822 
  26   1.0000      -0.984136       -26.7797 
  27   1.0000      -0.940140       -25.5825 
  28   1.0000      -0.881547       -23.9881 
  29   1.0000      -0.827061       -22.5055 
  30   1.0000      -0.815458       -22.1897 
  31   1.0000      -0.807083       -21.9618 
  32   1.0000      -0.792097       -21.5540 
  33   1.0000      -0.781901       -21.2766 
  34   1.0000      -0.725707       -19.7475 
  35   1.0000      -0.698548       -19.0085 
  36   1.0000      -0.690849       -18.7989 
  37   1.0000      -0.657851       -17.9010 
  38   1.0000      -0.642663       -17.4877 
  39   1.0000      -0.637564       -17.3490 
  40   1.0000      -0.615643       -16.7525 
  41   1.0000      -0.609361       -16.5816 
  42   1.0000      -0.601569       -16.3695 
  43   1.0000      -0.593133       -16.1400 
  44   1.0000      -0.578386       -15.7387 
  45   1.0000      -0.571609       -15.5543 
  46   1.0000      -0.567716       -15.4483 
  47   1.0000      -0.559178       -15.2160 
  48   1.0000      -0.556476       -15.1425 
  49   1.0000      -0.554094       -15.0777 
  50   1.0000      -0.549107       -14.9420 
  51   1.0000      -0.544443       -14.8151 
  52   1.0000      -0.527183       -14.3454 
  53   1.0000      -0.513323       -13.9682 
  54   1.0000      -0.512232       -13.9385 
  55   1.0000      -0.497845       -13.5470 
  56   1.0000      -0.447258       -12.1705 
  57   1.0000      -0.431826       -11.7506 
  58   1.0000      -0.416546       -11.3348 
  59   1.0000      -0.413428       -11.2499 
  60   1.0000      -0.406282       -11.0555 
  61   1.0000      -0.397199       -10.8083 
  62   1.0000      -0.395189       -10.7536 
  63   1.0000      -0.386960       -10.5297 
  64   1.0000      -0.383270       -10.4293 
  65   1.0000      -0.342780        -9.3275 
  66   1.0000      -0.300589        -8.1795 
  67   0.0000      -0.000511        -0.0139 
  68   0.0000       0.013024         0.3544 
  69   0.0000       0.030925         0.8415 
  70   0.0000       0.035390         0.9630 
  71   0.0000       0.041396         1.1264 
  72   0.0000       0.052463         1.4276 
  73   0.0000       0.058228         1.5845 
  74   0.0000       0.061268         1.6672 
  75   0.0000       0.064072         1.7435 
  76   0.0000       0.065637         1.7861 
  77   0.0000       0.071446         1.9442 

                 SPIN DOWN ORBITALS
  NO   OCC          E(Eh)            E(eV) 
   0   1.0000     -19.333905      -526.1023 
   1   1.0000     -19.332292      -526.0584 
   2   1.0000     -19.325752      -525.8804 
   3   1.0000     -19.319897      -525.7211 
   4   1.0000     -14.576864      -396.6566 
   5   1.0000     -14.572508      -396.5381 
   6   1.0000     -14.565986      -396.3606 
   7   1.0000     -14.560052      -396.1992 
   8   1.0000     -10.518917      -286.2343 
   9   1.0000     -10.506303      -285.8910 
  10   1.0000     -10.486813      -285.3607 
  11   1.0000     -10.481445      -285.2146 
  12   1.0000     -10.449648      -284.3494 
  13   1.0000     -10.447660      -284.2953 
  14   1.0000     -10.412019      -283.3254 
  15   1.0000     -10.375746      -282.3384 
  16   1.0000     -10.373550      -282.2786 
  17   1.0000     -10.367108      -282.1034 
  18   1.0000      -1.230510       -33.4839 
  19   1.0000      -1.220076       -33.2000 
  20   1.0000      -1.207051       -32.8455 
  21   1.0000      -1.194021       -32.4910 
  22   1.0000      -1.124485       -30.5988 
  23   1.0000      -1.096344       -29.8330 
  24   1.0000      -1.072621       -29.1875 
  25   1.0000      -1.061276       -28.8788 
  26   1.0000      -0.983677       -26.7672 
  27   1.0000      -0.910952       -24.7883 
  28   1.0000      -0.881109       -23.9762 
  29   1.0000      -0.825181       -22.4543 
  30   1.0000      -0.811880       -22.0924 
  31   1.0000      -0.801892       -21.8206 
  32   1.0000      -0.786618       -21.4050 
  33   1.0000      -0.779004       -21.1978 
  34   1.0000      -0.717620       -19.5274 
  35   1.0000      -0.696138       -18.9429 
  36   1.0000      -0.689256       -18.7556 
  37   1.0000      -0.655305       -17.8318 
  38   1.0000      -0.640190       -17.4205 
  39   1.0000      -0.633165       -17.2293 
  40   1.0000      -0.611519       -16.6403 
  41   1.0000      -0.598872       -16.2961 
  42   1.0000      -0.590571       -16.0702 
  43   1.0000      -0.586826       -15.9684 
  44   1.0000      -0.574206       -15.6249 
  45   1.0000      -0.565911       -15.3992 
  46   1.0000      -0.558359       -15.1937 
  47   1.0000      -0.556050       -15.1309 
  48   1.0000      -0.552382       -15.0311 
  49   1.0000      -0.547681       -14.9032 
  50   1.0000      -0.541531       -14.7358 
  51   1.0000      -0.534123       -14.5342 
  52   1.0000      -0.526890       -14.3374 
  53   1.0000      -0.512346       -13.9416 
  54   1.0000      -0.501643       -13.6504 
  55   1.0000      -0.497210       -13.5298 
  56   1.0000      -0.433824       -11.8049 
  57   1.0000      -0.429012       -11.6740 
  58   1.0000      -0.415954       -11.3187 
  59   1.0000      -0.402895       -10.9633 
  60   1.0000      -0.394593       -10.7374 
  61   1.0000      -0.393955       -10.7200 
  62   1.0000      -0.388373       -10.5682 
  63   1.0000      -0.383490       -10.4353 
  64   1.0000      -0.341304        -9.2874 
  65   0.0000      -0.059001        -1.6055 
  66   0.0000      -0.000952        -0.0259 
  67   0.0000       0.013485         0.3669 
  68   0.0000       0.030373         0.8265 
  69   0.0000       0.031680         0.8621 
  70   0.0000       0.035531         0.9668 
  71   0.0000       0.042818         1.1651 
  72   0.0000       0.055615         1.5134 
  73   0.0000       0.057796         1.5727 
  74   0.0000       0.062366         1.6971 
  75   0.0000       0.064009         1.7418 
*Only the first 10 virtual orbitals were printed.

                    ********************************
                    * MULLIKEN POPULATION ANALYSIS *
                    ********************************

--------------------------------------------
MULLIKEN ATOMIC CHARGES AND SPIN POPULATIONS
--------------------------------------------
   0 O :   -0.674733    0.000949
   1 O :   -0.569063    0.206270
   2 O :   -0.648841    0.000245
   3 O :   -0.630899    0.000941
   4 N :   -0.240996    0.002141
   5 N :   -0.134875    0.000209
   6 N :    0.042773    0.000599
   7 N :    0.026654    0.004309
   8 C :    0.763084   -0.014905
   9 C :   -0.220806    1.453409
  10 C :    0.579196    0.007173
  11 C :   -0.693876    0.036241
  12 C :   -1.599435    0.020206
  13 C :   -0.917955    0.056912
  14 C :    0.353852   -0.001266
  15 C :    0.939231    0.125182
  16 C :    0.414666   -0.000558
  17 C :    0.476824   -0.004251
  18 H :    0.326929   -0.000241
  19 H :    0.462543    0.020242
  20 H :    0.285422   -0.003604
  21 H :    0.322973   -0.006195
  22 H :    0.393564    0.002082
  23 H :    0.222550    0.045068
  24 H :    0.272213    0.027559
  25 H :    0.293438    0.018317
  26 H :    0.043075    0.000087
  27 H :    0.083482    0.000256
  28 H :    0.020606    0.000060
  29 H :    0.008405    0.002562
Sum of atomic charges         :   -0.0000000
Sum of atomic spin populations:    2.0000000

-----------------------------------------------------
MULLIKEN REDUCED ORBITAL CHARGES AND SPIN POPULATIONS
-----------------------------------------------------
CHARGE
  0 O s       :     4.095282  s :     4.095282
      pz      :     1.432562  p :     4.548092
      px      :     1.390008
      py      :     1.725522
      dz2     :     0.008855  d :     0.029421
      dxz     :     0.007680
      dyz     :     0.006375
      dx2y2   :     0.005708
      dxy     :     0.000803
      f0      :     0.000351  f :     0.001937
      f+1     :     0.000375
[...]
[1739921795.804229] [ohm:596840:0]        ib_iface.c:1059 UCX  ERROR ibv_create_cq(cqe=256) failed: Connection timed out
[1739921795.804264] [ohm:596811:0]        ib_iface.c:1059 UCX  ERROR ibv_create_cq(cqe=256) failed: Connection timed out
[1739921795.805045] [ohm:596813:0]        ib_iface.c:1059 UCX  ERROR ibv_create_cq(cqe=256) failed: Connection timed out
[1739921795.806102] [ohm:596806:0]        ib_iface.c:1059 UCX  ERROR ibv_create_cq(cqe=256) failed: Connection timed out
[1739921795.806829] [ohm:596845:0]        ib_iface.c:1059 UCX  ERROR ibv_create_cq(cqe=256) failed: Connection timed out
[1739921795.807980] [ohm:596747:0]        ib_iface.c:1059 UCX  ERROR ibv_create_cq(cqe=256) failed: Connection timed out
[1739921795.808847] [ohm:596738:0]        ib_iface.c:1059 UCX  ERROR ibv_create_cq(cqe=256) failed: Connection timed out
[1739921795.809152] [ohm:596855:0]        ib_iface.c:1059 UCX  ERROR ibv_create_cq(cqe=256) failed: Connection timed out
[1739921795.811905] [ohm:596730:0]        ib_iface.c:1059 UCX  ERROR ibv_create_cq(cqe=256) failed: Connection timed out
[1739921795.811998] [ohm:596833:0]        ib_iface.c:1059 UCX  ERROR ibv_create_cq(cqe=256) failed: Connection timed out
[1739921795.812833] [ohm:596815:0]        ib_iface.c:1059 UCX  ERROR ibv_create_cq(cqe=256) failed: Connection timed out


           ************************************************************
           *        Program running with 64 parallel MPI-processes    *
           *              working on a common directory               *
           ************************************************************

------------------------------------------------------------------------------
                              ORCA PROPERTY CALCULATIONS
------------------------------------------------------------------------------

GBWName                                 ... orca.gbw
Number of atoms                         ...     30
Number of basis functions               ...    882
Max core memory                         ...   1024 MB

Electric properties:
Dipole moment                           ... YES
Quadrupole moment                       ...  NO
Static polarizability (Dipole/Dipole)   ...  NO
Static polarizability (Dipole/Quad.)    ...  NO
Static polarizability (Quad./Quad.)     ...  NO
Static polarizability (Velocity)        ...  NO

Atomic electric properties:
Dipole moment                           ...  NO
Quadrupole moment                       ...  NO
Static polarizability                   ...  NO

Choice of electric origin               ... Center of mass
Position of electric origin             ...     0.201267    -0.007608     0.082718

General magnetic properties:
Magnetizability                         ...  NO

EPR properties:
g-Tensor (aka g-matrix)                 ...  NO
Zero-Field splitting spin-orbit         ...  NO
Zero-field splitting spin-spin          ...  NO
Hyperfine couplings                     ...  NO (   0 nuclei)
Quadrupole couplings                    ...  NO (   0 nuclei)
Contact density                         ...  NO (   0 nuclei)

NMR properties:
Chemical shifts                         ...  NO (   0 nuclei)
Spin-rotation constants                 ...  NO (   0 nuclei)
Spin-spin couplings                     ...  NO (   0 nuclei,    0 pairs)

Choice of magnetic origin               ... GIAO
Position of magnetic origin             ...     0.000000     0.000000     0.000000

Properties with geometric perturbations:
SCF Hessian                             ...  NO
IR spectrum                             ...  NO
VCD spectrum                            ...  NO
X-ray spectroscopy properties:
SCF XES/XAS/RIXS spectra                ...  NO


-------------
DIPOLE MOMENT
-------------

Method             : SCF
Type of density    : Electron Density
Multiplicity       :   3
Irrep              :   0
Energy             :  -908.6287285364021500 Eh
Relativity type    : 
Basis              : AO
                                X                 Y                 Z
Electronic contribution:      0.302190654      -9.933108529      -5.808514724
Nuclear contribution   :     -0.804482867      11.003726855       8.291397954
                        -----------------------------------------
Total Dipole Moment    :     -0.502292213       1.070618326       2.482883230
                        -----------------------------------------
Magnitude (a.u.)       :      2.750132760
Magnitude (Debye)      :      6.990281949



--------------------
Rotational spectrum 
--------------------
 
Rotational constants in cm-1:             0.022701             0.011862             0.010830 
Rotational constants in MHz :           680.561988           355.609675           324.673709 

Dipole components along the rotational axes: 
x,y,z [a.u.] :    -0.337455     1.009576    -2.535766 
x,y,z [Debye]:    -0.857741     2.566139    -6.445406 

 

-------------
DIPOLE MOMENT
-------------

Method             : TDA/CIS
Type of density    : Electron Density
Level              : Relaxed density
State              :   2
Multiplicity       :   3
Irrep              :   0
Energy             :     0.0000000000000000 Eh
Relativity type    : 
Basis              : AO
                                X                 Y                 Z
Electronic contribution:      0.158741920      -9.867412123      -5.928501350
Nuclear contribution   :     -0.804482867      11.003726855       8.291397954
                        -----------------------------------------
Total Dipole Moment    :     -0.645740947       1.136314733       2.362896604
                        -----------------------------------------
Magnitude (a.u.)       :      2.700272746
Magnitude (Debye)      :      6.863547864



--------------------
Rotational spectrum 
--------------------
 
Rotational constants in cm-1:             0.022701             0.011862             0.010830 
Rotational constants in MHz :           680.561988           355.609675           324.673709 

Dipole components along the rotational axes: 
x,y,z [a.u.] :    -0.471708     0.865384    -2.513976 
x,y,z [Debye]:    -1.198987     2.199631    -6.390019 

 

Dipole moment calculation done in   0.2 sec 

Maximum memory used throughout the entire PROP-calculation: 80.8 MB
[1739921798.254920] [ohm:597067:0]        ib_iface.c:1059 UCX  ERROR ibv_create_cq(cqe=256) failed: Connection timed out
[1739921798.260823] [ohm:597061:0]        ib_iface.c:1059 UCX  ERROR ibv_create_cq(cqe=256) failed: Connection timed out
[1739921798.264136] [ohm:597065:0]        ib_iface.c:1059 UCX  ERROR ibv_create_cq(cqe=256) failed: Connection timed out
[1739921798.273703] [ohm:597068:0]        ib_iface.c:1059 UCX  ERROR ibv_create_cq(cqe=256) failed: Connection timed out
[1739921798.284968] [ohm:597060:0]        ib_iface.c:1059 UCX  ERROR ibv_create_cq(cqe=256) failed: Connection timed out
[1739921798.316043] [ohm:597058:0]        ib_iface.c:1059 UCX  ERROR ibv_create_cq(cqe=256) failed: Connection timed out
[1739921798.317368] [ohm:597139:0]        ib_iface.c:1059 UCX  ERROR ibv_create_cq(cqe=256) failed: Connection timed out
[1739921798.320540] [ohm:597059:0]        ib_iface.c:1059 UCX  ERROR ibv_create_cq(cqe=256) failed: Connection timed out
[1739921798.320547] [ohm:597063:0]        ib_iface.c:1059 UCX  ERROR ibv_create_cq(cqe=256) failed: Connection timed out
[1739921798.326673] [ohm:597070:0]        ib_iface.c:1059 UCX  ERROR ibv_create_cq(cqe=256) failed: Connection timed out
[1739921798.329759] [ohm:597066:0]        ib_iface.c:1059 UCX  ERROR ibv_create_cq(cqe=256) failed: Connection timed out
[1739921798.338462] [ohm:597109:0]        ib_iface.c:1059 UCX  ERROR ibv_create_cq(cqe=256) failed: Connection timed out
[1739921798.348431] [ohm:597106:0]        ib_iface.c:1059 UCX  ERROR ibv_create_cq(cqe=256) failed: Connection timed out
[1739921798.348908] [ohm:597062:0]        ib_iface.c:1059 UCX  ERROR ibv_create_cq(cqe=256) failed: Connection timed out
[1739921798.359711] [ohm:597084:0]        ib_iface.c:1059 UCX  ERROR ibv_create_cq(cqe=256) failed: Connection timed out
[1739921798.401164] [ohm:597069:0]        ib_iface.c:1059 UCX  ERROR ibv_create_cq(cqe=256) failed: Connection timed out
[1739921798.420027] [ohm:597196:0]        ib_iface.c:1059 UCX  ERROR ibv_create_cq(cqe=256) failed: Connection timed out
[1739921798.423879] [ohm:597149:0]        ib_iface.c:1059 UCX  ERROR ibv_create_cq(cqe=256) failed: Connection timed out
[1739921798.425826] [ohm:597191:0]        ib_iface.c:1059 UCX  ERROR ibv_create_cq(cqe=256) failed: Connection timed out
[1739921798.443881] [ohm:597168:0]        ib_iface.c:1059 UCX  ERROR ibv_create_cq(cqe=256) failed: Connection timed out
[1739921798.447823] [ohm:597091:0]        ib_iface.c:1059 UCX  ERROR ibv_create_cq(cqe=256) failed: Connection timed out
[1739921798.451988] [ohm:597175:0]        ib_iface.c:1059 UCX  ERROR ibv_create_cq(cqe=256) failed: Connection timed out
[1739921798.455977] [ohm:597184:0]        ib_iface.c:1059 UCX  ERROR ibv_create_cq(cqe=256) failed: Connection timed out
[1739921798.460032] [ohm:597202:0]        ib_iface.c:1059 UCX  ERROR ibv_create_cq(cqe=256) failed: Connection timed out
[1739921798.461808] [ohm:597073:0]        ib_iface.c:1059 UCX  ERROR ibv_create_cq(cqe=256) failed: Connection timed out
[1739921798.469046] [ohm:597135:0]        ib_iface.c:1059 UCX  ERROR ibv_create_cq(cqe=256) failed: Connection timed out
[1739921798.472702] [ohm:597172:0]        ib_iface.c:1059 UCX  ERROR ibv_create_cq(cqe=256) failed: Connection timed out
[1739921798.477251] [ohm:597081:0]        ib_iface.c:1059 UCX  ERROR ibv_create_cq(cqe=256) failed: Connection timed out
[1739921798.477275] [ohm:597077:0]        ib_iface.c:1059 UCX  ERROR ibv_create_cq(cqe=256) failed: Connection timed out
[1739921798.477283] [ohm:597086:0]        ib_iface.c:1059 UCX  ERROR ibv_create_cq(cqe=256) failed: Connection timed out
[1739921798.486400] [ohm:597064:0]        ib_iface.c:1059 UCX  ERROR ibv_create_cq(cqe=256) failed: Connection timed out
[1739921798.500227] [ohm:597132:0]        ib_iface.c:1059 UCX  ERROR ibv_create_cq(cqe=256) failed: Connection timed out
[1739921798.501399] [ohm:597071:0]        ib_iface.c:1059 UCX  ERROR ibv_create_cq(cqe=256) failed: Connection timed out
[1739921798.508020] [ohm:597087:0]        ib_iface.c:1059 UCX  ERROR ibv_create_cq(cqe=256) failed: Connection timed out
[1739921798.512839] [ohm:597101:0]        ib_iface.c:1059 UCX  ERROR ibv_create_cq(cqe=256) failed: Connection timed out
[1739921798.514790] [ohm:597127:0]        ib_iface.c:1059 UCX  ERROR ibv_create_cq(cqe=256) failed: Connection timed out
[1739921798.525824] [ohm:597179:0]        ib_iface.c:1059 UCX  ERROR ibv_create_cq(cqe=256) failed: Connection timed out
[1739921798.529721] [ohm:597072:0]        ib_iface.c:1059 UCX  ERROR ibv_create_cq(cqe=256) failed: Connection timed out
[1739921798.529963] [ohm:597181:0]        ib_iface.c:1059 UCX  ERROR ibv_create_cq(cqe=256) failed: Connection timed out
[1739921798.531247] [ohm:597085:0]        ib_iface.c:1059 UCX  ERROR ibv_create_cq(cqe=256) failed: Connection timed out
[1739921798.531863] [ohm:597157:0]        ib_iface.c:1059 UCX  ERROR ibv_create_cq(cqe=256) failed: Connection timed out
[1739921798.532931] [ohm:597117:0]        ib_iface.c:1059 UCX  ERROR ibv_create_cq(cqe=256) failed: Connection timed out
[1739921798.545730] [ohm:597075:0]        ib_iface.c:1059 UCX  ERROR ibv_create_cq(cqe=256) failed: Connection timed out
[1739921798.546318] [ohm:597074:0]        ib_iface.c:1059 UCX  ERROR ibv_create_cq(cqe=256) failed: Connection timed out
[1739921798.547946] [ohm:597162:0]        ib_iface.c:1059 UCX  ERROR ibv_create_cq(cqe=256) failed: Connection timed out
[1739921798.548209] [ohm:597078:0]        ib_iface.c:1059 UCX  ERROR ibv_create_cq(cqe=256) failed: Connection timed out
[1739921798.565168] [ohm:597164:0]        ib_iface.c:1059 UCX  ERROR ibv_create_cq(cqe=256) failed: Connection timed out
[1739921798.571852] [ohm:597158:0]        ib_iface.c:1059 UCX  ERROR ibv_create_cq(cqe=256) failed: Connection timed out
[1739921798.580694] [ohm:597124:0]        ib_iface.c:1059 UCX  ERROR ibv_create_cq(cqe=256) failed: Connection timed out
[1739921798.582507] [ohm:597076:0]        ib_iface.c:1059 UCX  ERROR ibv_create_cq(cqe=256) failed: Connection timed out
[1739921798.583135] [ohm:597155:0]        ib_iface.c:1059 UCX  ERROR ibv_create_cq(cqe=256) failed: Connection timed out
[1739921798.584873] [ohm:597145:0]        ib_iface.c:1059 UCX  ERROR ibv_create_cq(cqe=256) failed: Connection timed out
[1739921798.587639] [ohm:597151:0]        ib_iface.c:1059 UCX  ERROR ibv_create_cq(cqe=256) failed: Connection timed out
[1739921798.588248] [ohm:597083:0]        ib_iface.c:1059 UCX  ERROR ibv_create_cq(cqe=256) failed: Connection timed out
[1739921798.588284] [ohm:597082:0]        ib_iface.c:1059 UCX  ERROR ibv_create_cq(cqe=256) failed: Connection timed out
[1739921798.592996] [ohm:597186:0]        ib_iface.c:1059 UCX  ERROR ibv_create_cq(cqe=256) failed: Connection timed out
[1739921798.593032] [ohm:597114:0]        ib_iface.c:1059 UCX  ERROR ibv_create_cq(cqe=256) failed: Connection timed out
[1739921798.595399] [ohm:597080:0]        ib_iface.c:1059 UCX  ERROR ibv_create_cq(cqe=256) failed: Connection timed out
[1739921798.595860] [ohm:597097:0]        ib_iface.c:1059 UCX  ERROR ibv_create_cq(cqe=256) failed: Connection timed out
[1739921798.596504] [ohm:597189:0]        ib_iface.c:1059 UCX  ERROR ibv_create_cq(cqe=256) failed: Connection timed out
[1739921798.597071] [ohm:597094:0]        ib_iface.c:1059 UCX  ERROR ibv_create_cq(cqe=256) failed: Connection timed out
[1739921798.598465] [ohm:597123:0]        ib_iface.c:1059 UCX  ERROR ibv_create_cq(cqe=256) failed: Connection timed out
[1739921798.598871] [ohm:597079:0]        ib_iface.c:1059 UCX  ERROR ibv_create_cq(cqe=256) failed: Connection timed out
[1739921798.601639] [ohm:597198:0]        ib_iface.c:1059 UCX  ERROR ibv_create_cq(cqe=256) failed: Connection timed out

--------------------------------
SUGGESTED CITATIONS FOR THIS RUN
--------------------------------

Below you find a list of papers that are relevant to this ORCA run
We neither can nor want to force you to cite these papers, but we appreciate if you do
You receive ORCA, which is the product of decades of hard work by many enthusiastic individuals, for free
The only thing we kindly ask in return is that you cite our papers,
We deeply appreciate it, if you show your appreciation for ORCA by not just citing the generic ORCA reference.

Please note that relegating all ORCA citations to the supporting information does *not* help us.
SI sections are not indexed - citations you put there will not count into any citation statistics
But we need these citations in order to attract the funding resources that allow us to do what we are doing

Therefore, if you are a happy ORCA user, please consider citing a few of the papers listed below in the main body of your paper

In addition to the list printed below, the program has created the file orca.bibtex that contains the list in bibtex format
You can import this file easily into all common literature databanks and citation aid programs


List of essential papers. We consider these as the minimum necessary citations

  1. Neese,F.
     Software update: the ORCA program system, version 5.0
     WIRES Comput. Molec. Sci., 2022 12(1)e1606
     doi.org/10.1002/wcms.1606

List of papers to cite with high priority. The work reported in these papers was absolutely
necessary for this run to complete.
Our perspective: the developers of density functionals and basis sets usually get cited in chemistry papers
Good! But without the algorithms to do something with them, the functionals or basis sets would not do anything.
Hence, in our opinion, the algorithm design and method developments papers are equally worthy of getting cited

  1. Neese,F.; Olbrich,G.
     Efficient use of the resolution of the identity approximation in time-dependent density functional calculations with hybrid density functionals
     Chem. Phys. Lett., 2002 362 170-178
     doi.org/10.1016/s0009-2614(02)01053-9
  2. Neese,F.
     An improvement of the resolution of the identity approximation for the formation of the Coulomb matrix
     J. Comp. Chem., 2003 24(14)1740-1747
     doi.org/10.1002/jcc.10318
  3. Neese,F.; Wennmohs,F.; Hansen,A.; Becker,U.
     Efficient, approximate and parallel Hartree-Fock and hybrid DFT calculations. A 'chain-of-spheres' algorithm for the Hartree-Fock exchange
     Chem. Phys., 2009 356(1-3)98-109
     doi.org/10.1016/j.chemphys.2008.10.036
  4. Petrenko,T.; Kossmann,S.; Neese,F.
     Efficient time-dependent density functional theory approximations for hybrid density functionals: Analytical gradients and parallelization
     J. Chem. Phys., 2011 134 054116
     doi.org/10.1063/1.3533441
  5. Helmich-Paris,B.; de Souza,B.; Neese,F.; Izsák,R.
     An improved chain of spheres for exchange algorithm
     J. Chem. Phys., 2021 155 104109
     doi.org/doi: 10.1063/5.0058766.
  6. Neese,F.
     The SHARK Integral Generation and Digestion System
     J. Comp. Chem., 2022  1-16
     doi.org/10.1002/jcc.26942
  7. Lehtola,S.; Steigemann,C.; Oliveira,M.; Marques,M.
     Recent developments in Libxc - A comprehensive library of functionals for density functional theory
     Software X, 2018 7 
     doi.org/10.1016/j.softx.2017.11.002
  8. Grimme,S.; Antony,J.; Ehrlich,S.; Krieg,H.
     A consistent and accurate ab initio parametrization of density functional dispersion correction (DFT-D) for the 94 elements H-Pu
     J. Chem. Phys., 2010 132 154104-XXXX
     doi.org/10.1063/1.3382344
  9. Grimme,S.; Ehrlich,S.; Goerigk,L.
     Effect of the damping function in dispersion corrected density functional theory
     J. Comput. Chem., 2011 32(7)1456-1465
     doi.org/10.1002/jcc.21759

List of suggested additional citations. These are papers that are important in the 'surrounding' of 
of this run, or papers that preceded the highly important papers. If you like your results we are grateful for a citation.

  1. Izsak,R.; Neese,F.
     An overlap fitted chain of spheres exchange method
     J. Chem. Phys., 2011 135 144105
     doi.org/10.1063/1.3646921
  2. Izsak,R.; Hansen,A.; Neese,F.
     The resolution of identity and chain of spheres approximations for the LPNO-CCSD singles Fock term
     Molec. Phys., 2012 110 2413-2417
     doi.org/10.1080/00268976.2012.687466
  3. Neese,F.
     The ORCA program system
     WIRES Comput. Molec. Sci., 2012 2(1)73-78
     doi.org/10.1002/wcms.81
  4. Izsak,R.; Neese,F.; Klopper,W.
     Robust fitting techniques in the chain of spheres approximation to the Fock exchange: The role of the complementary space
     J. Chem. Phys., 2013 139 
     doi.org/10.1063/1.4819264
  5. Neese,F.
     Software update: the ORCA program system, version 4.0
     WIRES Comput. Molec. Sci., 2018 8(1)1-6
     doi.org/10.1002/wcms.1327
  6. Neese,F.; Wennmohs,F.; Becker,U.; Riplinger,C.
     The ORCA quantum chemistry program package
     J. Chem. Phys., 2020 152 Art. No. L224108
     doi.org/10.1063/5.0004608

List of optional additional citations

  1. Neese,F.
     Approximate second-order SCF convergence for spin unrestricted wavefunctions
     Chem. Phys. Lett., 2000 325(1-3)93-98
     doi.org/10.1016/s0009-2614(00)00662-x

Timings for individual modules:

Sum of individual times          ...      297.085 sec (=   4.951 min)
Startup calculation              ...        6.289 sec (=   0.105 min)   2.1 %
SCF iterations                   ...      138.129 sec (=   2.302 min)  46.5 %
Property integrals               ...        4.223 sec (=   0.070 min)   1.4 %
Property calculations            ...        2.845 sec (=   0.047 min)   1.0 %
CIS module                       ...      145.599 sec (=   2.427 min)  49.0 %
                             ****ORCA TERMINATED NORMALLY****
TOTAL RUN TIME: 0 days 0 hours 4 minutes 59 seconds 114 msec
