30
Properties=species:S:1:pos:R:3:REF_forces:R:3 REF_energy=-24729.90108887202 pbc="F F F"
O        2.98912022       0.45865848      -1.07757637      -0.04905214       0.02577311       0.08612193
O       -0.40811998       1.54575698      -2.20325410      -0.03472523      -0.03624429       0.06724094
O        0.41285664      -3.13386723      -0.26043343      -0.02460165      -0.15133194      -0.05272657
O       -3.04734922      -1.68664867      -0.53033078      -0.13075977      -0.18175260      -0.03895290
N        0.35383584      -1.46474576       1.27020154       0.10998891       0.13744432      -0.10914979
N       -2.17209596      -0.19034489       0.94235640      -0.22459792      -0.27986784       0.28818754
N        1.47216495      -1.19346943      -0.76484638       0.02771485      -0.16810243      -0.16972815
N       -1.44569757      -0.23882854      -1.25714474      -0.06079927      -0.15822786      -0.12431073
C        1.62050539       0.59044204       0.83942777      -3.00918731       0.22232070       0.12982828
C       -0.69870201       1.56208256       0.15404916       0.72134275       0.11979215      -0.52743735
C        0.37443519      -0.06215890       1.58978035      -0.00928792       0.01348726      -0.29023391
C       -1.09061985       0.67858158       1.29120828       2.15041364      -0.59669865      -0.02184823
C        2.42024751       1.62253527       1.52240815      -0.40524143       0.01599864      -0.04981408
C       -0.59773389       3.02666352       0.30655034      -0.14471436      -0.14120072      -0.11514045
C        2.09576874      -0.01160961      -0.39880628       0.09421459       0.09355192       0.05991209
C       -0.81198110       1.00006393      -1.19636413       0.01037245       0.15011464       0.05785243
C        0.71212359      -2.00944207       0.06039761      -0.01920340       0.08711572       0.03200692
C       -2.28197398      -0.78966940      -0.28935880       0.15937673       0.29602060       0.10689065
H        0.55898640       0.02794564       2.65203704       0.05816924       0.04326037       0.30208764
H       -1.36671049       1.25949338       2.16021673      -0.00213762       0.07885457       0.13934215
H        3.22378678       1.96244834       0.88912491       0.19583468       0.04193367      -0.13386865
H        1.80791632       2.48016057       1.81598390       0.03171730      -0.03834372       0.00286048
H        2.82277729       1.20807133       2.44591601       0.12763869      -0.04437094       0.16312507
H       -1.59834693       3.44430602       0.48136080       0.05286931      -0.02015291      -0.01500698
H        0.00338422       3.29656579       1.16587142       0.13540534       0.09816679       0.21921100
H       -0.18585335       3.47280095      -0.58963851       0.03642098       0.04689442      -0.07745836
H       -0.23999382      -2.07448978       1.80026738      -0.07615740      -0.07585565       0.05663373
H       -2.75730309      -0.61016745       1.65668224       0.31277990       0.21779964      -0.27802298
H        1.79525723      -1.63060375      -1.61905081      -0.06858143       0.12710920       0.21335266
H       -1.55575268      -0.64276277      -2.17603136       0.05515959       0.07371829       0.06249943
30
Properties=species:S:1:pos:R:3:REF_forces:R:3 REF_energy=-24728.774664854427 pbc="F F F"
O        4.03866623       0.26108521       0.57813822      -1.75044395      -0.12850793      -0.45050397
O       -2.26896307       1.94856455      -2.04736325       1.36326451      -0.65984897       2.02296658
O        1.37013663      -3.01621417      -1.01150129      -0.04302069       1.64180660       0.87216971
O       -3.65189063      -1.48162389       0.45439794       1.37293242       1.98216317      -0.02277042
N        0.36589214      -1.36320510       0.14489876      -1.87114249       0.46009580       2.05508699
N       -1.91520405      -0.29035180       1.28502346       0.22670175       1.30637046       0.57893453
N        2.58961027      -1.14404892      -0.51033909      -0.18778690       1.39240523       1.15711957
N       -2.72947075       0.13211056      -0.92506420      -0.25718866      -1.85133812       2.66349663
C        1.77448531       0.28909376       1.25916270      -0.19485810       1.48810696       0.40412464
C       -0.90833683       1.46813615      -0.12578164      -0.40968070       0.63294432      -0.31730117
C        0.43988038      -0.32927379       1.15698965       2.26256591       0.26557933       0.01696516
C       -0.78307636       0.61248129       1.07728314      -0.18148905       1.55423155       0.70079853
C        2.04435771       1.20903138       2.43651779      -1.06740265      -0.52348906      -0.29029930
C       -0.06721690       2.68638221      -0.40956229      -0.95710540      -1.84550180      -1.34342982
C        2.85607830      -0.09047906       0.40599409       1.54679086      -0.81393343       0.35423849
C       -1.96526740       1.22218036      -1.04971666      -0.77241318       2.28473934      -3.47218538
C        1.41218512      -1.90632894      -0.46883207       2.40805789      -2.57830811      -1.98899602
C       -2.80961030      -0.57542445       0.31943044      -2.85010385      -2.46362855      -2.04175166
H        0.33728269      -0.62041148       2.21456436      -0.33236050      -1.08010515      -0.37373540
H       -0.58115467       1.28866397       1.96470367      -0.75959030      -0.63433010      -0.82356201
H        3.09046107       1.47948118       2.50025392      -0.05382349       0.19127307      -0.20227103
H        1.35842365       2.10437040       2.45275732       0.79980170      -0.71916184      -0.15923885
H        1.78713912       0.63077771       3.34178112       0.11838102       0.30864826      -0.12622174
H       -0.07072831       3.24579545       0.47403551       0.63830135       1.18315196       1.18157208
H        0.89830304       2.27965228      -0.68833474       0.76829204       0.30333884       0.29977840
H       -0.43834902       3.25538407      -1.29364152       0.02729566      -0.60060939       0.91735816
H       -0.30425077      -2.07548468       0.40851422      -0.09150598       0.11072838      -0.55594502
H       -2.24962415      -0.49997888       2.22881313       0.43232026       0.01716939      -0.72468836
H        3.48377192      -1.58191271      -0.64221568      -0.19614097      -0.72654946      -0.80690122
H       -3.47933402       0.10455783      -1.60676990       0.01996813      -0.52110345       0.45813016
30
Properties=species:S:1:pos:R:3:REF_forces:R:3 REF_energy=-24731.11771900558 pbc="F F F"
O        2.88450400       1.10149799      -0.83775594       0.17846279       0.40070224      -0.37549619
O       -0.55283178       0.90966380      -2.03509247       0.81261863      -0.04192953      -1.63256691
O        1.32900018      -3.18735968      -1.18800294      -0.03620387      -1.09262771      -0.58750785
O       -3.21279599      -1.58546779       0.58629355      -1.29559765      -1.96649332       0.46449408
N        0.81545597      -2.04084386       0.70259465      -0.14316808       1.39841706       1.07755526
N       -2.47292853       0.41256351       1.46353018      -0.39341630       0.53718820      -0.95483728
N        1.94640366      -1.00438314      -1.02034473       0.86842221       1.96797323       0.83199693
N       -1.90344043      -0.29124904      -0.69186335      -0.13097802       0.91967141       0.70541925
C        1.84257462       0.17588569       1.07169115      -2.62959195      -1.52076221       1.57678594
C       -1.24077732       1.88521889      -0.04368508      -2.05224720       1.28012305       5.01526175
C        1.00662966      -0.89582706       1.49840995       2.27224442       1.09238368      -2.94017834
C       -1.96688313       1.69411655       1.16981465       1.71952596      -2.27399056      -3.08588040
C        2.35553733       1.26816385       1.94665725      -0.35565764       1.54794660       2.36878763
C       -0.51417115       3.18379328      -0.13250702       2.64831085       0.05518077       1.07865805
C        2.26520564       0.23715162      -0.28282087      -0.37606242      -2.68124912      -0.75945712
C       -1.18222915       0.85271909      -1.02504429      -0.34242599      -0.22500806       1.06593689
C        1.39629365      -2.16632484      -0.57237850      -0.25920206       1.00681259       0.51737351
C       -2.61631310      -0.57896458       0.43224563       1.39205419       2.55137565       1.49640756
H        0.49188519      -0.85735236       2.42059037      -0.17307092      -0.22932457       0.83016217
H       -2.02887147       2.39479276       1.98216524       0.07385173       0.28588203      -0.10158559
H        1.64563152       1.98514782       2.55829043       0.79823311      -1.87922126      -1.20632754
H        3.03279219       0.79258111       2.67408804      -0.35821030       0.30758050       0.08978685
H        2.99783472       1.99813593       1.45539320      -0.20940376      -0.41597091      -0.61912770
H       -1.13306966       4.00642495       0.28726611       0.55146341      -0.24293695      -1.18356874
H        0.46583294       3.21488554       0.51421827      -1.88022864      -0.49199192      -0.49410770
H        0.03747771       3.22999531      -1.07748926      -1.12882073       0.85903946      -0.34314574
H        0.25449807      -2.84081666       1.01574231       0.47384523       0.76670016      -0.20725903
H       -2.99846531       0.26888758       2.32358175       0.11834076      -0.06334543      -0.67751706
H        2.48158793      -0.97655696      -1.86439038      -0.20271241      -0.61067986      -0.62555083
H       -1.89504360      -1.02308238      -1.33422446       0.05042681      -1.20575944      -1.34707757
30
Properties=species:S:1:pos:R:3:REF_forces:R:3 REF_energy=-24726.423300700983 pbc="F F F"
O        2.21122961       0.31090478      -1.18809542       0.82891197       0.41661502      -0.75536285
O       -0.80686930       2.43441125      -2.61181307      -0.60766356      -0.31867405       1.20879854
O        0.55736117      -3.71187121       0.23570309      -0.31298949      -1.06773950      -0.41986959
O       -2.56468444      -1.14156086      -0.91023204       0.93770237       0.44922396       0.24534275
N        0.81779656      -2.06943087       1.75884544      -0.08367678      -0.32191478       0.54397722
N       -1.34790388      -0.28271442       0.80068007       0.61923426      -0.63322186      -0.59965161
N        1.41260847      -1.70498866      -0.44318630       0.39013411       1.12642604      -0.57201567
N       -0.94600304       0.39408583      -1.51286856      -0.83003663       0.05089079       1.57311480
C        1.27352784       0.25047834       0.98676086       0.56490799       0.81258917      -0.16310152
C       -1.27554057       2.46758049      -0.35651986       0.30309037       0.60938173      -0.90061035
C        0.91052087      -0.69209015       2.04582738      -1.09462501       0.67145695       1.65198524
C       -0.18242797       0.24711141       1.46002743       0.27818568       0.42727616       0.27815957
C        2.14476117       1.42115390       1.37218854      -0.58447703       1.04138415       1.58756256
C       -1.36938322       3.74375274       0.36161187       1.60677773      -0.28563494      -0.77800484
C        1.71419664      -0.31194702      -0.31018326      -1.80753723      -2.28234141       0.38405603
C       -1.09737745       1.79222278      -1.58270572       0.95170073       0.28808497       1.01317715
C        0.86386521      -2.58891362       0.49622982       0.98999522       1.12134392       0.06542508
C       -1.68075367      -0.38330301      -0.55581647      -0.21591984      -0.09559745       0.02993026
H        1.20259992      -0.39678170       3.08804950      -0.11083804      -0.73930691      -1.20279426
H       -0.40784628       1.09587248       2.11980855       0.16210138      -0.33082726      -0.49953967
H        2.17263214       2.17429699       0.58261083      -0.13262047      -0.12700957       0.16338637
H        1.73329638       1.89764012       2.34520617       0.79675712      -0.71180993      -1.60231484
H        3.17548737       1.08769383       1.55010975      -0.33451856       0.07284956       0.02524757
H       -1.89127777       3.76963280       1.30793587      -0.32622549      -0.30044924       0.01581422
H       -0.32726074       4.11533750       0.54699001      -0.62355425      -0.40874925       0.20578194
H       -1.76951356       4.46174163      -0.33274333      -0.72350762       0.41534980      -0.15627089
H        0.48917660      -2.71095725       2.46885866      -0.02626089       0.26084219      -0.28265731
H       -1.70048122      -1.12404423       1.24758897      -0.21594772       0.38290344       0.04080798
H        1.64115741      -2.07552055      -1.35871758      -0.25188901      -0.14795422       0.30952736
H       -1.09101585      -0.03708864      -2.38306491      -0.15791372      -0.39919143      -1.43760134
30
Properties=species:S:1:pos:R:3:REF_forces:R:3 REF_energy=-24729.42762356817 pbc="F F F"
O        3.32208775       0.75579879      -0.26270047       0.17551230       0.09068560      -0.09918639
O       -0.67707824       0.82904199      -2.51434696      -0.05269872      -0.01203324       0.19977913
O        0.67913516      -2.82794181      -1.14815576      -0.02167669      -0.06400017      -0.05105430
O       -3.55026492      -1.08560976       0.39192406      -0.10705327      -0.07195829       0.09001322
N        0.21998374      -1.60432601       0.70148247       0.06597268       0.00769122      -0.06803462
N       -2.00756697       0.35551396       1.25728200       0.09445129       0.05013822      -0.36541865
N        2.01502559      -1.05407143      -0.67350950       0.01441320       0.00886523      -0.13686716
N       -1.91856534      -0.31199954      -0.98112330       0.05655536       0.00430541      -0.06823669
C        1.48233113       0.41843978       1.16638657       2.47122977      -0.18142857      -1.12461047
C       -0.48807332       1.42456473      -0.21966119       1.57203898      -0.82168463       1.29835773
C        0.33435523      -0.41458705       1.48561880       0.25383766       0.29083887      -0.10720646
C       -0.57085098       0.74342458       1.15090213      -4.21915025       0.52235002       0.18270110
C        1.96423306       1.47105933       2.08543275       0.02573892       0.05633834      -0.08659617
C       -0.37673315       2.89541572      -0.32482919       0.27321322      -0.06538726      -0.04508505
C        2.35165588       0.08941580       0.03456254      -0.19568995       0.05060101       0.30681680
C       -0.97939030       0.64327001      -1.35330866      -0.05755165       0.02699882      -0.16707321
C        0.94062615      -1.89309075      -0.42964943      -0.01746886       0.00070579       0.06462162
C       -2.56581987      -0.39667355       0.25535956       0.05640086       0.03013975      -0.18618261
H        0.26623066      -0.65766289       2.55137926      -0.03946030       0.10495181      -0.09413977
H       -0.41666862       1.50433466       1.90900725      -0.06414754       0.02369506      -0.03730725
H        1.81133391       2.47269728       1.67438058      -0.00900081      -0.00063221       0.01136830
H        1.48886616       1.41495169       3.05926852      -0.06570831      -0.00119911       0.05460961
H        3.04116575       1.37229590       2.19584444       0.09244195       0.00032550       0.00482527
H       -1.27482787       3.37261256       0.08149495      -0.02629566       0.00446047      -0.03434637
H        0.46967561       3.27232625       0.25986073      -0.10816774      -0.02740495      -0.11190261
H       -0.25776772       3.19009493      -1.36746790      -0.03419017      -0.01542071       0.14429725
H       -0.59659418      -2.17875808       0.81591033      -0.00942081      -0.00168683      -0.00424267
H       -2.45269908       0.19842245       2.13991649      -0.03917858       0.00244379       0.30638712
H        2.54616532      -1.24760614      -1.50969314      -0.07052828       0.00614427       0.10479330
H       -2.31885977      -0.86985012      -1.71865216      -0.01967665      -0.00725854       0.01776816
30
Properties=species:S:1:pos:R:3:REF_forces:R:3 REF_energy=-24731.532182778057 pbc="F F F"
O        2.71303518       1.12674031      -0.07862792      -0.26341740      -2.15578721      -1.46812326
O       -0.30340099       1.21696702      -2.31165262      -0.91178756      -0.00918926       2.40740393
O        0.68603895      -2.83201502      -1.45572287       0.24690572       0.84995313       1.14740510
O       -2.67799557      -1.71082915       0.25293485      -0.42286859      -0.17717821      -0.12515536
N        0.48978665      -2.05779693       0.73873350       0.12789053      -0.64976340      -1.10098492
N       -2.34423115       0.36427065       1.05203191       0.14535371       2.66369346      -0.30455825
N        1.78063008      -0.93113794      -0.78434707       1.16150010      -0.24452890      -1.87040202
N       -1.50740252      -0.19930217      -1.01585798      -0.52238952       0.38224675       1.12250399
C        1.67890894      -0.14554620       1.48212326      -1.92203966      -1.30578490      -0.74397596
C       -0.87734961       1.90623342      -0.05168044      -2.13427261       0.52393942       1.15169206
C        0.78187499      -1.14343554       1.70211471       1.90360455       1.57433984      -0.54083852
C       -1.79394000       1.69954746       0.96049812       1.49738408      -3.31693573      -1.24890206
C        1.85367933       0.97933898       2.39502570       1.38638016       1.73982179       0.17619676
C       -0.09273347       3.14504489      -0.13964011      -0.80138366       1.24308654       2.97194523
C        2.14309816       0.04174494       0.13074584       0.68781416       2.51124104       0.76295081
C       -0.86658591       1.02461929      -1.21568633       0.93912148      -0.50121476      -1.60941281
C        0.98007758      -2.03061718      -0.57793041      -0.54349206      -0.02512010       0.68415960
C       -2.25632375      -0.58849919       0.09331895       1.93413027      -0.35382474      -1.35298982
H        0.36062967      -1.16118712       2.67270985      -0.88271688      -0.69505104       0.48617318
H       -1.92603749       2.24435681       1.89059121       0.06699882       0.31319028      -0.52410516
H        1.83109903       1.99722315       1.90382222      -0.75143981      -1.33760070       0.21709573
H        1.13208525       0.89027786       3.19157336       0.16607421       0.28589466       0.52700344
H        2.90463649       1.04600270       2.72145185      -0.42216683      -0.42721678       0.55184059
H       -0.79590933       3.98235871      -0.20152970       0.30648540       0.07440249      -0.46885351
H        0.42596045       3.33624798       0.84619771      -0.22949737      -0.31620697      -1.19905746
H        0.57884951       3.11883591      -0.92890862       1.19246080       0.10700026      -1.33038868
H       -0.24669417      -2.70484529       0.86848711      -0.61385219      -0.63675488       0.22431424
H       -3.16298648       0.17607661       1.56056997      -0.84411476       0.19293043       1.35721498
H        2.16567541      -0.93728069      -1.74508410      -0.35171162       0.54670562       0.98125018
H       -1.19100861      -0.91796019      -1.61416697      -0.13413060      -0.86512602      -0.88697510
30
Properties=species:S:1:pos:R:3:REF_forces:R:3 REF_energy=-24729.55938828272 pbc="F F F"
O        4.16140687      -0.24439096       1.11629704      -0.82799016      -0.15674780      -0.09387836
O       -2.17559418       1.91087171      -2.09620522       0.10613356      -0.09351687       0.30304851
O        1.33531456      -2.87190838      -1.19692375      -0.08806707       0.51307133       0.35499860
O       -3.60731851      -1.57838268       0.39389843      -0.27234664      -0.18979809       0.01390791
N        0.45210873      -0.99207904      -0.22713689       0.96422708      -0.05785636       0.14503453
N       -1.93668761      -0.30906207       1.24353882       0.07330155      -0.05838078       0.41367344
N        2.59978748      -1.70754287       0.29445581       0.34649709       0.20880145       0.23304231
N       -2.66398681       0.02142424      -0.92654586       0.03973418       0.00720211       0.01172466
C        1.88214829       0.43364992       1.05598331      -0.61164948      -0.37963233       0.02606500
C       -1.11982041       1.60183653      -0.00883856       0.47700997       0.10057727       0.60053002
C        0.51513046      -0.21387716       0.99466489      -0.49633062       0.23391650      -0.01165839
C       -0.84031346       0.63049268       1.11057072       0.64327220       0.23368818      -0.23586213
C        2.13610113       1.84169145       1.32431238       1.00671878       0.23271986       0.68647237
C       -0.56427100       2.97299779       0.03027678      -0.89725158      -0.28985589      -0.19400029
C        2.98639550      -0.48758776       0.85840174       0.35717132       0.09486216      -0.31627275
C       -1.99214711       1.23724446      -1.09258621      -0.20125212      -0.07340781      -0.18506756
C        1.42959350      -1.92590253      -0.43860453       0.26783505      -0.69414234      -0.49985205
C       -2.80627183      -0.68831360       0.26118703       0.35382316       0.25435420      -0.14452101
H        0.47561276      -0.90159780       1.85989763      -0.13160333       0.15341015      -0.04468955
H       -0.74620195       1.21321812       2.03605413      -0.07769323      -0.14578885      -0.15294843
H        3.18054800       2.00477218       1.64256799      -0.54755628      -0.19556577      -0.03764352
H        1.99557900       2.43838873       0.44707189       0.05599573       0.29914992      -0.64573663
H        1.45132423       2.24202111       2.05307391      -0.17925519       0.16890272       0.41115273
H       -0.53239923       3.35769089       1.03538154      -0.08109118       0.09687427       0.49897101
H        0.44546603       3.01849408      -0.30945894       0.73134757      -0.03386726      -0.50719185
H       -1.13597036       3.63967319      -0.60634342      -0.10009800      -0.06616572      -0.07592164
H       -0.42570939      -1.26317005      -0.59939214      -0.70102440      -0.16005882      -0.20767837
H       -2.01119448      -0.86124229       2.08513144       0.04855958       0.11895297      -0.16284462
H        3.36931130      -2.32756241       0.08941519      -0.17978891      -0.08774224      -0.07693868
H       -3.33295357      -0.20718149      -1.64021340      -0.07969178      -0.05446821      -0.11912362
30
Properties=species:S:1:pos:R:3:REF_forces:R:3 REF_energy=-24732.95893003406 pbc="F F F"
O        2.86446701       1.06992513      -0.72218645      -0.24635610      -0.27912439       0.12310142
O       -0.41877177       0.84012794      -2.04806362      -0.03437890      -0.03516679       0.05837245
O        0.52551594      -2.75913624      -1.47142175      -0.18159040      -0.15173616       0.00396275
O       -2.61195068      -1.74544267       0.96742244      -0.05553115      -0.28046805       0.06488408
N        0.71704312      -2.00547757       0.66143227      -0.53741038      -0.11670477       1.10353092
N       -2.46913934       0.49970777       1.33541357       0.04032052      -0.58395954      -0.36574073
N        1.82686129      -0.93711727      -1.04883707      -0.08577804       0.16384073       0.20951158
N       -1.61203042      -0.41005217      -0.59153278      -0.00152574      -0.42268445      -0.09143928
C        1.78253597       0.10013699       1.11761529      -2.10778228      -2.49209961       2.03717449
C       -1.11219238       1.88664030      -0.02729627      -0.22738364      -0.09893046      -0.47025326
C        1.03009542      -1.00553946       1.54031155       1.95111334       2.24017662      -1.96479190
C       -1.89959434       1.71189287       1.03852140       0.52536457      -0.02091514      -0.16946802
C        2.13437446       1.20780067       2.04363994       0.33106219       0.04230841       0.02038816
C       -0.41389355       3.15907684      -0.37773912       0.31529104      -0.23336405       0.19161493
C        2.20818601       0.16057177      -0.23884251       0.54080989       0.09440018      -1.29305480
C       -0.99662017       0.77244998      -0.98521668       0.11088546       0.46421434       0.00202706
C        0.98498809      -1.96007144      -0.68690544       0.56176122       0.28745044      -0.57255695
C       -2.25826806      -0.65074335       0.59586386       0.07373718       0.63360095       0.00981030
H        0.68705295      -1.10629866       2.54588304      -0.18343073      -0.12591778       0.33549268
H       -2.06906845       2.49964630       1.74439345      -0.12737800       0.17854176       0.23554455
H        1.70481912       2.14017804       1.68002614       0.14699123       0.07784179       0.07881025
H        1.78277001       1.01747770       3.05516284      -0.09623831      -0.02732191      -0.04741484
H        3.22332762       1.31089354       2.08245237      -0.20087790       0.20770596      -0.04038533
H       -0.76278392       3.55308720      -1.32143531      -0.04432706       0.03563786      -0.24194931
H       -0.57079519       3.90182647       0.39057216      -0.05579474       0.20165635       0.19308983
H        0.66209293       2.97892028      -0.46883442      -0.17883113       0.03821580      -0.08090037
H        0.03836987      -2.69722112       0.95087488       0.12281336       0.01499867      -0.22273512
H       -2.95202570       0.33810731       2.18782512      -0.26654366       0.07963620       0.50347713
H        1.98957401      -0.84081000      -2.04562737      -0.04540745       0.03885972       0.30703706
H       -1.46795282      -1.21440011      -1.19141644      -0.04041393       0.08153731       0.03554916
30
Properties=species:S:1:pos:R:3:REF_forces:R:3 REF_energy=-24731.538011581248 pbc="F F F"
O        3.18057314       1.04352909      -0.49230242      -1.25065790      -1.12978861       0.46581883
O       -0.92448910       0.46677421      -2.07827636      -0.04487844       0.19284420       0.62708457
O        1.34078890      -2.90068306      -1.73756567       0.00852756       0.67085017       1.48155109
O       -3.11842253      -1.15249333       1.62992972       0.38808027       0.12086988      -0.41218068
N        0.64159645      -2.03383745       0.27598249       0.01906244      -0.11451261       0.63117951
N       -2.33466022       1.00997062       1.66048914      -1.20760339      -2.19994900       0.67444794
N        2.30313349      -0.97106523      -1.06825926      -2.21238933       0.23366635       3.10314705
N       -2.04711431      -0.34884912      -0.25977506      -0.06555200       2.13934544       1.53480575
C        1.56613484       0.08454850       0.97817138      -2.63189590      -3.70865535       0.30221385
C       -1.01463964       1.86900387      -0.12054142      -0.57553070       1.61045882       2.65974920
C        0.70580182      -1.01576460       1.18761285       4.15565468       2.35625129      -2.54179272
C       -1.59382276       2.01583468       1.18546292       2.35187903      -0.05961179      -4.00848858
C        1.87205848       0.95665879       2.10797292       1.83290600       0.24842019      -0.68706869
C       -0.02179863       2.90033853      -0.68314070       0.33441182      -0.51452235       0.00309459
C        2.37162355       0.14006472      -0.21933445       1.66709256       1.17284450      -0.79557798
C       -1.30019856       0.67945732      -0.94365838      -0.06670879      -0.53194186       0.65610131
C        1.43222996      -2.02462489      -0.87899255       0.00947096      -1.40739211      -2.47094104
C       -2.54522814      -0.27055047       1.02709302       0.30707881       1.57233610       0.46074820
H        0.36611459      -1.20707129       2.14049983      -1.27752611      -0.29411178       1.71030791
H       -1.40565882       2.87857127       1.85594575      -0.15336554      -0.72120207      -0.73890976
H        2.44322254       1.76067756       1.66092594       0.18132563       0.42684887       0.45347142
H        1.02229938       1.33543221       2.57380633      -1.39121646       0.62163112       0.92003031
H        2.51309774       0.41567642       2.81250176      -0.13103912       0.32603537       0.06058001
H        0.00898869       2.73485410      -1.77577897       0.02391420       0.44463634       0.57335089
H       -0.25901358       3.94764192      -0.43101968      -0.24869668      -0.55460155      -0.25299296
H        1.02752403       2.75233347      -0.31036806      -0.97618512      -0.20286621      -0.29173637
H        0.32333018      -2.93979603       0.63908151       0.09905160       0.63504283      -0.91630365
H       -2.64355323       0.99998828       2.62528550      -0.05077391       0.08678859      -0.36338047
H        2.82258332      -0.93643881      -1.88575684       0.91258677      -0.09770869      -1.70517303
H       -1.99743492      -1.27754989      -0.55748581       0.00709885      -1.32683334      -1.16828323
30
Properties=species:S:1:pos:R:3:REF_forces:R:3 REF_energy=-24729.645806458488 pbc="F F F"
O        4.06130493       0.11764557       0.38035568       0.54471441       0.48603767       0.09760704
O       -1.73502091       1.51559448      -2.35756629       0.22692461       0.31656246       0.19292669
O        1.09494669      -3.00764397      -1.08136167       0.27525090      -0.60321964      -0.43013328
O       -3.63735440      -1.31509754       0.51336815      -0.39554010      -0.57371707      -0.18944475
N        0.32386103      -1.27546679       0.11135940       0.38464956       0.44213842       0.12576770
N       -2.00897742      -0.00680606       1.29751709       1.05273182       0.46172205       0.74351489
N        2.61832785      -1.48273330      -0.27419534      -0.80614693       0.00023809       0.10946403