30
Properties=species:S:1:pos:R:3:REF_forces:R:3 REF_energy=-24727.785375786232 pbc="F F F"
O        2.57758712       1.29151957      -0.80621839      -1.82946064      -3.65400931       1.45241104
O       -0.87161223       1.44542957      -2.04316414      -0.17725358      -0.31972072      -0.54896324
O        1.03074790      -2.99845487      -1.63008166      -0.01427927       0.64018461       0.77227010
O       -2.88243615      -1.65652216       0.63250540      -0.67912261      -1.01251492       0.46513095
N        0.68130228      -2.10943580       0.44307880       0.19088686       1.54211681       0.86280938
N       -2.08903296       0.26947781       1.57449379      -0.90720939       0.32993882       1.47572337
N        1.85179599      -0.95022863      -1.20555832      -0.18512143       3.97128728       3.79709196
N       -1.86436503      -0.08307154      -0.68179472      -1.40655566      -5.05289281      -1.58104899
C        1.74989778       0.00516826       1.04307905      -1.25731820      -1.89058473       0.21907243
C       -1.03164131       1.89694233       0.23219722       0.89261334       1.02428686      -2.03821925
C        0.98925082      -1.09131892       1.35428607       0.80793401       0.27582192      -1.60846720
C       -1.41833582       1.47798798       1.55424510      -0.73190477      -1.67774369       0.62276193
C        2.08574698       0.91707492       2.14058938      -1.26981406       0.74536086       1.85969170
C       -0.27822107       3.16970681       0.17852090      -0.15120079      -0.35060817      -1.25128138
C        2.05131835       0.23895026      -0.32439457       2.23491803       1.59130124      -2.95330469
C       -1.28294191       1.10640117      -0.94232006       1.36929519       2.37329006       1.15318105
C        1.18550631      -2.05537973      -0.85650163      -0.54783424      -2.75221852      -1.12480820
C       -2.36493368      -0.59142054       0.53108364       2.00874308       2.17381654      -1.81647089
H        0.62107326      -1.08733594       2.35376129      -0.34577603      -0.87809025       0.43480344
H       -1.57279155       2.19247586       2.33815298      -0.29068098      -0.06551764       0.25244203
H        1.24878719       1.67175909       2.19150760       1.00067215      -0.52158848       0.35144492
H        2.11502979       0.31958359       3.11209560      -0.13124933       0.99861304      -1.20817707
H        3.01451102       1.45315299       2.06722103       0.33589187       0.03877583      -0.38245287
H       -0.81632200       3.98673436      -0.37417129       0.44085671      -0.66419214       0.65611112
H       -0.11358993       3.34241432       1.20358988       0.24971172       1.31441559       1.11028377
H        0.72570669       3.07579554      -0.27641925      -0.53272443      -0.20256128      -0.18781835
H        0.14353612      -2.93115476       0.71114045       0.31080168       0.50444330      -0.30914870
H       -2.62781439       0.00804262       2.38557528       0.25843212       0.08124639       0.27974947
H        2.45949257      -0.85070522      -1.95241081       0.63629836      -0.51659968      -2.14358094
H       -1.80394907      -0.85189236      -1.42817255      -0.26200756       1.93825778       1.38378570
30
Properties=species:S:1:pos:R:3:REF_forces:R:3 REF_energy=-24725.89187282246 pbc="F F F"
O        2.14471586       0.14308317      -1.17733601      -0.04153414       0.11017487       0.00731007
O       -0.47780384       2.48121817      -2.46697187      -0.72302423      -0.55126292      -1.05944535
O        0.44928279      -3.70171275       0.45229594       0.03400999       0.18603507       0.01233302
O       -2.41389170      -1.25968630      -1.08935676      -0.09982279      -0.10119002      -0.07133872
N        0.44553937      -1.89670025       1.82921971      -0.00869985      -0.21325183       0.18572504
N       -1.46895588      -0.17887011       0.64207721      -0.00559955      -0.05442920       0.13882170
N        1.10672220      -1.69029912      -0.38544341      -0.03857365      -0.12331271      -0.01045971
N       -1.05835097       0.45392839      -1.62049102       0.12170199       0.28626658       0.27309097
C        1.05821986       0.37481088       0.93503904       0.62209770      -0.97196947       0.26235231
C       -0.05389627       2.36223473      -0.32564169      -2.27106000      -0.44836039       1.23568188
C        0.56330570      -0.50114911       2.05142831      -0.08267774      -0.03053067       0.33912963
C       -0.39592188       0.43235620       1.35803545      -0.04956179      -0.08669395       0.25897917
C        2.02271677       1.46059656       1.35269079       0.00976517      -0.00749340       0.03972222
C       -0.95827484       3.29378699       0.35596840       0.97918701       1.06224053      -0.27921391
C        1.48272357      -0.36511478      -0.30597352      -0.00706921       0.00076400       0.03996628
C       -0.57604855       1.74097720      -1.50141809       1.72306875       0.65574693      -1.09940729
C        0.63965872      -2.52052815       0.63489020      -0.01027278      -0.16959997      -0.06206402
C       -1.68244223      -0.38076091      -0.69933729       0.06687625       0.05563726       0.19058685
H        0.89029570      -0.23662942       3.05116671      -0.03626552      -0.06158325      -0.16009810
H       -0.64931915       1.32632997       1.91117802       0.00232357      -0.06809537      -0.07665917
H        2.33344830       2.04909400       0.49381042       0.00891345       0.01447723       0.08731443
H        1.56246660       2.10896108       2.09587780      -0.00082470       0.04341708      -0.04409987
H        2.90097083       0.99436729       1.81162748      -0.10431698       0.13398645      -0.15703083
H       -1.98388740       2.92850493       0.52368502       0.35394180      -0.36709181       0.02888703
H       -0.55367443       3.71503482       1.27223694      -0.06567570      -0.00024089       0.14982812
H       -1.03319024       4.10553216      -0.37462138      -0.36318406       0.48998423       0.23713447
H        0.06501803      -2.48835887       2.54935099       0.04239573       0.07271582      -0.07940269
H       -1.97340815      -0.88269675       1.16736556       0.11351786       0.15269709      -0.15354529
H        1.35894332      -2.18238651      -1.22994443       0.00551962       0.08322333       0.03614140
H       -1.27581166       0.20496622      -2.56712636      -0.16135901      -0.08842928      -0.27621956
30
Properties=species:S:1:pos:R:3:REF_forces:R:3 REF_energy=-24729.208374800884 pbc="F F F"
O        3.25212642       0.30673938      -0.87173591      -0.92521893       0.19719037       0.91617486
O       -0.80339226       1.61678389      -2.30836757      -0.08804510       0.51093763      -0.70514061
O        0.39316876      -3.04995352      -0.26889158      -0.21478753      -1.11478508      -0.29652179
O       -2.96170553      -1.83827475      -0.51094102       0.23205607       0.55915062       0.80002287
N        0.31425358      -1.39016343       1.24212957       0.80675931      -1.06550071      -0.30505270
N       -2.03229599      -0.26703829       0.94427635      -0.42091906      -0.36725256       0.47869330
N        1.55917186      -1.17926187      -0.72466353       0.31581716       0.66471239       0.09737226
N       -1.48206851      -0.28040003      -1.27730056      -0.39449500       0.41327224      -0.45913041
C        1.68867047       0.55669069       0.91151789      -1.33647236      -0.39357128       1.23300159
C       -0.98002301       1.65667427       0.03005991       0.29390355      -0.99903617       0.18403853
C        0.38947254      -0.01706982       1.55348529       2.15733132       0.73033444      -0.55314046
C       -0.94791322       0.69052490       1.17267264      -1.56716152       1.31331403       0.71848022
C        2.51956475       1.52980821       1.62068350       0.97607293       0.63316117      -1.09200522
C       -0.76903814       3.08225728       0.19594916       0.10330526       0.81923657       0.14683498
C        2.23836371      -0.04847004      -0.25714677       0.82647797      -0.78081709      -1.73292737
C       -1.10562301       1.06666007      -1.27434900       0.36619322      -0.50285149       0.58571056
C        0.74140558      -1.95300054       0.06225807      -0.38100222       0.32301038       0.04785455
C       -2.25006662      -0.88828998      -0.26919711       0.59123539       0.12312249      -0.87733780
H        0.56182573       0.09930644       2.63275894      -0.32454196      -0.01539579      -0.26351545
H       -1.19041712       1.28911839       2.08188512      -0.19111507      -0.47262882      -0.63409779
H        3.50663948       1.45445981       1.13066879      -0.34284514       0.35888506       0.30416680
H        2.19016751       2.58041259       1.48999813       0.04348165      -0.45919234       0.22336322
H        2.66202175       1.31114514       2.66510691      -0.32170042      -0.03495894       0.51061399
H       -1.62095495       3.56137155       0.73928810       0.47546172      -0.26728063      -0.47454275
H        0.10817854       3.24754087       0.84068966      -0.15526469       0.15431566      -0.23351316
H       -0.61638298       3.53616021      -0.79808473      -0.11834531      -0.01589184       0.64355678
H       -0.34425863      -1.98092917       1.71098312      -0.06211988      -0.04210639       0.09160268
H       -2.39261607      -0.78774766       1.73053417      -0.05816384       0.21355622      -0.12342817
H        1.89314654      -1.57944518      -1.59693114      -0.12020788       0.03724028       0.47974703
H       -1.63816247      -0.57021544      -2.23347564      -0.14276180      -0.51061119       0.27504264
30
Properties=species:S:1:pos:R:3:REF_forces:R:3 REF_energy=-24724.90469029008 pbc="F F F"
O        2.40030853      -0.39190620      -1.11330327       0.09529846       0.02401477      -0.11528129
O        0.06979949       2.90660725      -2.00883055      -0.12694350      -0.90065458      -1.88267639
O        0.18262351      -3.84025316       0.77341565      -0.00953868      -0.06727154       0.03238884
O       -2.05081057      -1.00029755      -1.55813236      -0.05876781      -0.07070580      -0.05259644
N        0.41848967      -1.95430235       2.01742128       0.09529614       0.06575643      -0.12266427
N       -1.37579993      -0.29299889       0.47715815       0.17934676       0.12958836       0.15175307
N        1.08233326      -1.99713055      -0.20819714       0.07284879       0.11816879       0.03090740
N       -0.72231712       0.82285659      -1.53677386      -0.06639247       0.18158666       0.23385175
C        1.48918104       0.03926103       1.02442304      -2.67848091       0.41546970       0.35696161
C       -0.48533489       2.86108062      -0.00700194      -2.15760673      -0.30684194       0.88080095
C        0.58152743      -0.53243889       2.06756809      -0.05998876      -0.20510049       0.00237432
C       -0.46562784       0.29685973       1.34969389       2.81734163      -0.49994617      -0.62230742
C        2.30752637       1.26470099       1.27229712      -0.22966389       0.02237744       0.20487420
C       -1.73125018       3.62173338       0.16885977       0.14067998      -0.43853130       1.33534855
C        1.71403251      -0.75351798      -0.18434490      -0.18580553      -0.06518260       0.21192075
C       -0.39956146       2.11059171      -1.19904487       2.25018081       0.72117002      -0.63544329
C        0.53003964      -2.68622315       0.86658389       0.01811749       0.05082027      -0.09462202
C       -1.43962617      -0.19805112      -0.90034915       0.07616336       0.12934125       0.09388436
H        0.79558673      -0.20432451       3.07290673       0.01705176       0.03660884       0.14482191
H       -0.53307235       1.33925973       1.59224394      -0.07396030       0.10644692       0.00793086
H        2.48521108       1.80198244       0.34934222       0.05520099       0.02282268      -0.11047105
H        1.79992360       1.94064762       1.96603874       0.06850392      -0.13098375      -0.07942520
H        3.26943888       0.99461957       1.70895495       0.03827595       0.00822467      -0.00562708
H       -2.38689847       2.92406071       0.70929148      -0.40733687       0.29397160       0.12340367
H       -1.62016179       4.49638852       0.78646201      -0.07427329       0.44260571       0.13344621
H       -2.23805046       3.86349088      -0.76653095       0.36564944       0.16449742      -0.19826171
H       -0.03228816      -2.43398301       2.77011829      -0.08798914      -0.07887860       0.15867727
H       -1.78405612      -1.16447876       0.77725203      -0.03709213      -0.06738660       0.00524633
H        1.23328025      -2.55032166      -1.03517940      -0.01208156      -0.05222457      -0.03870094
H       -0.61815336       0.65089577      -2.52334090      -0.03724401      -0.04414577      -0.14750694
30
Properties=species:S:1:pos:R:3:REF_forces:R:3 REF_energy=-24729.520623845798 pbc="F F F"
O        3.20367070       0.39413202      -0.91503961      -0.51436035      -0.06095531       0.52760308
O       -0.64275586       1.53594249      -2.31016284      -0.13399522      -0.16009541       0.52908687
O        0.40934181      -3.08527786      -0.35054718       0.07028390       0.39368119       0.08754748
O       -3.00951747      -1.77720217      -0.41520551      -0.07451851      -0.07854839      -0.09557681
N        0.33596101      -1.43804757       1.21158367       0.11551854       0.23783931      -0.29455001
N       -2.14965066      -0.18762261       0.96244538       0.23020168      -0.18317466       0.13883594
N        1.54886954      -1.15747960      -0.76510883       0.18413689       0.14428312       0.04838045
N       -1.48550987      -0.29337797      -1.25750363      -0.37432964      -0.43263043       0.26020146
C        1.74496489       0.50196293       0.96162948      -1.71965904      -0.03206450       0.19058343
C       -0.86401006       1.61663070       0.04806946      -0.64778873      -0.21021173       0.09618586
C        0.39432328      -0.03459079       1.55253453       1.11275145      -0.22110739      -0.67915693
C       -1.06688521       0.72165966       1.22493854       0.97117292       0.44559701      -0.36364193
C        2.48247313       1.57620135       1.64842735       0.38765015      -0.08934217      -0.07757627
C       -0.68984821       3.07308404       0.19808026       0.01568173      -0.09166792      -0.15514573
C        2.24428454      -0.04599928      -0.28921657       0.25375663      -0.02992356      -0.17272168
C       -0.97231179       0.99890639      -1.25775533       0.22288945       0.53897608      -0.61034542
C        0.72786820      -1.96908501       0.00668895      -0.01825882      -0.47078640      -0.17960270
C       -2.27659914      -0.83562111      -0.24567491       0.11019140       0.11993590       0.18107627
H        0.51195742       0.04013916       2.62236626      -0.07197124       0.02732729       0.37693403
H       -1.32205070       1.30319075       2.11112286       0.14616526      -0.04031644      -0.11412468
H        3.47712773       1.73416712       1.19738886      -0.59524608      -0.08878555       0.19402101
H        1.92416888       2.51249992       1.61980587       0.02704478       0.15008912      -0.07883195
H        2.58258578       1.34309358       2.71270360       0.08179458      -0.03188658      -0.03408555
H       -1.56783115       3.54269177       0.65584395      -0.03379505      -0.17634280       0.00473215
H        0.14096639       3.29496509       0.85606716       0.22853636       0.15266640       0.14862855
H       -0.52285343       3.53538343      -0.76501937       0.10526916       0.04133966      -0.12607513
H       -0.30875752      -2.02946322       1.69458865      -0.20456148      -0.13896350       0.10964760
H       -2.70837339      -0.57251024       1.71144595       0.24892459       0.09093370      -0.19817403
H        1.91421188      -1.56016674      -1.62173463      -0.20695512       0.02438453       0.31223611
H       -1.59609858      -0.76434845      -2.14289059       0.10386429       0.18935895      -0.03954824
30
Properties=species:S:1:pos:R:3:REF_forces:R:3 REF_energy=-24729.234637535104 pbc="F F F"
O        2.93284153       1.25105916      -0.49984185       0.49353015       0.65820536      -0.37098522
O       -0.54062069       0.42650653      -1.84540698       0.23664888      -0.13389487      -0.51727744
O        1.42165006      -2.83639995      -1.81453705      -0.11433031       0.19890554       0.39686322
O       -3.08823256      -1.35924619       1.44664127      -0.23217140      -0.31667168       0.07811492
N        0.79013000      -2.03150271       0.23025433      -0.23894887      -0.53073418      -0.31557598
N       -2.37051663       0.78697844       1.66377516      -0.22110982      -0.20445871      -0.09040476
N        2.21092789      -0.81157061      -1.10928954       0.00621896      -0.73015893      -0.42980639
N       -1.91916050      -0.38520715      -0.25821065      -0.30610165      -0.22123003       0.22232649
C        1.53796922       0.12249322       0.99674773       1.28774706       1.36940236      -1.08268732
C       -0.98843754       1.81387361       0.01748399      -0.09753595       0.32085256       0.02975017
C        0.81391208      -1.08325498       1.18872635      -1.45477667      -1.28597105       1.99388558
C       -1.65634174       1.85446915       1.17784574       0.20271823       0.03011413      -0.07985814
C        1.60760353       1.15993448       2.04741799      -0.16288752       0.15937415      -0.56263406
C       -0.17774345       2.95710612      -0.51844042      -0.13276976       0.00214645       0.23947251
C        2.26463999       0.26217533      -0.22640102      -0.45854959       0.40671787       1.26631103
C       -1.09721314       0.60039521      -0.79048781      -0.07335404       0.25722227       0.30830184
C        1.47070740      -1.95898967      -0.98025555       0.23773723       0.12449266      -0.32453724
C       -2.51690088      -0.40252756       0.98597106       0.45106282       0.34510041      -0.22026035
H        0.26861491      -1.24632115       2.10584698      -0.00187286      -0.22114718      -0.24353672
H       -1.64599290       2.72830274       1.80801436       0.00506627       0.04759605       0.07011026
H        1.34074691       2.13515887       1.62083912       0.14754483      -0.17686909       0.08097692
H        0.95412044       0.95402265       2.88529105      -0.07620623      -0.15759452       0.06282129
H        2.63054793       1.26559185       2.39815815       0.19999925      -0.00426189       0.08570513
H       -0.54448093       3.24925123      -1.49647872      -0.03623904       0.06818505      -0.09792891
H       -0.21926598       3.82143881       0.15262438      -0.04136750      -0.20532959      -0.13296099
H        0.85997958       2.66588551      -0.64559865       0.13902546      -0.05338142      -0.02327394
H        0.23893755      -2.86625376       0.37410602       0.15884326       0.09673010      -0.13117252
H       -2.84425409       0.81716129       2.54420329      -0.01863213       0.13179055       0.18782105
H        2.68856866      -0.70124251      -1.97993755       0.11438367       0.09205973      -0.28735857
H       -1.99191243      -1.24002244      -0.78339179       0.00174051      -0.05405801      -0.09233754
30
Properties=species:S:1:pos:R:3:REF_forces:R:3 REF_energy=-24729.55672145758 pbc="F F F"
O        3.11472325       0.53952260      -0.85919076       0.00431095       0.04434729       0.04015659
O       -0.44036904       1.34518391      -2.30964785       0.04807023       0.12924724      -0.12230137
O        0.42294714      -3.06785059      -0.54553779      -0.04677550      -0.02004838       0.00803263
O       -3.14993303      -1.59248066      -0.25318676       0.04108813       0.02612179       0.04956531
N        0.28719985      -1.51914701       1.10458269      -0.03588875       0.28864425      -0.04632041
N       -2.12923757      -0.02947163       1.04976941       0.05227127      -0.31195529       0.12949831
N        1.59069781      -1.14009827      -0.78927533       0.08803430      -0.00990416      -0.18867232
N       -1.50382994      -0.30728055      -1.17186889      -0.12783578      -0.16634368       0.06315787
C        1.59080052       0.53291279       0.94221839       0.10138548      -1.08503272       0.99705487
C       -0.62803053       1.56663123       0.04748386      -1.79662211      -0.34479547       0.06179399
C        0.37459520      -0.15409148       1.57829901       1.26098883       0.01302824      -0.89990540
C       -0.91819722       0.71835209       1.27831533       0.23971616       1.04991359      -0.76125395
C        2.31061881       1.58637860       1.69555697      -0.26849178       0.09564517      -0.30223446
C       -0.59864064       3.04175747       0.11179841       0.47963873      -0.27954941      -0.09802906
C        2.17509574       0.01413805      -0.28805058      -0.16380874       0.23772677       0.38002139
C       -0.81912202       0.90546516      -1.24289416       0.00820841       0.23414167       0.48358009
C        0.72968677      -1.98353711      -0.10613639       0.06725049      -0.11618800      -0.06610469
C       -2.32324516      -0.72040123      -0.12237724      -0.08980599      -0.02723997      -0.17357709
H        0.51467869      -0.19522281       2.65320087       0.01345619       0.12075398       0.17858441
H       -1.08153557       1.38095060       2.13082416       0.07924133      -0.10211514      -0.12056819
H        3.01359434       2.10791046       1.05104727      -0.04467590      -0.03688807       0.01170174
H        1.62422703       2.30339774       2.15022750       0.01080114      -0.02909600       0.01237233
H        2.87207710       1.13478759       2.51687712       0.04910056      -0.06079627       0.06831785
H       -1.59392546       3.42447679       0.36019306      -0.08672413      -0.05078858      -0.03055165
H        0.06407967       3.39297884       0.89818708       0.10873264       0.12547224       0.02774668
H       -0.29609078       3.44293994      -0.84981011       0.02338702       0.10811249       0.01932118
H       -0.37103799      -2.13557336       1.54153127      -0.12496887      -0.07757194       0.02002236
H       -2.69412531      -0.36281189       1.81965332       0.25355043       0.09413758      -0.17307967
H        1.98082305      -1.50672477      -1.65195653      -0.17523352       0.10657195       0.32338371
H       -1.66096208      -0.78396357      -2.04851061       0.00788417       0.03856920       0.10903140
30
Properties=species:S:1:pos:R:3:REF_forces:R:3 REF_energy=-24726.007563737683 pbc="F F F"
O        2.14090087       0.14114828      -1.17926309      -0.11085351       0.11725870       0.13437752
O       -0.48497831       2.47578354      -2.46966865      -0.51994185       0.09994564      -1.90307081
O        0.44903212      -3.70329081       0.45099941       0.06123898       0.47785582       0.07845756
O       -2.41237814      -1.25839569      -1.08921818      -0.13309559      -0.18443765      -0.05899596
N        0.44621578      -1.89303456       1.82793587      -0.16168119      -0.51584136       0.45629672
N       -1.46748779      -0.18074403       0.64196160      -0.05866311      -0.11615471       0.42549172
N        1.11397174      -1.68648824      -0.38460063      -0.24150797      -0.64587258       0.08541458
N       -1.05711835       0.45292043      -1.61819191       0.28876877       0.33562971       0.36959706
C        1.06133547       0.37293556       0.93953984       0.42857193      -0.96597725       0.16771680
C       -0.06826049       2.36286047      -0.32109022      -1.85085778      -0.45965273       0.98479504
C        0.55998528      -0.49968527       2.05417820       0.08232590       0.02035453       0.51646295
C       -0.39856984       0.43170723       1.36209817       0.06122331       0.02000821       0.19769575
C        2.01954195       1.46360421       1.34607101       0.35686562      -0.10521544       0.04835743
C       -0.95320269       3.30220473       0.34954627       0.50388473       0.84786319       0.36478210
C        1.48117961      -0.36856186      -0.30284837       0.19989637       0.28840478      -0.14505545
C       -0.56052837       1.74524073      -1.51563012       1.18307708      -0.09595158      -0.02811395
C        0.63727087      -2.51888846       0.63713994       0.08842441      -0.29412227      -0.27523394
C       -1.67905513      -0.38320662      -0.69575859       0.10478448       0.22985683       0.03072187
H        0.89216911      -0.24141016       3.05974259      -0.11312100      -0.07784171      -0.32325060
H       -0.64306460       1.33044496       1.91647954      -0.03740380      -0.14614780      -0.13004774
H        2.33593635       2.05117076       0.48136550      -0.12173887      -0.05278999       0.26375581
H        1.57029383       2.09751190       2.10699612      -0.01715741       0.12000266      -0.09107635
H        2.90517251       0.98934284       1.79641633      -0.21433075       0.22247530      -0.21119736
H       -1.96739767       2.89844765       0.54938928       0.44713532      -0.16929690      -0.10727802
H       -0.56946639       3.71426230       1.28780356       0.00481167      -0.07942371      -0.10176075
H       -1.06375480       4.12588968      -0.35290956      -0.32564133       0.51999180       0.05658542
H        0.08194453      -2.49429047       2.55686750       0.11738054       0.24521709      -0.26249537
H       -1.97477666      -0.88284150       1.17149984       0.15324996       0.21938700      -0.22340930
H        1.36241328      -2.19027016      -1.22646059      -0.00002243       0.20998583       0.10117529
H       -1.27359159       0.18503347      -2.55676527      -0.16402841      -0.06156764      -0.42430746
30
Properties=species:S:1:pos:R:3:REF_forces:R:3 REF_energy=-24725.902549776987 pbc="F F F"
O        2.41558320       0.46677509      -0.94739766      -1.61042715      -1.93666250       0.36019772
O       -0.97231762       2.42016531      -2.47905412       0.52760036       0.30367269       0.34020385
O        1.00770025      -3.71656569       0.06054985       0.09041749       0.30114165      -0.26401497
O       -2.31699448      -1.54505427      -0.96758977      -0.66422957      -0.67309229      -0.54351082
N        0.93014544      -2.06643926       1.65034274       0.26695047       0.01749831      -1.33540702
N       -1.27260869      -0.51365880       0.75992314      -0.66396368       0.19462215      -3.91572731
N        1.31347035      -1.53056660      -0.60723479       0.07828850      -0.83112602       0.42808899
N       -1.36679626       0.42268749      -1.52417711       0.12889892       0.90396839       0.19320132
C        1.16887419       0.30711849       0.97770494       0.88502370       1.03022125       1.08200543
C       -1.19645706       2.49148422      -0.08867716       0.72965897       0.42361197      -0.29078784
C        0.87330414      -0.69113814       2.06279015      -1.16824070      -0.02087891      -0.68060671
C       -0.26097459       0.19984309       1.40911931       0.38977112      -1.21094670       1.12511086
C        1.93407739       1.63038734       1.33709843      -1.13570126      -2.08632284       1.00470512
C       -1.50873069       3.86764788       0.45906669      -1.06440233      -1.02340367      -1.77766403
C        1.64742437      -0.24912398      -0.27550821       2.36067022       1.83437069      -1.69644645
C       -1.10729153       1.81821292      -1.43432281      -1.59502743       0.38127032       1.00726550
C        1.07454611      -2.54581823       0.33375951      -0.57031019       0.94020819       1.79763625
C       -1.68165030      -0.59567555      -0.61974284       1.08350220       1.19403340       2.27014047
H        1.12701804      -0.58104805       3.11227303       0.18981571       0.44088079      -0.37356623
H       -0.65695641       1.03628035       1.92943406       0.38487124       0.58801416       0.66935826
H        1.68928078       2.33940395       0.59549446      -0.13289536       0.88247486      -0.66516551
H        1.46265705       1.89515674       2.29954715       0.80540644       0.37353168      -0.26664050
H        3.02729004       1.47245838       1.36368076      -0.78207996       0.06334721       0.22819190
H       -1.37682712       3.93126356       1.52060399      -0.04847420      -0.24548629       0.53751781
H       -0.90764656       4.67375348       0.03902253       0.46254370      -0.18785854      -0.44104613
H       -2.54845248       4.17002153       0.17067919       0.59133013      -0.34360202       0.35351863
H        0.48480259      -2.74606425       2.22039900      -0.17764414      -0.38847775       0.49904681
H       -1.86644509      -1.16410904       1.20606749       0.02571266      -0.66469470       1.06646532
H        1.73959405      -1.92735434      -1.41279879       0.25989519       0.11545727      -0.88993152
H       -1.76203621       0.25510861      -2.44331283       0.36380973      -0.39325630       0.14547450
30
Properties=species:S:1:pos:R:3:REF_forces:R:3 REF_energy=-24729.003565337523 pbc="F F F"
O        2.42131044       1.33793064      -0.31891137      -0.33544773      -0.81559021       0.13748067
O       -0.77719022       0.76745304      -2.40090812      -0.29292458       0.26501587       0.66891113
O        0.55854249      -2.63886751      -1.61892494      -0.14948874      -0.28890267       0.02294216
O       -2.41819966      -1.53224777       1.14831894       0.07413458       0.76247380       0.27068027
N        0.62605896      -2.20385265       0.61244260       0.13243467       0.57274859       0.34502272
N       -1.91887714       0.71374491       1.44323778       0.34062536      -0.20839515      -0.68042053