
                                 *****************
                                 * O   R   C   A *
                                 *****************

                                            #,                                       
                                            ###                                      
                                            ####                                     
                                            #####                                    
                                            ######                                   
                                           ########,                                 
                                     ,,################,,,,,                         
                               ,,#################################,,                 
                          ,,##########################################,,             
                       ,#########################################, ''#####,          
                    ,#############################################,,   '####,        
                  ,##################################################,,,,####,       
                ,###########''''           ''''###############################       
              ,#####''   ,,,,##########,,,,          '''####'''          '####       
            ,##' ,,,,###########################,,,                        '##       
           ' ,,###''''                  '''############,,,                           
         ,,##''                                '''############,,,,        ,,,,,,###''
      ,#''                                            '''#######################'''  
     '                                                          ''''####''''         
             ,#######,   #######,   ,#######,      ##                                
            ,#'     '#,  ##    ##  ,#'     '#,    #''#        ,####,   ,####,        
            ##       ##  ##   ,#'  ##            #'  '#       #'       #'  '#        
            ##       ##  #######   ##           ,######,      #####,   #    #        
            '#,     ,#'  ##    ##  '#,     ,#' ,#      #,     #,   #   #,  ,#        
             '#######'   ##     ##  '#######'  #'      '#     '####' # '####'        



                #########################################################
                #                        -***-                          #
                #          Department of theory and spectroscopy        #
                #                                                       #
                #                      Frank Neese                      #
                #                                                       #
                #     Directorship, Architecture, Infrastructure        #
                #                    SHARK, DRIVERS                     #
                #        Core code/Algorithms in most modules           #
                #                                                       #
                #        Max Planck Institute fuer Kohlenforschung      #
                #                Kaiser Wilhelm Platz 1                 #
                #                 D-45470 Muelheim/Ruhr                 #
                #                      Germany                          #
                #                                                       #
                #                  All rights reserved                  #
                #                        -***-                          #
                #########################################################


                         Program Version 6.0.0  -   RELEASE  -


 With contributions from (in alphabetic order):
   Daniel Aravena         : Magnetic Suceptibility
   Michael Atanasov       : Ab Initio Ligand Field Theory (pilot matlab implementation)
   Alexander A. Auer      : GIAO ZORA, VPT2 properties, NMR spectrum
   Ute Becker             : All parallelization in ORCA, NUMFREQ, NUMCALC
   Giovanni Bistoni       : ED, misc. LED, open-shell LED, HFLD
   Martin Brehm           : Molecular dynamics
   Dmytro Bykov           : pre 5.0 version of the SCF Hessian
   Marcos Casanova-Páez   : Triplet and SCS-CIS(D). UHF-(DLPNO)-IP/EA/STEOM-CCSD. UHF-CVS-IP/STEOM-CCSD
   Vijay G. Chilkuri      : MRCI spin determinant printing, contributions to CSF-ICE
   Pauline Colinet        : FMM embedding
   Dipayan Datta          : RHF DLPNO-CCSD density
   Achintya Kumar Dutta   : EOM-CC, STEOM-CC
   Nicolas Foglia         : Exact transition moments, OPA infrastructure, MCD improvements
   Dmitry Ganyushin       : Spin-Orbit,Spin-Spin,Magnetic field MRCI
   Miquel Garcia          : C-PCM and meta-GGA Hessian, CCSD/C-PCM, Gaussian charge scheme
   Tiago L. C. Gouveia    : GS-ROHF, GS-ROCIS
   Yang Guo               : DLPNO-NEVPT2, F12-NEVPT2, CIM, IAO-localization
   Andreas Hansen         : Spin unrestricted coupled pair/coupled cluster methods
   Ingolf Harden          : AUTO-CI MPn and infrastructure 
   Benjamin Helmich-Paris : MC-RPA, TRAH-(SCF,CASSCF), AVAS, COSX integrals, SCF dyn. polar.
   Lee Huntington         : MR-EOM, pCC
   Robert Izsak           : Overlap fitted RIJCOSX, COSX-SCS-MP3, EOM
   Riya Kayal             : Wick's Theorem for AUTO-CI, AUTO-CI UHF-CCSDT
   Emily Kempfer          : AUTO-CI, RHF CISDT and CCSDT
   Christian Kollmar      : KDIIS, OOCD, Brueckner-CCSD(T), CCSD density, CASPT2, CASPT2-K, improved NEVPT2
   Axel Koslowski         : Symmetry handling
   Simone Kossmann        : Meta GGA functionals, TD-DFT gradient, OOMP2, (MP2 Hessian; deprecated post 5.0)
   Lucas Lang             : DCDCAS
   Marvin Lechner         : AUTO-CI (C++ implementation), FIC-MRCC
   Spencer Leger          : CASSCF response
   Dagmar Lenk            : GEPOL surface, SMD, ORCA-2-JSON
   Dimitrios Liakos       : Extrapolation schemes; Compound Job, initial MDCI parallelization
   Dimitrios Manganas     : Further ROCIS development; embedding schemes. LFT, Crystal Embedding
   Dimitrios Pantazis     : SARC Basis sets
   Anastasios Papadopoulos: AUTO-CI, single reference methods and gradients
   Taras Petrenko         : pre 6.0 DFT Hessian and TD-DFT gradient, (ASA, deprecated), ECA, 1-Electron XAS/XES, NRVS
   Peter Pinski           : DLPNO-MP2, DLPNO-MP2 Gradient
   Christoph Reimann      : Effective Core Potentials
   Marius Retegan         : Local ZFS, SOC
   Christoph Riplinger    : Optimizer, TS searches, QM/MM, DLPNO-CCSD(T), (RO)-DLPNO pert. Triples
   Michael Roemelt        : Original ROCIS implementation
   Masaaki Saitow         : Open-shell DLPNO-CCSD energy and density
   Barbara Sandhoefer     : DKH picture change effects
   Kantharuban Sivalingam : CASSCF convergence/infrastructure, NEVPT2 and variants, FIC-MRCI
   Bernardo de Souza      : ESD, SOC TD-DFT
   Georgi Stoychev        : AutoAux, RI-MP2 NMR, DLPNO-MP2 response, X2C
   Van Anh Tran           : RI-MP2 g-tensors
   Willem Van den Heuvel  : Paramagnetic NMR
   Zikuan Wang            : NOTCH, Electric field optimization 
   Frank Wennmohs         : Technical directorship and infrastructure
   Hang Xu                : AUTO-CI-Response properties 


 We gratefully acknowledge several colleagues who have allowed us to
 interface, adapt or use parts of their codes:
   Stefan Grimme, W. Hujo, H. Kruse, P. Pracht,  : VdW corrections, initial TS optimization,
                  C. Bannwarth, S. Ehlert,         DFT functionals, gCP, sTDA/sTD-DF
                  L. Wittmann, M. Mueller
   Ed Valeev, F. Pavosevic, A. Kumar             : LibInt (2-el integral package), F12 methods
   Garnet Chan, S. Sharma, J. Yang, R. Olivares  : DMRG
   Ulf Ekstrom                                   : XCFun DFT Library
   Mihaly Kallay                                 : mrcc  (arbitrary order and MRCC methods)
   Frank Weinhold                                : gennbo (NPA and NBO analysis)
   Simon Mueller                                 : openCOSMO-RS
   Christopher J. Cramer and Donald G. Truhlar   : smd solvation model
   Lars Goerigk                                  : TD-DFT with DH, B97 family of functionals
   V. Asgeirsson, H. Jonsson                     : NEB implementation
   FAccTs GmbH                                   : IRC, NEB, NEB-TS, DLPNO-Multilevel, CI-OPT
                                                   MM, QMMM, 2- and 3-layer-ONIOM, Crystal-QMMM,
                                                   LR-CPCM, SF, NACMEs, symmetry and pop. for TD-DFT,
                                                   nearIR, NL-DFT gradient (VV10), updates on ESD,
                                                   ML-optimized integration grids, MBIS, APM,
                                                   GOAT, DOCKER, SOLVATOR, interface openCOSMO-RS
   S Lehtola, MJT Oliveira, MAL Marques          : LibXC Library
   Liviu Ungur et al                             : ANISO software


 Your calculation uses the libint2 library for the computation of 2-el integrals
 For citations please refer to: http://libint.valeyev.net

 Your ORCA version has been built with support for libXC version: 6.2.2
 For citations please refer to: https://libxc.gitlab.io

 This ORCA versions uses:
   CBLAS   interface :  Fast vector & matrix operations
   LAPACKE interface :  Fast linear algebra routines
   SCALAPACK package :  Parallel linear algebra routines
   Shared memory     :  Shared parallel matrices
   BLAS/LAPACK       :  OpenBLAS 0.3.27  USE64BITINT DYNAMIC_ARCH NO_AFFINITY Zen SINGLE_THREADED
        Core in use  :  Zen
   Copyright (c) 2011-2014, The OpenBLAS Project


Your calculation utilizes the atom-pairwise dispersion correction
with the Becke-Johnson damping scheme (D3BJ)


Warning: RI is on but no J-basis has been assigned. Assigning Def2/J (nothing to worry about!)
================================================================================

----- Orbital basis set information -----
Your calculation utilizes the basis: def2-TZVPPD
   F. Weigend and R. Ahlrichs, Phys. Chem. Chem. Phys. 7, 3297 (2005).
   D. Rappoport and F. Furche, J. Chem. Phys. 133, 134105 (2010)
   D. Rappoport, J. Chem. Phys. 155, 124102 (2021).

----- AuxJ basis set information -----
Your calculation utilizes the auxiliary basis: def2/J
   F. Weigend, Phys. Chem. Chem. Phys. 8, 1057 (2006).

================================================================================
                                        WARNINGS
                       Please study these warnings very carefully!
================================================================================

Using LibXC functional ID 531 : wB97M-V exchange-correlation functional
[ 1]  N. Mardirossian and M. Head-Gordon.,  J. Chem. Phys. 144, 214110 (2016)
Using LibXC functional ID 531 : wB97M-V exchange-correlation functional
[ 1]  N. Mardirossian and M. Head-Gordon.,  J. Chem. Phys. 144, 214110 (2016)

WARNING: B97M-V or wB97M-V functional requested.
  ===> : libXC variant has now been activated.
         Any manually given DFX/HFX/RangeSep scaling parameters are IGNORED!

Your calculation utilizes LibXC
 by S Lehtola, C Steigemann, MJT Oliveira & MAL Marques
Please cite in your paper:
 S Lehtola, C Steigemann, MJT Oliveira & MAL Marques, SoftwareX, 7, (2018), 1.
   


WARNING: your system is open-shell and RHF/RKS was chosen
  ===> : WILL SWITCH to UHF/UKS

INFO   : Checking CIS options ...

WARNING: CIS/ROCIS methods need fully converged wavefunctions
  ===> : Setting SCFConvForced true
         You can overwrite this default with %scf ConvForced false 


================================================================================
                                       INPUT FILE
================================================================================
NAME = orca.inp
|  1> ! EnGrad wB97M-D3BJ def2-TZVPPD 
|  2> %pal nprocs 8 end%pal nprocs 16 end 
|  3> %tddft 
|  4>  sf true 
|  5>  nroots 2 Iroot 2 end 
|  6> *xyz 0 3 
|  7> O   0.49498487141749 1.30542896296359 0.09562086685502
|  8> C   0.59397277051502 0.1665663550522 -0.28776243360354
|  9> C   -0.43415360249252 -0.81954265599299 0.20413960236378
| 10> H   0.04854596293068 -1.64293201136086 0.73313473613117
| 11> H   1.39455015109016 -0.16293880487806 -0.96977155286261
| 12> H   -0.97139978721258 -1.26162590359523 -0.63670230846615
| 13> H   -1.12430036624826 -0.30335594218865 0.86134108958231
| 14> *
| 15> 
| 16>                          ****END OF INPUT****
================================================================================

                     *******************************
                     * Energy+Gradient Calculation *
                     *******************************

---------------------------------
CARTESIAN COORDINATES (ANGSTROEM)
---------------------------------
  O      0.494985    1.305429    0.095621
  C      0.593973    0.166566   -0.287762
  C     -0.434154   -0.819543    0.204140
  H      0.048546   -1.642932    0.733135
  H      1.394550   -0.162939   -0.969772
  H     -0.971400   -1.261626   -0.636702
  H     -1.124300   -0.303356    0.861341

----------------------------
CARTESIAN COORDINATES (A.U.)
----------------------------
  NO LB      ZA    FRAG     MASS         X           Y           Z
   0 O     8.0000    0    15.999    0.935386    2.466903    0.180697
   1 C     6.0000    0    12.011    1.122446    0.314765   -0.543792
   2 C     6.0000    0    12.011   -0.820431   -1.548711    0.385768
   3 H     1.0000    0     1.008    0.091739   -3.104692    1.385424
   4 H     1.0000    0     1.008    2.635318   -0.307910   -1.832603
   5 H     1.0000    0     1.008   -1.835680   -2.384127   -1.203193
   6 H     1.0000    0     1.008   -2.124620   -0.573260    1.627699

--------------------------------
INTERNAL COORDINATES (ANGSTROEM)
--------------------------------
 O      0   0   0     0.000000000000     0.00000000     0.00000000
 C      1   0   0     1.205731893473     0.00000000     0.00000000
 C      2   1   0     1.507123894551   117.27273248     0.00000000
 H      3   2   1     1.091240006847   110.49726130   238.54782592
 H      2   1   3     1.102104455785   122.60194350   179.99452820
 H      3   2   1     1.091368947613   110.45004154   120.85056334
 H      3   2   1     1.083819668503   108.70425914   359.73066970

---------------------------
INTERNAL COORDINATES (A.U.)
---------------------------
 O      0   0   0     0.000000000000     0.00000000     0.00000000
 C      1   0   0     2.278503069597     0.00000000     0.00000000
 C      2   1   0     2.848051410590   117.27273248     0.00000000
 H      3   2   1     2.062144759318   110.49726130   238.54782592
 H      2   1   3     2.082675592408   122.60194350   179.99452820
 H      3   2   1     2.062388422055   110.45004154   120.85056334
 H      3   2   1     2.048122352027   108.70425914   359.73066970

---------------------
BASIS SET INFORMATION
---------------------
There are 3 groups of distinct atoms

 Group   1 Type O   : 12s7p3d1f contracted to 6s4p3d1f pattern {621111/4111/111/1}
 Group   2 Type C   : 12s6p3d1f contracted to 6s3p3d1f pattern {621111/411/111/1}
 Group   3 Type H   : 5s3p1d contracted to 3s3p1d pattern {311/111/1}

Atom   0O    basis set group =>   1
Atom   1C    basis set group =>   2
Atom   2C    basis set group =>   2
Atom   3H    basis set group =>   3
Atom   4H    basis set group =>   3
Atom   5H    basis set group =>   3
Atom   6H    basis set group =>   3
---------------------------------
AUXILIARY/J BASIS SET INFORMATION
---------------------------------
There are 3 groups of distinct atoms

 Group   1 Type O   : 12s5p4d2f1g contracted to 6s4p3d1f1g pattern {711111/2111/211/2/1}
 Group   2 Type C   : 12s5p4d2f1g contracted to 6s4p3d1f1g pattern {711111/2111/211/2/1}
 Group   3 Type H   : 5s2p1d contracted to 3s1p1d pattern {311/2/1}

Atom   0O    basis set group =>   1
Atom   1C    basis set group =>   2
Atom   2C    basis set group =>   2
Atom   3H    basis set group =>   3
Atom   4H    basis set group =>   3
Atom   5H    basis set group =>   3
Atom   6H    basis set group =>   3
[1741000208.196964] [ohm:3236044:0]        ib_iface.c:1059 UCX  ERROR ibv_create_cq(cqe=256) failed: Connection timed out
[1741000208.208527] [ohm:3236046:0]        ib_iface.c:1059 UCX  ERROR ibv_create_cq(cqe=256) failed: Connection timed out
[1741000208.208515] [ohm:3236042:0]        ib_iface.c:1059 UCX  ERROR ibv_create_cq(cqe=256) failed: Connection timed out
[1741000208.208650] [ohm:3236045:0]        ib_iface.c:1059 UCX  ERROR ibv_create_cq(cqe=256) failed: Connection timed out
[1741000208.208675] [ohm:3236041:0]        ib_iface.c:1059 UCX  ERROR ibv_create_cq(cqe=256) failed: Connection timed out
[1741000208.210007] [ohm:3236043:0]        ib_iface.c:1059 UCX  ERROR ibv_create_cq(cqe=256) failed: Connection timed out
[1741000208.224635] [ohm:3236051:0]        ib_iface.c:1059 UCX  ERROR ibv_create_cq(cqe=256) failed: Connection timed out
[1741000208.224627] [ohm:3236056:0]        ib_iface.c:1059 UCX  ERROR ibv_create_cq(cqe=256) failed: Connection timed out
[1741000208.226155] [ohm:3236048:0]        ib_iface.c:1059 UCX  ERROR ibv_create_cq(cqe=256) failed: Connection timed out
[1741000208.228738] [ohm:3236049:0]        ib_iface.c:1059 UCX  ERROR ibv_create_cq(cqe=256) failed: Connection timed out
[1741000208.229483] [ohm:3236047:0]        ib_iface.c:1059 UCX  ERROR ibv_create_cq(cqe=256) failed: Connection timed out
[1741000208.229575] [ohm:3236053:0]        ib_iface.c:1059 UCX  ERROR ibv_create_cq(cqe=256) failed: Connection timed out
[1741000208.234676] [ohm:3236067:0]        ib_iface.c:1059 UCX  ERROR ibv_create_cq(cqe=256) failed: Connection timed out
[1741000208.234672] [ohm:3236072:0]        ib_iface.c:1059 UCX  ERROR ibv_create_cq(cqe=256) failed: Connection timed out
[1741000208.235799] [ohm:3236063:0]        ib_iface.c:1059 UCX  ERROR ibv_create_cq(cqe=256) failed: Connection timed out
[1741000208.243593] [ohm:3236069:0]        ib_iface.c:1059 UCX  ERROR ibv_create_cq(cqe=256) failed: Connection timed out


           ************************************************************
           *        Program running with 16 parallel MPI-processes    *
           *              working on a common directory               *
           ************************************************************
------------------------------------------------------------------------------
                             ORCA STARTUP CALCULATIONS
                           -- RI-GTO INTEGRALS CHOSEN --
------------------------------------------------------------------------------
------------------------------------------------------------------------------
                   ___                                                        
                  /   \      - P O W E R E D   B Y -                         
                 /     \                                                     
                 |  |  |   _    _      __       _____    __    __             
                 |  |  |  | |  | |    /  \     |  _  \  |  |  /  |          
                  \  \/   | |  | |   /    \    | | | |  |  | /  /          
                 / \  \   | |__| |  /  /\  \   | |_| |  |  |/  /          
                |  |  |   |  __  | /  /__\  \  |    /   |      \           
                |  |  |   | |  | | |   __   |  |    \   |  |\   \          
                \     /   | |  | | |  |  |  |  | |\  \  |  | \   \       
                 \___/    |_|  |_| |__|  |__|  |_| \__\ |__|  \__/        
                                                                              
                      - O R C A' S   B I G   F R I E N D -                    
                                      &                                       
                       - I N T E G R A L  F E E D E R -                       
                                                                              
 v1 FN, 2020, v2 2021, v3 2022-2024                                           
------------------------------------------------------------------------------


----------------------
SHARK INTEGRAL PACKAGE
----------------------

Number of atoms                             ...      7
Number of basis functions                   ...    182
Number of shells                            ...     68
Maximum angular momentum                    ...      3
Integral batch strategy                     ... SHARK/LIBINT Hybrid
RI-J (if used) integral strategy            ... SPLIT-RIJ (Revised 2003 algorithm where possible)
Printlevel                                  ...      1
Contraction scheme used                     ... SEGMENTED contraction
Prescreening option                         ... SCHWARTZ
   Thresh                                   ... 2.500e-11
   Tcut                                     ... 2.500e-12
   Tpresel                                  ... 2.500e-12 
Coulomb Range Separation                    ... NOT USED
Exchange Range Separation                   ... Long Range
   Mu parameter                             ... 3.000e-01
   Scaling (regular/separated)              ... 1.500e-01 8.500e-01
Multipole approximations                    ... NOT USED
Finite Nucleus Model                        ... NOT USED
CABS basis                                  ... NOT available
Auxiliary Coulomb fitting basis             ... AVAILABLE
   # of basis functions in Aux-J            ...    191
   # of shells in Aux-J                     ...     65
   Maximum angular momentum in Aux-J        ...      4
Auxiliary J/K fitting basis                 ... NOT available
Auxiliary Correlation fitting basis         ... NOT available
Auxiliary 'external' fitting basis          ... NOT available

Checking pre-screening integrals            ... done (  0.0 sec) Dimension = 68
Check shell pair data                       ... done (  0.0 sec)
Shell pair information
Shell pair cut-off parameter TPreSel        ...   2.5e-12
Total number of shell pairs                 ...      2346
Shell pairs after pre-screening             ...      2328
Total number of primitive shell pairs       ...      5434
Primitive shell pairs kept                  ...      4820
          la=0 lb=0:    455 shell pairs
          la=1 lb=0:    655 shell pairs
          la=1 lb=1:    253 shell pairs
          la=2 lb=0:    387 shell pairs
          la=2 lb=1:    286 shell pairs
          la=2 lb=2:     91 shell pairs
          la=3 lb=0:     90 shell pairs
          la=3 lb=1:     66 shell pairs
          la=3 lb=2:     39 shell pairs
          la=3 lb=3:      6 shell pairs

Calculating one electron integrals          ... done (  0.0 sec)
Calculating RI/J V-Matrix + Cholesky decomp.... done (  0.0 sec)
Calculating Nuclear repulsion               ... done (  0.0 sec) ENN=     70.224145049244 Eh

Diagonalization of the overlap matrix:
Smallest eigenvalue                        ... 1.555e-05
Time for diagonalization                   ...    0.003 sec
Threshold for overlap eigenvalues          ... 1.000e-07
Number of eigenvalues below threshold      ... 0
Time for construction of square roots      ...    0.002 sec
Total time needed                          ...    0.005 sec

-------------------
DFT GRID GENERATION
-------------------

General Integration Accuracy     IntAcc      ... 4.388
Radial Grid Type                 RadialGrid  ... OptM3 with GC (2021)
Angular Grid (max. ang.)         AngularGrid ... 4 (Lebedev-302)
Angular grid pruning method      GridPruning ... 4 (adaptive)
Weight generation scheme         WeightScheme... mBecke (2022)
Basis function cutoff            BFCut       ... 1.0000e-11
Integration weight cutoff        WCut        ... 1.0000e-14
Partially contracted basis set               ... off
Rotationally invariant grid construction     ... off
Angular grids for H and He will be reduced by one unit
Diffuse basis detected: some atoms will have their outermost
                        angular grid increased by 1.

Total number of grid points                  ...    33144
Total number of batches                      ...      523
Average number of points per batch           ...       63
Average number of grid points per atom       ...     4735

--------------------
COSX GRID GENERATION
--------------------

GRIDX 1
-------
General Integration Accuracy     IntAcc      ... 3.816
Radial Grid Type                 RadialGrid  ... OptM3 with GC (2021)
Angular Grid (max. ang.)         AngularGrid ... 1 (Lebedev-50)
Angular grid pruning method      GridPruning ... 4 (adaptive)
Weight generation scheme         WeightScheme... mBecke (2022)
Basis function cutoff            BFCut       ... 1.0000e-11
Integration weight cutoff        WCut        ... 1.0000e-14
Partially contracted basis set               ... on
Rotationally invariant grid construction     ... off
Angular grids for H and He will be reduced by one unit
Diffuse basis detected: some atoms will have their outermost
                        angular grid increased by 1.

Total number of grid points                  ...     4176
Total number of batches                      ...       36
Average number of points per batch           ...      116
Average number of grid points per atom       ...      597
UseSFitting                                  ... on

GRIDX 2
-------
General Integration Accuracy     IntAcc      ... 4.020
Radial Grid Type                 RadialGrid  ... OptM3 with GC (2021)
Angular Grid (max. ang.)         AngularGrid ... 2 (Lebedev-110)
Angular grid pruning method      GridPruning ... 4 (adaptive)
Weight generation scheme         WeightScheme... mBecke (2022)
Basis function cutoff            BFCut       ... 1.0000e-11
Integration weight cutoff        WCut        ... 1.0000e-14
Partially contracted basis set               ... on
Rotationally invariant grid construction     ... off
Angular grids for H and He will be reduced by one unit
Diffuse basis detected: some atoms will have their outermost
                        angular grid increased by 1.

Total number of grid points                  ...    10291
Total number of batches                      ...       84
Average number of points per batch           ...      122
Average number of grid points per atom       ...     1470
UseSFitting                                  ... on

GRIDX 3
-------
General Integration Accuracy     IntAcc      ... 4.338
Radial Grid Type                 RadialGrid  ... OptM3 with GC (2021)
Angular Grid (max. ang.)         AngularGrid ... 3 (Lebedev-194)
Angular grid pruning method      GridPruning ... 4 (adaptive)
Weight generation scheme         WeightScheme... mBecke (2022)
Basis function cutoff            BFCut       ... 1.0000e-11
Integration weight cutoff        WCut        ... 1.0000e-14
Partially contracted basis set               ... on
Rotationally invariant grid construction     ... off
Angular grids for H and He will be reduced by one unit
Diffuse basis detected: some atoms will have their outermost
                        angular grid increased by 1.

Total number of grid points                  ...    23126
Total number of batches                      ...      185
Average number of points per batch           ...      125
Average number of grid points per atom       ...     3304
UseSFitting                                  ... on
Initializing property integral containers    ... done (  0.0 sec)

SHARK setup successfully completed in   0.3 seconds

Maximum memory used throughout the entire STARTUP-calculation: 13.8 MB
[1741000209.210811] [ohm:3236129:0]        ib_iface.c:1059 UCX  ERROR ibv_create_cq(cqe=256) failed: Connection timed out
[1741000209.210811] [ohm:3236133:0]        ib_iface.c:1059 UCX  ERROR ibv_create_cq(cqe=256) failed: Connection timed out
[1741000209.212986] [ohm:3236131:0]        ib_iface.c:1059 UCX  ERROR ibv_create_cq(cqe=256) failed: Connection timed out
[1741000209.226515] [ohm:3236128:0]        ib_iface.c:1059 UCX  ERROR ibv_create_cq(cqe=256) failed: Connection timed out
[1741000209.226515] [ohm:3236134:0]        ib_iface.c:1059 UCX  ERROR ibv_create_cq(cqe=256) failed: Connection timed out
[1741000209.226859] [ohm:3236130:0]        ib_iface.c:1059 UCX  ERROR ibv_create_cq(cqe=256) failed: Connection timed out
[1741000209.226850] [ohm:3236132:0]        ib_iface.c:1059 UCX  ERROR ibv_create_cq(cqe=256) failed: Connection timed out
[1741000209.229318] [ohm:3236138:0]        ib_iface.c:1059 UCX  ERROR ibv_create_cq(cqe=256) failed: Connection timed out
[1741000209.229689] [ohm:3236153:0]        ib_iface.c:1059 UCX  ERROR ibv_create_cq(cqe=256) failed: Connection timed out
[1741000209.230763] [ohm:3236142:0]        ib_iface.c:1059 UCX  ERROR ibv_create_cq(cqe=256) failed: Connection timed out
[1741000209.230816] [ohm:3236135:0]        ib_iface.c:1059 UCX  ERROR ibv_create_cq(cqe=256) failed: Connection timed out
[1741000209.233446] [ohm:3236140:0]        ib_iface.c:1059 UCX  ERROR ibv_create_cq(cqe=256) failed: Connection timed out
[1741000209.233586] [ohm:3236136:0]        ib_iface.c:1059 UCX  ERROR ibv_create_cq(cqe=256) failed: Connection timed out
[1741000209.243502] [ohm:3236155:0]        ib_iface.c:1059 UCX  ERROR ibv_create_cq(cqe=256) failed: Connection timed out
[1741000209.245189] [ohm:3236158:0]        ib_iface.c:1059 UCX  ERROR ibv_create_cq(cqe=256) failed: Connection timed out
[1741000209.245374] [ohm:3236147:0]        ib_iface.c:1059 UCX  ERROR ibv_create_cq(cqe=256) failed: Connection timed out


           ************************************************************
           *        Program running with 16 parallel MPI-processes    *
           *              working on a common directory               *
           ************************************************************
-------------------------------------------------------------------------------
                                 ORCA GUESS
                   Start orbitals & Density for SCF / CASSCF
-------------------------------------------------------------------------------

------------
SCF SETTINGS
------------
Hamiltonian:
 Density Functional     Method          .... DFT(GTOs)
  Functional kind                       .... Exchange-Correlation
  Functional name                       .... wB97M-V exchange-correlation functional
  Functional family                     .... Hybrid MGGA
  Functional refs                              
    [ 0] N. Mardirossian and M. Head-Gordon.,  J. Chem. Phys. 144, 214110 (2016), doi: 10.1063/1.4952647
  Fraction of HF Exchange (short range) .... 0.1500
  Fraction of HF Exchange (long range)  .... 1.0000
  Range separation parameter mu         .... 0.3000
  Functional external parameters        .... 17
    Parameter  0 _cx00      =  8.500000e-01 : u^00 coefficient for exchange
    Parameter  1 _cx01      =  1.007000e+00 : u^01 coefficient for exchange
    Parameter  2 _cx10      =  2.590000e-01 : u^10 coefficient for exchange
    Parameter  3 _css00     =  4.430000e-01 : u^00 coefficient for same-spin correlation
    Parameter  4 _css04     = -1.437000e+00 : u^04 coefficient for same-spin correlation
    Parameter  5 _css10     = -4.535000e+00 : u^10 coefficient for same-spin correlation
    Parameter  6 _css20     = -3.390000e+00 : u^20 coefficient for same-spin correlation
    Parameter  7 _css43     =  4.278000e+00 : u^43 coefficient for same-spin correlation
    Parameter  8 _cos00     =  1.000000e+00 : u^00 coefficient for opposite-spin correlation
    Parameter  9 _cos10     =  1.358000e+00 : u^10 coefficient for opposite-spin correlation
    Parameter 10 _cos20     =  2.924000e+00 : u^20 coefficient for opposite-spin correlation
    Parameter 11 _cos21     = -8.812000e+00 : u^21 coefficient for opposite-spin correlation
    Parameter 12 _cos60     = -1.390000e+00 : u^60 coefficient for opposite-spin correlation
    Parameter 13 _cos61     =  9.142000e+00 : u^61 coefficient for opposite-spin correlation
    Parameter 14 _alpha     =  1.000000e+00 : fraction of HF exchange
    Parameter 15 _beta      = -8.500000e-01 : fraction of short-range exchange
    Parameter 16 _omega     =  3.000000e-01 : range-separation constant
 Long-range corrected/Screened/Range-Separated Hybrid DFT is turned on
   Amount of maximum screened exact exchange              ....  0.850000
   Range separation parameter mu (erf(mu*r12)/r12)        ....  0.300000
 RI-approximation to the Coulomb term is turned on
   Number of AuxJ basis functions       .... 191
   RIJ-COSX (HFX calculated with COS-X)).... on


General Settings:
 Integral files         IntName         .... orca
 Hartree-Fock type      HFTyp           .... UHF
 Total Charge           Charge          ....    0
 Multiplicity           Mult            ....    3
 Number of Electrons    NEL             ....   24
 Basis Dimension        Dim             ....  182
 Nuclear Repulsion      ENuc            ....     70.2241450492 Eh

Convergence Acceleration:
 AO-DIIS                CNVDIIS         .... on
   Start iteration      DIISMaxIt       ....    12
   Startup error        DIISStart       ....  0.200000
   # of expansion vecs  DIISMaxEq       ....     5
   Bias factor          DIISBfac        ....   1.050
   Max. coefficient     DIISMaxC        ....  10.000
 MO-DIIS                CNVKDIIS        .... off
 Trust-Rad. Augm. Hess. CNVTRAH         .... auto
   Auto Start mean grad. ratio tolernc. ....  1.125000
   Auto Start start iteration           ....    50
   Auto Start num. interpolation iter.  ....    10
   Max. Number of Micro iterations      ....    24
   Max. Number of Macro iterations      .... Maxiter - #DIIS iter
   Number of Davidson start vectors     ....     2
   Converg. threshold    (grad. norm)   ....   1.000e-05
   Grad. Scal. Fac. for Micro threshold ....   0.100
   Minimum threshold for Micro iter.    ....   1.000e-02
   NR start threshold (gradient norm)   ....   1.000e-04
   Initial trust radius                 ....   0.400
   Minimum AH scaling param. (alpha)    ....   1.000
   Maximum AH scaling param. (alpha)    .... 1000.000
   Quad. conv. algorithm                .... NR
   White noise on init. David. guess    .... on
   Maximum white noise                  ....   0.010
   Pseudo random numbers                .... off
   Inactive MOs                         .... canonical
   Orbital update algorithm             .... Taylor
   Preconditioner                       .... Diag
   Full preconditioner red. dimension   ....   250
 SOSCF                  CNVSOSCF        .... on
   Start iteration      SOSCFMaxIt      ....   150
   Startup grad/error   SOSCFStart      ....  0.003300
   Hessian update       SOSCFHessUp     .... L-BFGS
 Level Shifting         CNVShift        .... on
   Level shift para.    LevelShift      ....    0.2500
   Turn off err/grad.   ShiftErr        ....    0.0010
 Zerner damping         CNVZerner       .... off
 Static damping         CNVDamp         .... on
   Fraction old density DampFac         ....    0.7000
   Max. Damping (<1)    DampMax         ....    0.9800
   Min. Damping (>=0)   DampMin         ....    0.0000
   Turn off err/grad.   DampErr         ....    0.1000

SCF Procedure:
 Maximum # iterations   MaxIter         ....   125
 SCF integral mode      SCFMode         .... Direct
   Integral package                     .... SHARK and LIBINT hybrid scheme
 Reset frequency        DirectResetFreq ....    20
 Integral Threshold     Thresh          ....  2.500e-11 Eh
 Primitive CutOff       TCut            ....  2.500e-12 Eh

Convergence Tolerance:
 Convergence Check Mode ConvCheckMode   .... Total+1el-Energy
 Convergence forced     ConvForced      .... 1
 Energy Change          TolE            ....  1.000e-08 Eh
 1-El. energy change                    ....  1.000e-05 Eh
 Orbital Gradient       TolG            ....  1.000e-05
 Orbital Rotation angle TolX            ....  1.000e-05
 DIIS Error             TolErr          ....  5.000e-07

------------------------------
INITIAL GUESS: MODEL POTENTIAL
------------------------------
Loading Hartree-Fock densities                     ... done
Calculating cut-offs                               ... done
Initializing the effective Hamiltonian             ... done
Setting up the integral package (SHARK)            ... done
Starting the Coulomb interaction                   ... done (   0.0 sec)
Making the grid                                    ... done (   0.0 sec)
Mapping shells                                     ... done
Starting the XC term evaluation                    ... done (   0.0 sec)
  promolecular density results
     # of electrons  =     23.998596043
     EX              =    -19.519642980
     EC              =     -0.771887829
     EX+EC           =    -20.291530809
Transforming the Hamiltonian                       ... done (   0.0 sec)
Diagonalizing the Hamiltonian                      ... done (   0.0 sec)
Back transforming the eigenvectors                 ... done (   0.0 sec)
Now organizing SCF variables                       ... done
                      ------------------
                      INITIAL GUESS DONE (   0.1 sec)
                      ------------------
             **** ENERGY FILE WAS UPDATED (orca.en.tmp) ****
Finished Guess after   0.5 sec
Maximum memory used throughout the entire GUESS-calculation: 9.7 MB
[1741000209.973118] [ohm:3236215:0]        ib_iface.c:1059 UCX  ERROR ibv_create_cq(cqe=256) failed: Connection timed out
[1741000209.973674] [ohm:3236217:0]        ib_iface.c:1059 UCX  ERROR ibv_create_cq(cqe=256) failed: Connection timed out
[1741000209.973974] [ohm:3236213:0]        ib_iface.c:1059 UCX  ERROR ibv_create_cq(cqe=256) failed: Connection timed out
[1741000209.982843] [ohm:3236212:0]        ib_iface.c:1059 UCX  ERROR ibv_create_cq(cqe=256) failed: Connection timed out
[1741000209.982890] [ohm:3236214:0]        ib_iface.c:1059 UCX  ERROR ibv_create_cq(cqe=256) failed: Connection timed out
[1741000209.983008] [ohm:3236219:0]        ib_iface.c:1059 UCX  ERROR ibv_create_cq(cqe=256) failed: Connection timed out
[1741000209.983052] [ohm:3236222:0]        ib_iface.c:1059 UCX  ERROR ibv_create_cq(cqe=256) failed: Connection timed out
[1741000209.983143] [ohm:3236216:0]        ib_iface.c:1059 UCX  ERROR ibv_create_cq(cqe=256) failed: Connection timed out
[1741000209.988193] [ohm:3236218:0]        ib_iface.c:1059 UCX  ERROR ibv_create_cq(cqe=256) failed: Connection timed out
[1741000209.988238] [ohm:3236220:0]        ib_iface.c:1059 UCX  ERROR ibv_create_cq(cqe=256) failed: Connection timed out
[1741000210.003724] [ohm:3236244:0]        ib_iface.c:1059 UCX  ERROR ibv_create_cq(cqe=256) failed: Connection timed out
[1741000210.003787] [ohm:3236238:0]        ib_iface.c:1059 UCX  ERROR ibv_create_cq(cqe=256) failed: Connection timed out
[1741000210.004238] [ohm:3236230:0]        ib_iface.c:1059 UCX  ERROR ibv_create_cq(cqe=256) failed: Connection timed out
[1741000210.005242] [ohm:3236224:0]        ib_iface.c:1059 UCX  ERROR ibv_create_cq(cqe=256) failed: Connection timed out
[1741000210.005276] [ohm:3236235:0]        ib_iface.c:1059 UCX  ERROR ibv_create_cq(cqe=256) failed: Connection timed out
[1741000210.011095] [ohm:3236241:0]        ib_iface.c:1059 UCX  ERROR ibv_create_cq(cqe=256) failed: Connection timed out


           ************************************************************
           *        Program running with 16 parallel MPI-processes    *
           *              working on a common directory               *
           ************************************************************

-------------------------------------------------------------------------------------------
                                      ORCA LEAN-SCF
                              memory conserving SCF solver
-------------------------------------------------------------------------------------------

----------------------------------------D-I-I-S--------------------------------------------
Iteration    Energy (Eh)           Delta-E    RMSDP     MaxDP     DIISErr   Damp  Time(sec)
-------------------------------------------------------------------------------------------
               ***  Starting incremental Fock matrix formation  ***
    1    -153.7047982378679762     0.00e+00  8.61e-04  2.70e-02  8.00e-02  0.700   0.4
    2    -153.7354715858504903    -3.07e-02  7.68e-04  2.47e-02  4.84e-02  0.700   0.3
                               ***Turning on AO-DIIS***
    3    -153.7520236309485995    -1.66e-02  6.16e-04  2.22e-02  2.52e-02  0.700   0.3
    4    -153.7620812832184072    -1.01e-02  1.49e-03  5.15e-02  1.82e-02  0.000   0.3
    5    -153.7846794574002729    -2.26e-02  1.20e-04  4.56e-03  5.08e-03  0.000   0.3
                              *** Initializing SOSCF ***
---------------------------------------S-O-S-C-F--------------------------------------
Iteration    Energy (Eh)           Delta-E    RMSDP     MaxDP     MaxGrad    Time(sec)
--------------------------------------------------------------------------------------
    6    -153.7850479965248667    -3.69e-04  7.90e-05  2.09e-03  2.81e-03     0.3
               *** Restarting incremental Fock matrix formation ***
    7    -153.7852616158046999    -2.14e-04  6.02e-05  1.80e-03  3.03e-03     0.4
    8    -153.7853438387167273    -8.22e-05  9.45e-05  2.66e-03  1.28e-03     0.3
    9    -153.7853973739937885    -5.35e-05  2.85e-05  9.02e-04  2.80e-04     0.3
   10    -153.7854001117372320    -2.74e-06  1.15e-05  3.97e-04  1.17e-04     0.3
   11    -153.7854003774137936    -2.66e-07  2.50e-06  8.30e-05  5.82e-05     0.3
   12    -153.7854004469519111    -6.95e-08  1.69e-06  6.07e-05  1.94e-05     0.3
   13    -153.7854004560601879    -9.11e-09  3.86e-07  1.53e-05  5.09e-06     0.3
                 **** Energy Check signals convergence ****

               *****************************************************
               *                     SUCCESS                       *
               *           SCF CONVERGED AFTER  13 CYCLES          *
               *****************************************************

Recomputing exchange energy using gridx3       ... done (    0.408 sec)
Old exchange energy                            :     -6.203972474 Eh
New exchange energy                            :     -6.203968856 Eh
Exchange energy change after final integration :      0.000003618 Eh
Total energy after final integration           :   -153.785396838 Eh
             **** ENERGY FILE WAS UPDATED (orca.en.tmp) ****

----------------
TOTAL SCF ENERGY
----------------

Total Energy       :       -153.78539683835510 Eh           -4184.71339 eV

Components:
Nuclear Repulsion  :         70.22414504924376 Eh            1910.89613 eV
Electronic Energy  :       -224.00954550530395 Eh           -6095.60963 eV
One Electron Energy:       -346.76154863924154 Eh           -9435.86145 eV
Two Electron Energy:        122.75200313393761 Eh            3340.25182 eV

Virial components:
Potential Energy   :       -307.37906978099136 Eh           -8364.20972 eV
Kinetic Energy     :        153.59367294263623 Eh            4179.49632 eV
Virial Ratio       :          2.00124825386388

DFT components:
N(Alpha)           :       12.999997234318 electrons
N(Beta)            :       10.999992194836 electrons
N(Total)           :       23.999989429154 electrons
E(XC)              :      -14.754433069735 Eh       

---------------
SCF CONVERGENCE
---------------

  Last Energy change         ...    9.1083e-09  Tolerance :   1.0000e-08
  Last MAX-Density change    ...    1.5339e-05  Tolerance :   1.0000e-07
  Last RMS-Density change    ...    3.8626e-07  Tolerance :   5.0000e-09
  Last DIIS Error            ...    2.8081e-03  Tolerance :   5.0000e-07
  Last Orbital Gradient      ...    5.0905e-06  Tolerance :   1.0000e-05
  Last Orbital Rotation      ...    2.6183e-05  Tolerance :   1.0000e-05


----------------------
UHF SPIN CONTAMINATION
----------------------

Warning: in a DFT calculation there is little theoretical justification to 
         calculate <S**2> as in Hartree-Fock theory. We will do it anyways
         but you should keep in mind that the values have only limited relevance

Expectation value of <S**2>     :     2.005533
Ideal value S*(S+1) for S=1.0   :     2.000000
Deviation                       :     0.005533

----------------
ORBITAL ENERGIES
----------------
                 SPIN UP ORBITALS
  NO   OCC          E(Eh)            E(eV) 
   0   1.0000     -19.410937      -528.1985 
   1   1.0000     -10.380070      -282.4561 
   2   1.0000     -10.366208      -282.0789 
   3   1.0000      -1.247007       -33.9328 
   4   1.0000      -0.878056       -23.8931 
   5   1.0000      -0.720184       -19.5972 
   6   1.0000      -0.637946       -17.3594 
   7   1.0000      -0.583912       -15.8890 
   8   1.0000      -0.582342       -15.8463 
   9   1.0000      -0.514143       -13.9905 
  10   1.0000      -0.511302       -13.9132 
  11   1.0000      -0.436356       -11.8739 
  12   1.0000      -0.223280        -6.0757 
  13   0.0000       0.042291         1.1508 
  14   0.0000       0.060456         1.6451 
  15   0.0000       0.079276         2.1572 
  16   0.0000       0.088325         2.4035 
  17   0.0000       0.108540         2.9535 
  18   0.0000       0.129870         3.5340 
  19   0.0000       0.130312         3.5460 
  20   0.0000       0.136882         3.7248 
  21   0.0000       0.177375         4.8266 
  22   0.0000       0.181831         4.9479 
  23   0.0000       0.199961         5.4412 

                 SPIN DOWN ORBITALS
  NO   OCC          E(Eh)            E(eV) 
   0   1.0000     -19.382965      -527.4373 
   1   1.0000     -10.369717      -282.1743 
   2   1.0000     -10.363878      -282.0155 
   3   1.0000      -1.188472       -32.3400 
   4   1.0000      -0.858480       -23.3604 
   5   1.0000      -0.676568       -18.4103 
   6   1.0000      -0.585746       -15.9390 
   7   1.0000      -0.540216       -14.7000 
   8   1.0000      -0.533693       -14.5225 
   9   1.0000      -0.501215       -13.6387 
  10   1.0000      -0.470197       -12.7947 
  11   0.0000      -0.081057        -2.2057 
  12   0.0000       0.042235         1.1493 
  13   0.0000       0.060110         1.6357 
  14   0.0000       0.079515         2.1637 
  15   0.0000       0.082720         2.2509 
  16   0.0000       0.091675         2.4946 
  17   0.0000       0.109317         2.9747 
  18   0.0000       0.130114         3.5406 
  19   0.0000       0.130367         3.5475 
  20   0.0000       0.136915         3.7257 
  21   0.0000       0.178777         4.8648 
*Only the first 10 virtual orbitals were printed.

                    ********************************
                    * MULLIKEN POPULATION ANALYSIS *
                    ********************************

--------------------------------------------
MULLIKEN ATOMIC CHARGES AND SPIN POPULATIONS
--------------------------------------------
   0 O :   -0.297364    0.982132
   1 C :   -0.029048    0.779841
   2 C :   -0.578395    0.116551
   3 H :    0.192377    0.029742
   4 H :    0.273207    0.058835
   5 H :    0.192311    0.029952
   6 H :    0.246913    0.002947
Sum of atomic charges         :   -0.0000000
Sum of atomic spin populations:    2.0000000

-----------------------------------------------------
MULLIKEN REDUCED ORBITAL CHARGES AND SPIN POPULATIONS
-----------------------------------------------------
CHARGE
  0 O s       :     4.011038  s :     4.011038
      pz      :     1.526037  p :     4.233718
      px      :     1.338999
      py      :     1.368681
      dz2     :     0.007126  d :     0.050611
      dxz     :     0.001929
      dyz     :     0.017790
      dx2y2   :     0.008273
      dxy     :     0.015492
      f0      :     0.000171  f :     0.001997
      f+1     :     0.000029
      f-1     :     0.000480
      f+2     :     0.000367
      f-2     :     0.000157
      f+3     :     0.000495
      f-3     :     0.000298

  1 C s       :     3.305063  s :     3.305063
      pz      :     1.018730  p :     2.609376
      px      :     0.938986
      py      :     0.651660
      dz2     :     0.019550  d :     0.099523
      dxz     :     0.005746
      dyz     :     0.033982
      dx2y2   :    -0.000257
      dxy     :     0.040502
      f0      :     0.001352  f :     0.015085
      f+1     :     0.000642
      f-1     :     0.003130
      f+2     :     0.002682
      f-2     :     0.001594
      f+3     :     0.003503
      f-3     :     0.002182

  2 C s       :     3.310116  s :     3.310116
      pz      :     1.129096  p :     3.186124
      px      :     0.995607
      py      :     1.061421
      dz2     :    -0.005965  d :     0.079114
      dxz     :     0.020010
      dyz     :     0.041699
      dx2y2   :     0.005848
      dxy     :     0.017522
      f0      :     0.000169  f :     0.003042
      f+1     :     0.000403
      f-1     :     0.000337
      f+2     :     0.000144
      f-2     :     0.000919
      f+3     :     0.000545
      f-3     :     0.000525

  3 H s       :     0.752758  s :     0.752758
      pz      :     0.016526  p :     0.052693
      px      :     0.008465
      py      :     0.027703
      dz2     :     0.000375  d :     0.002172
      dxz     :     0.000314
      dyz     :     0.000434
      dx2y2   :     0.000518
      dxy     :     0.000531

  4 H s       :     0.685943  s :     0.685943
      pz      :     0.019459  p :     0.038198
      px      :     0.013994
      py      :     0.004745
      dz2     :     0.000701  d :     0.002652
      dxz     :     0.000550
      dyz     :     0.000434
      dx2y2   :     0.000497
      dxy     :     0.000470

  5 H s       :     0.752666  s :     0.752666
      pz      :     0.012154  p :     0.052852
      px      :     0.017321
      py      :     0.023376
      dz2     :     0.000651  d :     0.002171
      dxz     :     0.000460
      dyz     :     0.000490
      dx2y2   :     0.000254
      dxy     :     0.000315

  6 H s       :     0.715687  s :     0.715687
      pz      :     0.015522  p :     0.035190
      px      :     0.017287
      py      :     0.002381
      dz2     :     0.000496  d :     0.002210
      dxz     :     0.000448
      dyz     :     0.000386
      dx2y2   :     0.000472
      dxy     :     0.000409


SPIN
  0 O s       :     0.001245  s :     0.001245
      pz      :     0.329030  p :     0.970898
      px      :     0.563271
      py      :     0.078596
      dz2     :     0.002284  d :     0.010126
      dxz     :    -0.000234
      dyz     :     0.005972
      dx2y2   :     0.000583
      dxy     :     0.001521
      f0      :    -0.000002  f :    -0.000136
      f+1     :     0.000010
      f-1     :     0.000041
      f+2     :    -0.000044
      f-2     :    -0.000013
      f+3     :    -0.000018
      f-3     :    -0.000110

  1 C s       :    -0.002888  s :    -0.002888
      pz      :     0.436217  p :     0.706042
      px      :     0.252541
      py      :     0.017284
      dz2     :     0.017134  d :     0.075242
      dxz     :     0.003057
      dyz     :     0.017168
      dx2y2   :     0.002426
      dxy     :     0.035456
      f0      :    -0.000160  f :     0.001445
      f+1     :    -0.000150
      f-1     :     0.000198
      f+2     :     0.000108
      f-2     :     0.000360
      f+3     :     0.000843
      f-3     :     0.000246

  2 C s       :     0.063297  s :     0.063297
      pz      :    -0.010065  p :     0.046274
      px      :     0.016270
      py      :     0.040069
      dz2     :    -0.012706  d :     0.006030
      dxz     :    -0.001226
      dyz     :     0.013631
      dx2y2   :     0.001496
      dxy     :     0.004835
      f0      :     0.000036  f :     0.000950
      f+1     :     0.000286
      f-1     :     0.000167
      f+2     :     0.000020
      f-2     :     0.000145
      f+3     :     0.000086
      f-3     :     0.000211

  3 H s       :     0.022684  s :     0.022684
      pz      :     0.000704  p :     0.006886
      px      :     0.004220
      py      :     0.001963
      dz2     :     0.000008  d :     0.000172
      dxz     :     0.000022
      dyz     :     0.000022
      dx2y2   :     0.000058
      dxy     :     0.000063

  4 H s       :     0.024907  s :     0.024907
      pz      :     0.020298  p :     0.033054
      px      :     0.012041
      py      :     0.000715
      dz2     :     0.000582  d :     0.000874
      dxz     :     0.000005
      dyz     :     0.000014
      dx2y2   :     0.000177
      dxy     :     0.000095

  5 H s       :     0.022818  s :     0.022818
      pz      :     0.000375  p :     0.006961
      px      :     0.004677
      py      :     0.001910
      dz2     :     0.000096  d :     0.000172
      dxz     :     0.000010
      dyz     :     0.000019
      dx2y2   :     0.000009
      dxy     :     0.000039

  6 H s       :     0.003711  s :     0.003711
      pz      :    -0.000427  p :    -0.000881
      px      :    -0.001008
      py      :     0.000555
      dz2     :     0.000015  d :     0.000117
      dxz     :     0.000028
      dyz     :     0.000010
      dx2y2   :     0.000062
      dxy     :     0.000002



                     *******************************
                     * LOEWDIN POPULATION ANALYSIS *
                     *******************************

-------------------------------------------
LOEWDIN ATOMIC CHARGES AND SPIN POPULATIONS
-------------------------------------------
   0 O :    0.158410    0.976102
   1 C :   -0.274192    0.661463
   2 C :    0.149182    0.169965
   3 H :   -0.017731    0.029743
   4 H :    0.017610    0.133024
   5 H :   -0.017732    0.030011
   6 H :   -0.015547   -0.000309

----------------------------------------------------
LOEWDIN REDUCED ORBITAL CHARGES AND SPIN POPULATIONS
----------------------------------------------------
CHARGE
  0 O s       :     3.376492  s :     3.376492
      pz      :     1.412592  p :     4.146593
      px      :     1.220573
      py      :     1.513429
      dz2     :     0.043258  d :     0.310439
      dxz     :     0.013532
      dyz     :     0.094608
      dx2y2   :     0.063013
      dxy     :     0.096028
      f0      :     0.000618  f :     0.008066
      f+1     :     0.000072
      f-1     :     0.001952
      f+2     :     0.001546
      f-2     :     0.000589
      f+3     :     0.002026
      f-3     :     0.001263

  1 C s       :     2.687746  s :     2.687746
      pz      :     0.878784  p :     2.631877
      px      :     0.879937
      py      :     0.873156
      dz2     :     0.105715  d :     0.849770
      dxz     :     0.091960
      dyz     :     0.211443
      dx2y2   :     0.230357
      dxy     :     0.210296
      f0      :     0.008244  f :     0.104799
      f+1     :     0.003045
      f-1     :     0.022281
      f+2     :     0.019253
      f-2     :     0.010427
      f+3     :     0.025298
      f-3     :     0.016250

  2 C s       :     2.643769  s :     2.643769
      pz      :     0.921784  p :     2.688527
      px      :     0.889616
      py      :     0.877127
      dz2     :     0.047061  d :     0.485758
      dxz     :     0.113726
      dyz     :     0.118939
      dx2y2   :     0.089655
      dxy     :     0.116377
      f0      :     0.004163  f :     0.032763
      f+1     :     0.004720
      f-1     :     0.004169
      f+2     :     0.002301
      f-2     :     0.006308
      f+3     :     0.005848
      f-3     :     0.005254

  3 H s       :     0.703743  s :     0.703743
      pz      :     0.092335  p :     0.283969
      px      :     0.084050
      py      :     0.107584
      dz2     :     0.005387  d :     0.030019
      dxz     :     0.004074
      dyz     :     0.007096
      dx2y2   :     0.006607
      dxy     :     0.006856

  4 H s       :     0.677785  s :     0.677785
      pz      :     0.111245  p :     0.274378
      px      :     0.107601
      py      :     0.055531
      dz2     :     0.008081  d :     0.030228
      dxz     :     0.007791
      dyz     :     0.003824
      dx2y2   :     0.005372
      dxy     :     0.005159

  5 H s       :     0.703721  s :     0.703721
      pz      :     0.108422  p :     0.284001
      px      :     0.090522
      py      :     0.085056
      dz2     :     0.007761  d :     0.030010
      dxz     :     0.007532
      dyz     :     0.007092
      dx2y2   :     0.003647
      dxy     :     0.003977

  6 H s       :     0.696085  s :     0.696085
      pz      :     0.098196  p :     0.288644
      px      :     0.097760
      py      :     0.092688
      dz2     :     0.006896  d :     0.030819
      dxz     :     0.006954
      dyz     :     0.005335
      dx2y2   :     0.005610
      dxy     :     0.006024


SPIN
  0 O s       :     0.009036  s :     0.009036
      pz      :     0.299334  p :     0.851736
      px      :     0.488953
      py      :     0.063449
      dz2     :     0.021831  d :     0.112259
      dxz     :     0.002465
      dyz     :     0.043793
      dx2y2   :     0.004076
      dxy     :     0.040093
      f0      :     0.000147  f :     0.003071
      f+1     :     0.000048
      f-1     :     0.001158
      f+2     :     0.000596
      f-2     :     0.000177
      f+3     :     0.000969
      f-3     :    -0.000024

  1 C s       :     0.004097  s :     0.004097
      pz      :     0.268611  p :     0.442358
      px      :     0.156371
      py      :     0.017377
      dz2     :     0.033730  d :     0.183754
      dxz     :     0.012688
      dyz     :     0.037795
      dx2y2   :     0.011144
      dxy     :     0.088398
      f0      :     0.000682  f :     0.031254
      f+1     :     0.000892
      f-1     :     0.006389
      f+2     :     0.005124
      f-2     :     0.005050
      f+3     :     0.010042
      f-3     :     0.003076

  2 C s       :     0.009067  s :     0.009067
      pz      :     0.003088  p :     0.065782
      px      :     0.021283
      py      :     0.041411
      dz2     :     0.013080  d :     0.088952
      dxz     :     0.009877
      dyz     :     0.034713
      dx2y2   :     0.023593
      dxy     :     0.007689
      f0      :     0.000205  f :     0.006164
      f+1     :     0.002087
      f-1     :     0.001104
      f+2     :     0.000179
      f-2     :     0.000871
      f+3     :     0.000627
      f-3     :     0.001091

  3 H s       :     0.018948  s :     0.018948
      pz      :     0.001294  p :     0.009816
      px      :     0.002319
      py      :     0.006202
      dz2     :     0.000008  d :     0.000980
      dxz     :     0.000123
      dyz     :     0.000089
      dx2y2   :     0.000546
      dxy     :     0.000214

  4 H s       :     0.050013  s :     0.050013
      pz      :     0.045685  p :     0.074791
      px      :     0.026080
      py      :     0.003026
      dz2     :     0.005671  d :     0.008220
      dxz     :     0.000465
      dyz     :    -0.000028
      dx2y2   :     0.001354
      dxy     :     0.000759

  5 H s       :     0.019109  s :     0.019109
      pz      :     0.000155  p :     0.009921
      px      :     0.004556
      py      :     0.005210
      dz2     :     0.000547  d :     0.000981
      dxz     :    -0.000005
      dyz     :     0.000148
      dx2y2   :     0.000018
      dxy     :     0.000274

  6 H s       :    -0.001782  s :    -0.001782
      pz      :     0.000457  p :     0.000212
      px      :     0.000794
      py      :    -0.001040
      dz2     :     0.000050  d :     0.001262
      dxz     :     0.000387
      dyz     :     0.000110
      dx2y2   :     0.000715
      dxy     :     0.000000



                      *****************************
                      * MAYER POPULATION ANALYSIS *
                      *****************************

  NA   - Mulliken gross atomic population
  ZA   - Total nuclear charge
  QA   - Mulliken gross atomic charge
  VA   - Mayer's total valence
  BVA  - Mayer's bonded valence
  FA   - Mayer's free valence

  ATOM       NA         ZA         QA         VA         BVA        FA
  0 O      8.2974     8.0000    -0.2974     2.0715     1.4154     0.6561
  1 C      6.0290     6.0000    -0.0290     3.3258     2.7798     0.5460
  2 C      6.5784     6.0000    -0.5784     3.6679     3.6538     0.0141
  3 H      0.8076     1.0000     0.1924     1.0374     1.0364     0.0011
  4 H      0.7268     1.0000     0.2732     0.9367     0.9327     0.0040
  5 H      0.8077     1.0000     0.1923     1.0377     1.0366     0.0011
  6 H      0.7531     1.0000     0.2469     0.9776     0.9775     0.0001

  Mayer bond orders larger than 0.100000
B(  0-O ,  1-C ) :   1.2633 B(  1-C ,  2-C ) :   0.6397 B(  1-C ,  4-H ) :   0.9238 
B(  2-C ,  3-H ) :   1.0059 B(  2-C ,  5-H ) :   1.0056 B(  2-C ,  6-H ) :   0.9435 


-------
TIMINGS
-------

Total SCF time: 0 days 0 hours 0 min 4 sec 

Total time                  ....       4.960 sec
Sum of individual times     ....       4.951 sec  ( 99.8%)

SCF preparation             ....       0.412 sec  (  8.3%)
Fock matrix formation       ....       4.002 sec  ( 80.7%)
  Startup                   ....       0.030 sec  (  0.7% of F)
  Split-RI-J                ....       0.175 sec  (  4.4% of F)
  Chain of spheres X        ....       2.578 sec  ( 64.4% of F)
  XC integration            ....       1.130 sec  ( 28.2% of F)
    XC Preparation          ....       0.000 sec  (  0.0% of XC)
    Basis function eval.    ....       0.073 sec  (  6.5% of XC)
    Density eval.           ....       0.338 sec  ( 29.9% of XC)
    XC-Functional eval.     ....       0.033 sec  (  2.9% of XC)
    XC-Potential eval.      ....       0.589 sec  ( 52.2% of XC)
Diagonalization             ....       0.000 sec  (  0.0%)
Density matrix formation    ....       0.069 sec  (  1.4%)
Total Energy calculation    ....       0.041 sec  (  0.8%)
Population analysis         ....       0.025 sec  (  0.5%)
Orbital Transformation      ....       0.054 sec  (  1.1%)
Orbital Orthonormalization  ....       0.000 sec  (  0.0%)
DIIS solution               ....       0.226 sec  (  4.5%)
SOSCF solution              ....       0.120 sec  (  2.4%)
Finished LeanSCF after   5.0 sec

Maximum memory used throughout the entire LEANSCF-calculation: 14.7 MB
[1741000215.242735] [ohm:3236315:0]        ib_iface.c:1059 UCX  ERROR ibv_create_cq(cqe=256) failed: Connection timed out
[1741000215.242699] [ohm:3236321:0]        ib_iface.c:1059 UCX  ERROR ibv_create_cq(cqe=256) failed: Connection timed out
[1741000215.242788] [ohm:3236319:0]        ib_iface.c:1059 UCX  ERROR ibv_create_cq(cqe=256) failed: Connection timed out
[1741000215.242867] [ohm:3236317:0]        ib_iface.c:1059 UCX  ERROR ibv_create_cq(cqe=256) failed: Connection timed out
[1741000215.250139] [ohm:3236316:0]        ib_iface.c:1059 UCX  ERROR ibv_create_cq(cqe=256) failed: Connection timed out
[1741000215.250133] [ohm:3236318:0]        ib_iface.c:1059 UCX  ERROR ibv_create_cq(cqe=256) failed: Connection timed out
[1741000215.250138] [ohm:3236320:0]        ib_iface.c:1059 UCX  ERROR ibv_create_cq(cqe=256) failed: Connection timed out
[1741000215.251093] [ohm:3236314:0]        ib_iface.c:1059 UCX  ERROR ibv_create_cq(cqe=256) failed: Connection timed out
[1741000215.265967] [ohm:3236327:0]        ib_iface.c:1059 UCX  ERROR ibv_create_cq(cqe=256) failed: Connection timed out
[1741000215.266059] [ohm:3236324:0]        ib_iface.c:1059 UCX  ERROR ibv_create_cq(cqe=256) failed: Connection timed out
[1741000215.275817] [ohm:3236332:0]        ib_iface.c:1059 UCX  ERROR ibv_create_cq(cqe=256) failed: Connection timed out
[1741000215.278100] [ohm:3236343:0]        ib_iface.c:1059 UCX  ERROR ibv_create_cq(cqe=256) failed: Connection timed out
[1741000215.280941] [ohm:3236322:0]        ib_iface.c:1059 UCX  ERROR ibv_create_cq(cqe=256) failed: Connection timed out
[1741000215.280946] [ohm:3236338:0]        ib_iface.c:1059 UCX  ERROR ibv_create_cq(cqe=256) failed: Connection timed out
[1741000215.281076] [ohm:3236325:0]        ib_iface.c:1059 UCX  ERROR ibv_create_cq(cqe=256) failed: Connection timed out
[1741000215.281068] [ohm:3236328:0]        ib_iface.c:1059 UCX  ERROR ibv_create_cq(cqe=256) failed: Connection timed out


           ************************************************************
           *        Program running with 16 parallel MPI-processes    *
           *              working on a common directory               *
           ************************************************************

------------------------------------------------------------------------------
                         ORCA PROPERTY INTEGRAL CALCULATIONS
------------------------------------------------------------------------------

GBWName                                   ... orca.gbw
Number of atoms                           ...      7
Number of basis functions                 ...    182
Max core memory                           ...   1024 MB

Dipole integrals                          ... YES
Quadrupole integrals                      ...  NO
Linear momentum integrals                 ... YES
Angular momentum integrals                ... YES
Higher moments length integrals           ...  NO
Higher moments velocity integrals         ...  NO
Kinetic energy integrals                  ...  NO
GIAO right hand sides                     ...  NO
GIAO dipole derivative integrals          ...  NO
SOC integrals                             ...  NO
EPR diamagnetic integrals (GIAO)          ...  NO
EPR gauge integrals                       ...  NO
Field gradient integrals                  ...  NO (   0 nuclei)
Spin-dipole/Fermi contact integrals       ...  NO (   0 nuclei)
Contact density integrals                 ...  NO (   0 nuclei)
Nucleus-orbit integrals                   ...  NO (   0 nuclei)
Geometric perturbations                   ...  NO (   7 nuclei)

Choice of electric origin   ... Center of mass
Position of electric origin ... (  0.3938,  0.4137,  0.0220) 
Choice of magnetic origin   ... GIAO
Position of magnetic origin ... (  0.0000,  0.0000,  0.0000) 

Calculating integrals                     ... Electric Dipole (Length)     done (  0.0 sec)
Calculating integrals                     ... Linear Momentum              done (  0.0 sec)
Calculating integrals                     ... Angular Momentum  (ElOri)    done (  0.0 sec)

Property integrals calculated in   0.0 sec

Maximum memory used throughout the entire PROPINT-calculation: 10.3 MB
[1741000215.934559] [ohm:3236402:0]        ib_iface.c:1059 UCX  ERROR ibv_create_cq(cqe=256) failed: Connection timed out
[1741000215.934567] [ohm:3236398:0]        ib_iface.c:1059 UCX  ERROR ibv_create_cq(cqe=256) failed: Connection timed out
[1741000215.949538] [ohm:3236400:0]        ib_iface.c:1059 UCX  ERROR ibv_create_cq(cqe=256) failed: Connection timed out
[1741000215.951591] [ohm:3236404:0]        ib_iface.c:1059 UCX  ERROR ibv_create_cq(cqe=256) failed: Connection timed out
[1741000215.952196] [ohm:3236401:0]        ib_iface.c:1059 UCX  ERROR ibv_create_cq(cqe=256) failed: Connection timed out
[1741000215.952182] [ohm:3236399:0]        ib_iface.c:1059 UCX  ERROR ibv_create_cq(cqe=256) failed: Connection timed out
[1741000215.953111] [ohm:3236403:0]        ib_iface.c:1059 UCX  ERROR ibv_create_cq(cqe=256) failed: Connection timed out
[1741000215.953398] [ohm:3236397:0]        ib_iface.c:1059 UCX  ERROR ibv_create_cq(cqe=256) failed: Connection timed out
[1741000215.955868] [ohm:3236406:0]        ib_iface.c:1059 UCX  ERROR ibv_create_cq(cqe=256) failed: Connection timed out
[1741000215.960632] [ohm:3236410:0]        ib_iface.c:1059 UCX  ERROR ibv_create_cq(cqe=256) failed: Connection timed out
[1741000215.960662] [ohm:3236420:0]        ib_iface.c:1059 UCX  ERROR ibv_create_cq(cqe=256) failed: Connection timed out
[1741000215.960725] [ohm:3236408:0]        ib_iface.c:1059 UCX  ERROR ibv_create_cq(cqe=256) failed: Connection timed out
[1741000215.961378] [ohm:3236426:0]        ib_iface.c:1059 UCX  ERROR ibv_create_cq(cqe=256) failed: Connection timed out
[1741000215.963033] [ohm:3236409:0]        ib_iface.c:1059 UCX  ERROR ibv_create_cq(cqe=256) failed: Connection timed out
[1741000215.963020] [ohm:3236414:0]        ib_iface.c:1059 UCX  ERROR ibv_create_cq(cqe=256) failed: Connection timed out
[1741000215.970033] [ohm:3236424:0]        ib_iface.c:1059 UCX  ERROR ibv_create_cq(cqe=256) failed: Connection timed out


           ************************************************************
           *        Program running with 16 parallel MPI-processes    *
           *              working on a common directory               *
           ************************************************************
------------------------------------------------------------------------------
                        ORCA TD-DFT/TDA CALCULATION
------------------------------------------------------------------------------

Input orbitals are from        ... orca.gbw
CI-vector output               ... orca.cis
Solver                         ... FN-2001
Tamm-Dancoff approximation     ... operative
CIS-Integral strategy          ... AO-integrals
Integral handling              ... AO integral Direct
Max. core memory used          ... 512 MB
Reference state                ... UHF
Follow IRoot                   ... off
Number of operators            ... 2
Orbital ranges used for CIS calculation:
 Operator 0:  Orbitals   3... 12  to  11...181

-------------------
XC-INTEGRATION GRID
-------------------

General Integration Accuracy     IntAcc      ... 3.467
Radial Grid Type                 RadialGrid  ... OptM3 with GC (2021)
Angular Grid (max. ang.)         AngularGrid ... 1 (Lebedev-50)
Angular grid pruning method      GridPruning ... 4 (adaptive)
Weight generation scheme         WeightScheme... mBecke (2022)
Basis function cutoff            BFCut       ... 1.0000e-11
Integration weight cutoff        WCut        ... 1.0000e-14
Partially contracted basis set               ... off
Rotationally invariant grid construction     ... off
Angular grids for H and He will be reduced by one unit
Diffuse basis detected: some atoms will have their outermost
                        angular grid increased by 1.

Total number of grid points                  ...     4744
Total number of batches                      ...       77
Average number of points per batch           ...       61
Average number of grid points per atom       ...      678

---------------------
COSX-INTEGRATION GRID
---------------------

General Integration Accuracy     IntAcc      ... 3.067
Radial Grid Type                 RadialGrid  ... OptM3 with GC (2021)
Angular Grid (max. ang.)         AngularGrid ... 1 (Lebedev-50)
Angular grid pruning method      GridPruning ... 4 (adaptive)
Weight generation scheme         WeightScheme... mBecke (2022)
Basis function cutoff            BFCut       ... 1.0000e-11
Integration weight cutoff        WCut        ... 1.0000e-14
Partially contracted basis set               ... on
Rotationally invariant grid construction     ... off
Angular grids for H and He will be reduced by one unit
Diffuse basis detected: some atoms will have their outermost
                        angular grid increased by 1.

Total number of grid points                  ...     2156
Total number of batches                      ...       22
Average number of points per batch           ...       98
Average number of grid points per atom       ...      308

---------------
TD-DFT XC SETUP
---------------

DFT calculation                         ... on
Name of the grid file                   ... orca.grid_cis.tmp
RI-approximation                        ... on
Aux-basis dimension                     ... 0
Functional (TD-DFT)
  Functional kind                       .... Exchange-Correlation
  Functional name                       .... wB97M-V exchange-correlation functional
  Functional family                     .... Hybrid MGGA
  Functional refs                              
    [ 0] N. Mardirossian and M. Head-Gordon.,  J. Chem. Phys. 144, 214110 (2016), doi: 10.1063/1.4952647
  Fraction of HF Exchange (short range) .... 0.1500
  Fraction of HF Exchange (long range)  .... 1.0000
  Range separation parameter mu         .... 0.3000
  Functional external parameters        .... 17
    Parameter  0 _cx00      =  8.500000e-01 : u^00 coefficient for exchange
    Parameter  1 _cx01      =  1.007000e+00 : u^01 coefficient for exchange
    Parameter  2 _cx10      =  2.590000e-01 : u^10 coefficient for exchange
    Parameter  3 _css00     =  4.430000e-01 : u^00 coefficient for same-spin correlation
    Parameter  4 _css04     = -1.437000e+00 : u^04 coefficient for same-spin correlation
    Parameter  5 _css10     = -4.535000e+00 : u^10 coefficient for same-spin correlation
    Parameter  6 _css20     = -3.390000e+00 : u^20 coefficient for same-spin correlation
    Parameter  7 _css43     =  4.278000e+00 : u^43 coefficient for same-spin correlation
    Parameter  8 _cos00     =  1.000000e+00 : u^00 coefficient for opposite-spin correlation
    Parameter  9 _cos10     =  1.358000e+00 : u^10 coefficient for opposite-spin correlation
    Parameter 10 _cos20     =  2.924000e+00 : u^20 coefficient for opposite-spin correlation
    Parameter 11 _cos21     = -8.812000e+00 : u^21 coefficient for opposite-spin correlation
    Parameter 12 _cos60     = -1.390000e+00 : u^60 coefficient for opposite-spin correlation
    Parameter 13 _cos61     =  9.142000e+00 : u^61 coefficient for opposite-spin correlation
    Parameter 14 _alpha     =  1.000000e+00 : fraction of HF exchange
    Parameter 15 _beta      = -8.500000e-01 : fraction of short-range exchange
    Parameter 16 _omega     =  3.000000e-01 : range-separation constant
Hybrid DFT                              ... on
   Exchange mixing (TD-DFT)             ...  0.150
   GGA exch. scaling (TD-DFT)           ...  0.000
   GGA corr. scaling (TD-DFT)           ...  1.000
Range-Separated Exchange                ... on
   Range Range separation parameter mu  .... 0.300
   Max. amount of RS exchange (TD-DFT)  ...  0.850

Building densities             ... done
Calculating rho(r) on the grid ... done
Building xc-kernel on the grid ... done
                    *** TD-DFT CALCULATION INITIALIZED ***

------------------------
DAVIDSON-DIAGONALIZATION
------------------------

Dimension of the eigenvalue problem            ...   1710
Number of roots to be determined               ...      2
Maximum size of the expansion space            ...     20
Maximum number of iterations                   ...    100
Convergence tolerance for the residual         ...    2.500e-07
Convergence tolerance for the energies         ...    2.500e-07
Orthogonality tolerance                        ...    1.000e-14
Level Shift                                    ...    0.000e+00
Constructing the preconditioner                ... o.k.
Building the initial guess                     ... o.k.
Number of trial vectors determined             ...     20


                       ****Iteration    0****
   Time for iteration     :  TOTAL=0.2 TRAFO=0.0 RIJ=0.0 COSX=0.2
   Size of expansion space: 6
   Lowest Energy          :    -0.127248862171
   Maximum Energy change  :     0.127248862171 (vector 0)
   Maximum residual norm  :     0.004834774478

                       ****Iteration    1****
   Time for iteration     :  TOTAL=0.1 TRAFO=0.0 COSX=0.1
   Size of expansion space: 8
   Lowest Energy          :    -0.130632876667
   Maximum Energy change  :     0.014170423263 (vector 1)
   Maximum residual norm  :     0.000563491085

                       ****Iteration    2****
   Time for iteration     :  TOTAL=0.1 TRAFO=0.0 COSX=0.1
   Size of expansion space: 10
   Lowest Energy          :    -0.130669040775
   Maximum Energy change  :     0.001310818435 (vector 1)
   Maximum residual norm  :     0.000043383039

                       ****Iteration    3****
   Time for iteration     :  TOTAL=0.1 TRAFO=0.0 COSX=0.1
   Size of expansion space: 12
   Lowest Energy          :    -0.130669709652
   Maximum Energy change  :     0.000151259213 (vector 1)
   Maximum residual norm  :     0.000075790316

                       ****Iteration    4****
   Time for iteration     :  TOTAL=0.1 TRAFO=0.0 COSX=0.1
   Size of expansion space: 14
   Lowest Energy          :    -0.130669723824
   Maximum Energy change  :     0.018960336593 (vector 1)
   Maximum residual norm  :     0.006728861004

                       ****Iteration    5****
   Time for iteration     :  TOTAL=0.1 TRAFO=0.0 COSX=0.1
   Size of expansion space: 16
   Lowest Energy          :    -0.130669723996
   Maximum Energy change  :     0.007477640700 (vector 1)
   Maximum residual norm  :     0.000911512389

                       ****Iteration    6****
   Time for iteration     :  TOTAL=0.1 TRAFO=0.0 COSX=0.1
   Size of expansion space: 18
   Lowest Energy          :    -0.130669723998
   Maximum Energy change  :     0.000881899138 (vector 1)
   Maximum residual norm  :     0.000064966002

                       ****Iteration    7****
   Time for iteration     :  TOTAL=0.1 TRAFO=0.0 COSX=0.1
   Size of expansion space: 20
   Lowest Energy          :    -0.130669723998
   Maximum Energy change  :     0.000042563823 (vector 1)
   Maximum residual norm  :     0.000001813448
   Rebuilding the expansion space

                       ****Iteration    8****
   Time for iteration     :  TOTAL=0.2 TRAFO=0.0 RIJ=0.0 COSX=0.1
   Size of expansion space: 4
   Lowest Energy          :    -0.130669272608
   Maximum Energy change  :     0.000001122219 (vector 1)
   Maximum residual norm  :     0.000000085757

      *** CONVERGENCE OF RESIDUAL NORM REACHED ***

Storing the converged CI vectors               ... orca.cis3

                 *** DAVIDSON DONE ***

Total time for solving the CIS problem:     1.339sec

---------------------
SF-TDA EXCITED STATES
---------------------

the weight of the individual excitations are printed if larger than 1.0e-02

UHF/UKS reference: multiplicity estimated based on rounded <S**2> value, RELEVANCE IS LIMITED!

(SPIN-FLIP GROUND STATE)
STATE  1:  E=  -0.130669 au     -3.556 eV   -28678.6 cm**-1 <S**2> =   0.021377 Mult 1
    12a ->  11b  :     0.978211 (c=  0.98904550)

STATE  2:  E=   0.033011 au      0.898 eV     7245.1 cm**-1 <S**2> =   1.118645 Mult 3
    12a ->  15b  :     0.579617 (c= -0.76132575)
    12a ->  16b  :     0.364505 (c=  0.60374266)
    12a ->  21b  :     0.015038 (c= -0.12262901)
    12a ->  26b  :     0.019149 (c= -0.13837930)


-----------------------------
TD-DFT/TDA-EXCITATION SPECTRA
-----------------------------

Center of mass = (  0.3938,  0.4137,  0.0220)
Generating CIS-Spin-flip transition densities           ... done

UHF/UKS reference: multiplicity estimated based on rounded <S**2> value, use it judiciously!

----------------------------------------------------------------------------------------------------
          SPIN FLIP ABSORPTION SPECTRUM VIA TRANSITION ELECTRIC DIPOLE MOMENTS    
----------------------------------------------------------------------------------------------------
     Transition      Energy     Energy  Wavelength fosc(D2)      D2        DX        DY        DZ   
                      (eV)      (cm-1)    (nm)                 (au**2)    (au)      (au)      (au)  
----------------------------------------------------------------------------------------------------
  1-3A  ->  2-3A    4.453972   35923.7   278.4   0.000009507   0.00009  -0.00542   0.00190  -0.00736

----------------------------------------------------------------------------------------------------
          SPIN FLIP ABSORPTION SPECTRUM VIA TRANSITION VELOCITY DIPOLE MOMENTS    
----------------------------------------------------------------------------------------------------
     Transition      Energy     Energy  Wavelength fosc(P2)      P2        PX        PY        PZ   
                      (eV)      (cm-1)    (nm)                 (au**2)    (au)      (au)      (au)  
[...]
      f-1     :     0.000288
      f+2     :     0.000345
      f-2     :     0.004392
      f+3     :     0.005864
      f-3     :     0.002857
  2 C s       :     0.012237  s :     0.012237
      pz      :     0.008031  p :     0.094701
      px      :     0.033662
      py      :     0.053007
      dz2     :    -0.015220  d :    -0.101611
      dxz     :    -0.012226
      dyz     :    -0.036906
      dx2y2   :    -0.026686
      dxy     :    -0.010573
      f0      :     0.000021  f :    -0.006029
      f+1     :    -0.002104
      f-1     :    -0.001185
      f+2     :    -0.000158
      f-2     :    -0.000945
      f+3     :    -0.000894
      f-3     :    -0.000763
  3 H s       :    -0.014713  s :    -0.014713
      pz      :    -0.000992  p :    -0.001472
      px      :     0.000827
      py      :    -0.001307
      dz2     :     0.000067  d :     0.001332
      dxz     :     0.000192
      dyz     :     0.000194
      dx2y2   :     0.000779
      dxy     :     0.000100
  4 H s       :     0.071434  s :     0.071434
      pz      :    -0.051616  p :    -0.086557
      px      :    -0.030107
      py      :    -0.004834
      dz2     :    -0.005458  d :    -0.008855
      dxz     :    -0.000726
      dyz     :    -0.000281
      dx2y2   :    -0.001418
      dxy     :    -0.000972
  5 H s       :    -0.014985  s :    -0.014985
      pz      :     0.000680  p :    -0.001555
      px      :    -0.002457
      py      :     0.000223
      dz2     :     0.000758  d :     0.001332
      dxz     :     0.000068
      dyz     :     0.000085
      dx2y2   :     0.000057
      dxy     :     0.000364
  6 H s       :    -0.001551  s :    -0.001551
      pz      :     0.000503  p :     0.002817
      px      :     0.001882
      py      :     0.000433
      dz2     :     0.000127  d :     0.001697
      dxz     :     0.000502
      dyz     :     0.000115
      dx2y2   :     0.000963
      dxy     :    -0.000009


                      *****************************
                      * MAYER POPULATION ANALYSIS *
                      *****************************

  NA   - Mulliken gross atomic population
  ZA   - Total nuclear charge
  QA   - Mulliken gross atomic charge
  VA   - Mayer's total valence
  BVA  - Mayer's bonded valence
  FA   - Mayer's free valence

  ATOM       NA         ZA         QA         VA         BVA        FA
  0 O      8.2458     8.0000    -0.2458     2.0534     1.4062     0.6472
  1 C      5.8004     6.0000     0.1996     3.4459     2.9024     0.5435
  2 C      6.6911     6.0000    -0.6911     3.7339     3.6955     0.0384
  3 H      0.8066     1.0000     0.1934     1.0405     1.0328     0.0077
  4 H      0.8872     1.0000     0.1128     1.0855     1.0590     0.0265
  5 H      0.8078     1.0000     0.1922     1.0433     1.0354     0.0079
  6 H      0.7611     1.0000     0.2389     0.9923     0.9909     0.0014

  Mayer bond orders larger than 0.100000
B(  0-O ,  1-C ) :   1.2593 B(  1-C ,  2-C ) :   0.6662 B(  1-C ,  4-H ) :   1.0224 
B(  2-C ,  3-H ) :   0.9983 B(  2-C ,  5-H ) :   0.9990 B(  2-C ,  6-H ) :   0.9471 



-------
TIMINGS
-------

Total TD-DFT gradient time  ....        4.999 sec

Fock matrix formation       ....       1.065 sec  ( 21.3%)
  Coulomb formation         ....       0.832 sec  ( 78.1% of F)
  XC integration            ....       0.233 sec  ( 21.9% of F)
Z-vector equation           ....       1.318 sec  ( 26.4%)
Densities                   ....       0.000 sec  (  0.0%)
One electron gradient       ....       0.009 sec  (  0.2%)
Two electron gradient       ....       0.000 sec  (  0.0%)
RI-J Coulomb gradient       ....       0.094 sec  (  1.9%)
COSX gradient               ....       0.424 sec  (  8.5%)
XC gradient                 ....       1.867 sec  ( 37.3%)

Maximum memory used throughout the entire CIS-calculation: 35.8 MB
=> NOW LEAVING ORCA_CIS


-------------------------------------------------------------------------------
                          DFT DISPERSION CORRECTION                            
                                                                               
                              DFTD3 V3.1  Rev 1                                
                          USING Becke-Johnson damping                          
-------------------------------------------------------------------------------
The WB97M functional is recognized
Active option DFTDOPT                   ...         4   

molecular C6(AA) [au] = 394.924446 


            DFT-D V3
 parameters
 s6 scaling factor         :     1.0000 
 a1 scaling factor         :     0.5660 
 s8 scaling factor         :     0.3908 
 a2 scaling factor         :     3.1280 
 ad hoc parameters k1-k3   :    16.0000     1.3333    -4.0000 

 Edisp/kcal,au: -3.483179143964  -0.005550798699 
 E6   /kcal   :  -2.807866095 
 E8   /kcal   :  -0.675313049 
 % E8         :  19.387835676 

-------------------------   ----------------
Dispersion correction           -0.005550799
-------------------------   ----------------


-------------------------   --------------------
FINAL SINGLE POINT ENERGY      -153.757936456818
-------------------------   --------------------

[1741000223.095830] [ohm:3236515:0]        ib_iface.c:1059 UCX  ERROR ibv_create_cq(cqe=256) failed: Connection timed out
[1741000223.095818] [ohm:3236517:0]        ib_iface.c:1059 UCX  ERROR ibv_create_cq(cqe=256) failed: Connection timed out
[1741000223.096152] [ohm:3236519:0]        ib_iface.c:1059 UCX  ERROR ibv_create_cq(cqe=256) failed: Connection timed out
[1741000223.098378] [ohm:3236514:0]        ib_iface.c:1059 UCX  ERROR ibv_create_cq(cqe=256) failed: Connection timed out
[1741000223.098408] [ohm:3236518:0]        ib_iface.c:1059 UCX  ERROR ibv_create_cq(cqe=256) failed: Connection timed out
[1741000223.098446] [ohm:3236516:0]        ib_iface.c:1059 UCX  ERROR ibv_create_cq(cqe=256) failed: Connection timed out
[1741000223.098583] [ohm:3236522:0]        ib_iface.c:1059 UCX  ERROR ibv_create_cq(cqe=256) failed: Connection timed out
[1741000223.099773] [ohm:3236521:0]        ib_iface.c:1059 UCX  ERROR ibv_create_cq(cqe=256) failed: Connection timed out
[1741000223.099765] [ohm:3236524:0]        ib_iface.c:1059 UCX  ERROR ibv_create_cq(cqe=256) failed: Connection timed out
[1741000223.101658] [ohm:3236520:0]        ib_iface.c:1059 UCX  ERROR ibv_create_cq(cqe=256) failed: Connection timed out
[1741000223.108668] [ohm:3236526:0]        ib_iface.c:1059 UCX  ERROR ibv_create_cq(cqe=256) failed: Connection timed out
[1741000223.108704] [ohm:3236529:0]        ib_iface.c:1059 UCX  ERROR ibv_create_cq(cqe=256) failed: Connection timed out
[1741000223.111903] [ohm:3236527:0]        ib_iface.c:1059 UCX  ERROR ibv_create_cq(cqe=256) failed: Connection timed out
[1741000223.123385] [ohm:3236533:0]        ib_iface.c:1059 UCX  ERROR ibv_create_cq(cqe=256) failed: Connection timed out
[1741000223.123365] [ohm:3236542:0]        ib_iface.c:1059 UCX  ERROR ibv_create_cq(cqe=256) failed: Connection timed out
[1741000223.124360] [ohm:3236540:0]        ib_iface.c:1059 UCX  ERROR ibv_create_cq(cqe=256) failed: Connection timed out


           ************************************************************
           *        Program running with 16 parallel MPI-processes    *
           *              working on a common directory               *
           ************************************************************

------------------------------------------------------------------------------
                              ORCA PROPERTY CALCULATIONS
------------------------------------------------------------------------------

GBWName                                 ... orca.gbw
Number of atoms                         ...      7
Number of basis functions               ...    182
Max core memory                         ...   1024 MB

Electric properties:
Dipole moment                           ... YES
Quadrupole moment                       ...  NO
Static polarizability (Dipole/Dipole)   ...  NO
Static polarizability (Dipole/Quad.)    ...  NO
Static polarizability (Quad./Quad.)     ...  NO
Static polarizability (Velocity)        ...  NO

Atomic electric properties:
Dipole moment                           ...  NO
Quadrupole moment                       ...  NO
Static polarizability                   ...  NO

Choice of electric origin               ... Center of mass
Position of electric origin             ...     0.393835     0.413731     0.022021

General magnetic properties:
Magnetizability                         ...  NO

EPR properties:
g-Tensor (aka g-matrix)                 ...  NO
Zero-Field splitting spin-orbit         ...  NO
Zero-field splitting spin-spin          ...  NO
Hyperfine couplings                     ...  NO (   0 nuclei)
Quadrupole couplings                    ...  NO (   0 nuclei)
Contact density                         ...  NO (   0 nuclei)

NMR properties:
Chemical shifts                         ...  NO (   0 nuclei)
Spin-rotation constants                 ...  NO (   0 nuclei)
Spin-spin couplings                     ...  NO (   0 nuclei,    0 pairs)

Choice of magnetic origin               ... GIAO
Position of magnetic origin             ...     0.000000     0.000000     0.000000

Properties with geometric perturbations:
SCF Hessian                             ...  NO
IR spectrum                             ...  NO
VCD spectrum                            ...  NO
X-ray spectroscopy properties:
SCF XES/XAS/RIXS spectra                ...  NO


-------------
DIPOLE MOMENT
-------------

Method             : SCF
Type of density    : Electron Density
Multiplicity       :   3
Irrep              :   0
Energy             :  -153.7853968383550978 Eh
Relativity type    : 
Basis              : AO
                                X                 Y                 Z
Electronic contribution:      1.315991975       3.375492808      -0.052891646
Nuclear contribution   :     -1.390115767      -3.967992863      -0.053744795
                        -----------------------------------------
Total Dipole Moment    :     -0.074123792      -0.592500055      -0.106636441
                        -----------------------------------------
Magnitude (a.u.)       :      0.606565728
Magnitude (Debye)      :      1.541767555



--------------------
Rotational spectrum 
--------------------
 
Rotational constants in cm-1:             1.727020             0.360529             0.315494 
Rotational constants in MHz :         51774.755020         10808.385233          9458.265370 

Dipole components along the rotational axes: 
x,y,z [a.u.] :     0.558469     0.236716    -0.000052 
x,y,z [Debye]:     1.419515     0.601684    -0.000131 

 

-------------
DIPOLE MOMENT
-------------

Method             : TDA/CIS
Type of density    : Electron Density
Level              : Relaxed density
State              :   2
Multiplicity       :   3
Irrep              :   0
Energy             :     0.0000000000000000 Eh
Relativity type    : 
Basis              : AO
                                X                 Y                 Z
Electronic contribution:      1.249964120       3.420140440       0.008080566
Nuclear contribution   :     -1.390115767      -3.967992863      -0.053744795
                        -----------------------------------------
Total Dipole Moment    :     -0.140151647      -0.547852423      -0.045664229
                        -----------------------------------------
Magnitude (a.u.)       :      0.567335865
Magnitude (Debye)      :      1.442053166



--------------------
Rotational spectrum 
--------------------
 
Rotational constants in cm-1:             1.727020             0.360529             0.315494 
Rotational constants in MHz :         51774.755020         10808.385233          9458.265370 

Dipole components along the rotational axes: 
x,y,z [a.u.] :     0.550628     0.136670    -0.000075 
x,y,z [Debye]:     1.399585     0.347387    -0.000191 

 

Dipole moment calculation done in   0.0 sec 

Maximum memory used throughout the entire PROP-calculation: 7.5 MB
[1741000223.808533] [ohm:3236598:0]        ib_iface.c:1059 UCX  ERROR ibv_create_cq(cqe=256) failed: Connection timed out
[1741000223.808540] [ohm:3236604:0]        ib_iface.c:1059 UCX  ERROR ibv_create_cq(cqe=256) failed: Connection timed out
[1741000223.808680] [ohm:3236607:0]        ib_iface.c:1059 UCX  ERROR ibv_create_cq(cqe=256) failed: Connection timed out
[1741000223.811414] [ohm:3236602:0]        ib_iface.c:1059 UCX  ERROR ibv_create_cq(cqe=256) failed: Connection timed out
[1741000223.811414] [ohm:3236600:0]        ib_iface.c:1059 UCX  ERROR ibv_create_cq(cqe=256) failed: Connection timed out
[1741000223.815158] [ohm:3236617:0]        ib_iface.c:1059 UCX  ERROR ibv_create_cq(cqe=256) failed: Connection timed out
[1741000223.815496] [ohm:3236610:0]        ib_iface.c:1059 UCX  ERROR ibv_create_cq(cqe=256) failed: Connection timed out
[1741000223.817119] [ohm:3236599:0]        ib_iface.c:1059 UCX  ERROR ibv_create_cq(cqe=256) failed: Connection timed out
[1741000223.817121] [ohm:3236603:0]        ib_iface.c:1059 UCX  ERROR ibv_create_cq(cqe=256) failed: Connection timed out
[1741000223.817397] [ohm:3236597:0]        ib_iface.c:1059 UCX  ERROR ibv_create_cq(cqe=256) failed: Connection timed out
[1741000223.817471] [ohm:3236605:0]        ib_iface.c:1059 UCX  ERROR ibv_create_cq(cqe=256) failed: Connection timed out
[1741000223.817469] [ohm:3236601:0]        ib_iface.c:1059 UCX  ERROR ibv_create_cq(cqe=256) failed: Connection timed out
[1741000223.817830] [ohm:3236625:0]        ib_iface.c:1059 UCX  ERROR ibv_create_cq(cqe=256) failed: Connection timed out
[1741000223.820414] [ohm:3236609:0]        ib_iface.c:1059 UCX  ERROR ibv_create_cq(cqe=256) failed: Connection timed out
[1741000223.820413] [ohm:3236612:0]        ib_iface.c:1059 UCX  ERROR ibv_create_cq(cqe=256) failed: Connection timed out
[1741000223.820410] [ohm:3236621:0]        ib_iface.c:1059 UCX  ERROR ibv_create_cq(cqe=256) failed: Connection timed out

--------------------------------
SUGGESTED CITATIONS FOR THIS RUN
--------------------------------

Below you find a list of papers that are relevant to this ORCA run
We neither can nor want to force you to cite these papers, but we appreciate if you do
You receive ORCA, which is the product of decades of hard work by many enthusiastic individuals, for free
The only thing we kindly ask in return is that you cite our papers,
We deeply appreciate it, if you show your appreciation for ORCA by not just citing the generic ORCA reference.

Please note that relegating all ORCA citations to the supporting information does *not* help us.
SI sections are not indexed - citations you put there will not count into any citation statistics
But we need these citations in order to attract the funding resources that allow us to do what we are doing

Therefore, if you are a happy ORCA user, please consider citing a few of the papers listed below in the main body of your paper

In addition to the list printed below, the program has created the file orca.bibtex that contains the list in bibtex format
You can import this file easily into all common literature databanks and citation aid programs


List of essential papers. We consider these as the minimum necessary citations

  1. Neese,F.
     Software update: the ORCA program system, version 5.0
     WIRES Comput. Molec. Sci., 2022 12(1)e1606
     doi.org/10.1002/wcms.1606

List of papers to cite with high priority. The work reported in these papers was absolutely
necessary for this run to complete.
Our perspective: the developers of density functionals and basis sets usually get cited in chemistry papers
Good! But without the algorithms to do something with them, the functionals or basis sets would not do anything.
Hence, in our opinion, the algorithm design and method developments papers are equally worthy of getting cited

  1. Neese,F.; Olbrich,G.
     Efficient use of the resolution of the identity approximation in time-dependent density functional calculations with hybrid density functionals
     Chem. Phys. Lett., 2002 362 170-178
     doi.org/10.1016/s0009-2614(02)01053-9
  2. Neese,F.
     An improvement of the resolution of the identity approximation for the formation of the Coulomb matrix
     J. Comp. Chem., 2003 24(14)1740-1747
     doi.org/10.1002/jcc.10318
  3. Neese,F.; Wennmohs,F.; Hansen,A.; Becker,U.
     Efficient, approximate and parallel Hartree-Fock and hybrid DFT calculations. A 'chain-of-spheres' algorithm for the Hartree-Fock exchange
     Chem. Phys., 2009 356(1-3)98-109
     doi.org/10.1016/j.chemphys.2008.10.036
  4. Petrenko,T.; Kossmann,S.; Neese,F.
     Efficient time-dependent density functional theory approximations for hybrid density functionals: Analytical gradients and parallelization
     J. Chem. Phys., 2011 134 054116
     doi.org/10.1063/1.3533441
  5. Helmich-Paris,B.; de Souza,B.; Neese,F.; Izsák,R.
     An improved chain of spheres for exchange algorithm
     J. Chem. Phys., 2021 155 104109
     doi.org/doi: 10.1063/5.0058766.
  6. Neese,F.
     The SHARK Integral Generation and Digestion System
     J. Comp. Chem., 2022  1-16
     doi.org/10.1002/jcc.26942
  7. Lehtola,S.; Steigemann,C.; Oliveira,M.; Marques,M.
     Recent developments in Libxc - A comprehensive library of functionals for density functional theory
     Software X, 2018 7 
     doi.org/10.1016/j.softx.2017.11.002
  8. Grimme,S.; Antony,J.; Ehrlich,S.; Krieg,H.
     A consistent and accurate ab initio parametrization of density functional dispersion correction (DFT-D) for the 94 elements H-Pu
     J. Chem. Phys., 2010 132 154104-XXXX
     doi.org/10.1063/1.3382344
  9. Grimme,S.; Ehrlich,S.; Goerigk,L.
     Effect of the damping function in dispersion corrected density functional theory
     J. Comput. Chem., 2011 32(7)1456-1465
     doi.org/10.1002/jcc.21759

List of suggested additional citations. These are papers that are important in the 'surrounding' of 
of this run, or papers that preceded the highly important papers. If you like your results we are grateful for a citation.

  1. Izsak,R.; Neese,F.
     An overlap fitted chain of spheres exchange method
     J. Chem. Phys., 2011 135 144105
     doi.org/10.1063/1.3646921
  2. Izsak,R.; Hansen,A.; Neese,F.
     The resolution of identity and chain of spheres approximations for the LPNO-CCSD singles Fock term
     Molec. Phys., 2012 110 2413-2417
     doi.org/10.1080/00268976.2012.687466
  3. Neese,F.
     The ORCA program system
     WIRES Comput. Molec. Sci., 2012 2(1)73-78
     doi.org/10.1002/wcms.81
  4. Izsak,R.; Neese,F.; Klopper,W.
     Robust fitting techniques in the chain of spheres approximation to the Fock exchange: The role of the complementary space
     J. Chem. Phys., 2013 139 
     doi.org/10.1063/1.4819264
  5. Neese,F.
     Software update: the ORCA program system, version 4.0
     WIRES Comput. Molec. Sci., 2018 8(1)1-6
     doi.org/10.1002/wcms.1327
  6. Neese,F.; Wennmohs,F.; Becker,U.; Riplinger,C.
     The ORCA quantum chemistry program package
     J. Chem. Phys., 2020 152 Art. No. L224108
     doi.org/10.1063/5.0004608

List of optional additional citations

  1. Neese,F.
     Approximate second-order SCF convergence for spin unrestricted wavefunctions
     Chem. Phys. Lett., 2000 325(1-3)93-98
     doi.org/10.1016/s0009-2614(00)00662-x

Timings for individual modules:

Sum of individual times          ...       15.522 sec (=   0.259 min)
Startup calculation              ...        0.992 sec (=   0.017 min)   6.4 %
SCF iterations                   ...        6.044 sec (=   0.101 min)  38.9 %
Property integrals               ...        0.695 sec (=   0.012 min)   4.5 %
Property calculations            ...        0.700 sec (=   0.012 min)   4.5 %
CIS module                       ...        7.092 sec (=   0.118 min)  45.7 %
                             ****ORCA TERMINATED NORMALLY****
TOTAL RUN TIME: 0 days 0 hours 0 minutes 16 seconds 246 msec
