
                                 *****************
                                 * O   R   C   A *
                                 *****************

                                            #,                                       
                                            ###                                      
                                            ####                                     
                                            #####                                    
                                            ######                                   
                                           ########,                                 
                                     ,,################,,,,,                         
                               ,,#################################,,                 
                          ,,##########################################,,             
                       ,#########################################, ''#####,          
                    ,#############################################,,   '####,        
                  ,##################################################,,,,####,       
                ,###########''''           ''''###############################       
              ,#####''   ,,,,##########,,,,          '''####'''          '####       
            ,##' ,,,,###########################,,,                        '##       
           ' ,,###''''                  '''############,,,                           
         ,,##''                                '''############,,,,        ,,,,,,###''
      ,#''                                            '''#######################'''  
     '                                                          ''''####''''         
             ,#######,   #######,   ,#######,      ##                                
            ,#'     '#,  ##    ##  ,#'     '#,    #''#        ,####,   ,####,        
            ##       ##  ##   ,#'  ##            #'  '#       #'       #'  '#        
            ##       ##  #######   ##           ,######,      #####,   #    #        
            '#,     ,#'  ##    ##  '#,     ,#' ,#      #,     #,   #   #,  ,#        
             '#######'   ##     ##  '#######'  #'      '#     '####' # '####'        



                #########################################################
                #                        -***-                          #
                #          Department of theory and spectroscopy        #
                #                                                       #
                #                      Frank Neese                      #
                #                                                       #
                #     Directorship, Architecture, Infrastructure        #
                #                    SHARK, DRIVERS                     #
                #        Core code/Algorithms in most modules           #
                #                                                       #
                #        Max Planck Institute fuer Kohlenforschung      #
                #                Kaiser Wilhelm Platz 1                 #
                #                 D-45470 Muelheim/Ruhr                 #
                #                      Germany                          #
                #                                                       #
                #                  All rights reserved                  #
                #                        -***-                          #
                #########################################################


                         Program Version 6.0.0  -   RELEASE  -


 With contributions from (in alphabetic order):
   Daniel Aravena         : Magnetic Suceptibility
   Michael Atanasov       : Ab Initio Ligand Field Theory (pilot matlab implementation)
   Alexander A. Auer      : GIAO ZORA, VPT2 properties, NMR spectrum
   Ute Becker             : All parallelization in ORCA, NUMFREQ, NUMCALC
   Giovanni Bistoni       : ED, misc. LED, open-shell LED, HFLD
   Martin Brehm           : Molecular dynamics
   Dmytro Bykov           : pre 5.0 version of the SCF Hessian
   Marcos Casanova-Páez   : Triplet and SCS-CIS(D). UHF-(DLPNO)-IP/EA/STEOM-CCSD. UHF-CVS-IP/STEOM-CCSD
   Vijay G. Chilkuri      : MRCI spin determinant printing, contributions to CSF-ICE
   Pauline Colinet        : FMM embedding
   Dipayan Datta          : RHF DLPNO-CCSD density
   Achintya Kumar Dutta   : EOM-CC, STEOM-CC
   Nicolas Foglia         : Exact transition moments, OPA infrastructure, MCD improvements
   Dmitry Ganyushin       : Spin-Orbit,Spin-Spin,Magnetic field MRCI
   Miquel Garcia          : C-PCM and meta-GGA Hessian, CCSD/C-PCM, Gaussian charge scheme
   Tiago L. C. Gouveia    : GS-ROHF, GS-ROCIS
   Yang Guo               : DLPNO-NEVPT2, F12-NEVPT2, CIM, IAO-localization
   Andreas Hansen         : Spin unrestricted coupled pair/coupled cluster methods
   Ingolf Harden          : AUTO-CI MPn and infrastructure 
   Benjamin Helmich-Paris : MC-RPA, TRAH-(SCF,CASSCF), AVAS, COSX integrals, SCF dyn. polar.
   Lee Huntington         : MR-EOM, pCC
   Robert Izsak           : Overlap fitted RIJCOSX, COSX-SCS-MP3, EOM
   Riya Kayal             : Wick's Theorem for AUTO-CI, AUTO-CI UHF-CCSDT
   Emily Kempfer          : AUTO-CI, RHF CISDT and CCSDT
   Christian Kollmar      : KDIIS, OOCD, Brueckner-CCSD(T), CCSD density, CASPT2, CASPT2-K, improved NEVPT2
   Axel Koslowski         : Symmetry handling
   Simone Kossmann        : Meta GGA functionals, TD-DFT gradient, OOMP2, (MP2 Hessian; deprecated post 5.0)
   Lucas Lang             : DCDCAS
   Marvin Lechner         : AUTO-CI (C++ implementation), FIC-MRCC
   Spencer Leger          : CASSCF response
   Dagmar Lenk            : GEPOL surface, SMD, ORCA-2-JSON
   Dimitrios Liakos       : Extrapolation schemes; Compound Job, initial MDCI parallelization
   Dimitrios Manganas     : Further ROCIS development; embedding schemes. LFT, Crystal Embedding
   Dimitrios Pantazis     : SARC Basis sets
   Anastasios Papadopoulos: AUTO-CI, single reference methods and gradients
   Taras Petrenko         : pre 6.0 DFT Hessian and TD-DFT gradient, (ASA, deprecated), ECA, 1-Electron XAS/XES, NRVS
   Peter Pinski           : DLPNO-MP2, DLPNO-MP2 Gradient
   Christoph Reimann      : Effective Core Potentials
   Marius Retegan         : Local ZFS, SOC
   Christoph Riplinger    : Optimizer, TS searches, QM/MM, DLPNO-CCSD(T), (RO)-DLPNO pert. Triples
   Michael Roemelt        : Original ROCIS implementation
   Masaaki Saitow         : Open-shell DLPNO-CCSD energy and density
   Barbara Sandhoefer     : DKH picture change effects
   Kantharuban Sivalingam : CASSCF convergence/infrastructure, NEVPT2 and variants, FIC-MRCI
   Bernardo de Souza      : ESD, SOC TD-DFT
   Georgi Stoychev        : AutoAux, RI-MP2 NMR, DLPNO-MP2 response, X2C
   Van Anh Tran           : RI-MP2 g-tensors
   Willem Van den Heuvel  : Paramagnetic NMR
   Zikuan Wang            : NOTCH, Electric field optimization 
   Frank Wennmohs         : Technical directorship and infrastructure
   Hang Xu                : AUTO-CI-Response properties 


 We gratefully acknowledge several colleagues who have allowed us to
 interface, adapt or use parts of their codes:
   Stefan Grimme, W. Hujo, H. Kruse, P. Pracht,  : VdW corrections, initial TS optimization,
                  C. Bannwarth, S. Ehlert,         DFT functionals, gCP, sTDA/sTD-DF
                  L. Wittmann, M. Mueller
   Ed Valeev, F. Pavosevic, A. Kumar             : LibInt (2-el integral package), F12 methods
   Garnet Chan, S. Sharma, J. Yang, R. Olivares  : DMRG
   Ulf Ekstrom                                   : XCFun DFT Library
   Mihaly Kallay                                 : mrcc  (arbitrary order and MRCC methods)
   Frank Weinhold                                : gennbo (NPA and NBO analysis)
   Simon Mueller                                 : openCOSMO-RS
   Christopher J. Cramer and Donald G. Truhlar   : smd solvation model
   Lars Goerigk                                  : TD-DFT with DH, B97 family of functionals
   V. Asgeirsson, H. Jonsson                     : NEB implementation
   FAccTs GmbH                                   : IRC, NEB, NEB-TS, DLPNO-Multilevel, CI-OPT
                                                   MM, QMMM, 2- and 3-layer-ONIOM, Crystal-QMMM,
                                                   LR-CPCM, SF, NACMEs, symmetry and pop. for TD-DFT,
                                                   nearIR, NL-DFT gradient (VV10), updates on ESD,
                                                   ML-optimized integration grids, MBIS, APM,
                                                   GOAT, DOCKER, SOLVATOR, interface openCOSMO-RS
   S Lehtola, MJT Oliveira, MAL Marques          : LibXC Library
   Liviu Ungur et al                             : ANISO software


 Your calculation uses the libint2 library for the computation of 2-el integrals
 For citations please refer to: http://libint.valeyev.net

 Your ORCA version has been built with support for libXC version: 6.2.2
 For citations please refer to: https://libxc.gitlab.io

 This ORCA versions uses:
   CBLAS   interface :  Fast vector & matrix operations
   LAPACKE interface :  Fast linear algebra routines
   SCALAPACK package :  Parallel linear algebra routines
   Shared memory     :  Shared parallel matrices
   BLAS/LAPACK       :  OpenBLAS 0.3.27  USE64BITINT DYNAMIC_ARCH NO_AFFINITY Zen SINGLE_THREADED
        Core in use  :  Zen
   Copyright (c) 2011-2014, The OpenBLAS Project


Your calculation utilizes the atom-pairwise dispersion correction
with the Becke-Johnson damping scheme (D3BJ)


Warning: RI is on but no J-basis has been assigned. Assigning Def2/J (nothing to worry about!)
================================================================================

----- Orbital basis set information -----
Your calculation utilizes the basis: def2-TZVPPD
   F. Weigend and R. Ahlrichs, Phys. Chem. Chem. Phys. 7, 3297 (2005).
   D. Rappoport and F. Furche, J. Chem. Phys. 133, 134105 (2010)
   D. Rappoport, J. Chem. Phys. 155, 124102 (2021).

----- AuxJ basis set information -----
Your calculation utilizes the auxiliary basis: def2/J
   F. Weigend, Phys. Chem. Chem. Phys. 8, 1057 (2006).

================================================================================
                                        WARNINGS
                       Please study these warnings very carefully!
================================================================================

Using LibXC functional ID 531 : wB97M-V exchange-correlation functional
[ 1]  N. Mardirossian and M. Head-Gordon.,  J. Chem. Phys. 144, 214110 (2016)
Using LibXC functional ID 531 : wB97M-V exchange-correlation functional
[ 1]  N. Mardirossian and M. Head-Gordon.,  J. Chem. Phys. 144, 214110 (2016)

WARNING: B97M-V or wB97M-V functional requested.
  ===> : libXC variant has now been activated.
         Any manually given DFX/HFX/RangeSep scaling parameters are IGNORED!

Your calculation utilizes LibXC
 by S Lehtola, C Steigemann, MJT Oliveira & MAL Marques
Please cite in your paper:
 S Lehtola, C Steigemann, MJT Oliveira & MAL Marques, SoftwareX, 7, (2018), 1.
   


WARNING: your system is open-shell and RHF/RKS was chosen
  ===> : WILL SWITCH to UHF/UKS

INFO   : Checking CIS options ...

WARNING: CIS/ROCIS methods need fully converged wavefunctions
  ===> : Setting SCFConvForced true
         You can overwrite this default with %scf ConvForced false 


================================================================================
                                       INPUT FILE
================================================================================
NAME = orca.inp
|  1> ! Engrad def2-TZVPPD wB97M-D3BJ 
|  2> %pal nprocs 8 end%pal nprocs 64 end 
|  3>  %tddft nroots 2 Iroot 1 
|  4> sf true 
|  5> end 
|  6> *xyz 0 3 
|  7> O   4.12429337789332 -0.40098173952542 1.41878476468711
|  8> O   -2.29350435346589 1.96146902701131 -2.01712740353188
|  9> O   1.40164718633547 -2.69669114478627 -1.30047338339769
| 10> O   -3.57940156976333 -1.67246473798605 0.34619526306086
| 11> N   0.53029256613946 -0.83353575554449 -0.2992309116799
| 12> N   -1.93951626193501 -0.3767448611655 1.22727488676
| 13> N   2.55611566749818 -1.7262126395802 0.41433905698604
| 14> N   -2.74358720518967 0.03665599076859 -0.90431568816547
| 15> C   1.91488225009321 0.4361759203014 1.14944053107835
| 16> C   -1.18878402914757 1.61186973458349 0.0381351060917
| 17> C   0.52015052336099 -0.17194041178908 0.99806990218151
| 18> C   -0.92377567663075 0.63836015188996 1.12451250484073
| 19> C   2.20900657112351 1.84583137424729 1.24429272291866
| 20> C   -0.55265760290944 2.92556979287663 0.02100355903114
| 21> C   2.97697799430073 -0.56416975682877 1.05586816316803
| 22> C   -2.08788821516182 1.26386215614917 -1.0398936712949
| 23> C   1.46458177799535 -1.8199923645715 -0.47509542560631
| 24> C   -2.81347032882935 -0.74189659413313 0.24104837628362
| 25> H   0.45799169023895 -0.96312173860728 1.76257533466076
| 26> H   -0.84482396210465 1.17303683324787 2.07422443723537
| 27> H   3.25229998606255 2.01772305652604 1.49078472622849
| 28> H   1.97899216877028 2.3685033581402 0.28675537656624
| 29> H   1.54124419967655 2.34710524925124 1.95574309606932
| 30> H   -0.41207600134376 3.32987917215243 1.02559987625602
| 31> H   0.46818528651282 2.88469598346717 -0.41783760984964
| 32> H   -1.1147765497579 3.61469076920502 -0.60245144193816
| 33> H   -0.34283828225178 -0.99346506824957 -0.77871454944652
| 34> H   -1.96221147694937 -0.97215316457934 2.03542383986964
| 35> H   3.27183166638045 -2.41772972880398 0.24894793321613
| 36> H   -3.41658139694156 -0.18932886366729 -1.61927937227928
| 37> *
| 38> 
| 39>                          ****END OF INPUT****
================================================================================

                     *******************************
                     * Energy+Gradient Calculation *
                     *******************************

---------------------------------
CARTESIAN COORDINATES (ANGSTROEM)
---------------------------------
  O      4.124293   -0.400982    1.418785
  O     -2.293504    1.961469   -2.017127
  O      1.401647   -2.696691   -1.300473
  O     -3.579402   -1.672465    0.346195
  N      0.530293   -0.833536   -0.299231
  N     -1.939516   -0.376745    1.227275
  N      2.556116   -1.726213    0.414339
  N     -2.743587    0.036656   -0.904316
  C      1.914882    0.436176    1.149441
  C     -1.188784    1.611870    0.038135
  C      0.520151   -0.171940    0.998070
  C     -0.923776    0.638360    1.124513
  C      2.209007    1.845831    1.244293
  C     -0.552658    2.925570    0.021004
  C      2.976978   -0.564170    1.055868
  C     -2.087888    1.263862   -1.039894
  C      1.464582   -1.819992   -0.475095
  C     -2.813470   -0.741897    0.241048
  H      0.457992   -0.963122    1.762575
  H     -0.844824    1.173037    2.074224
  H      3.252300    2.017723    1.490785
  H      1.978992    2.368503    0.286755
  H      1.541244    2.347105    1.955743
  H     -0.412076    3.329879    1.025600
  H      0.468185    2.884696   -0.417838
  H     -1.114777    3.614691   -0.602451
  H     -0.342838   -0.993465   -0.778715
  H     -1.962211   -0.972153    2.035424
  H      3.271832   -2.417730    0.248948
  H     -3.416581   -0.189329   -1.619279

----------------------------
CARTESIAN COORDINATES (A.U.)
----------------------------
  NO LB      ZA    FRAG     MASS         X           Y           Z
   0 O     8.0000    0    15.999    7.793785   -0.757746    2.681115
   1 O     8.0000    0    15.999   -4.334095    3.706639   -3.811818
   2 O     8.0000    0    15.999    2.648729   -5.096008   -2.457539
   3 O     8.0000    0    15.999   -6.764089   -3.160500    0.654214
   4 N     7.0000    0    14.007    1.002108   -1.575154   -0.565464
   5 N     7.0000    0    14.007   -3.665155   -0.711945    2.319213
   6 N     7.0000    0    14.007    4.830359   -3.262069    0.782987
   7 N     7.0000    0    14.007   -5.184628    0.069270   -1.708909
   8 C     6.0000    0    12.011    3.618603    0.824253    2.172128
   9 C     6.0000    0    12.011   -2.246476    3.045992    0.072065
  10 C     6.0000    0    12.011    0.982942   -0.324920    1.886079
  11 C     6.0000    0    12.011   -1.745683    1.206326    2.125021
  12 C     6.0000    0    12.011    4.174417    3.488116    2.351372
  13 C     6.0000    0    12.011   -1.044372    5.528526    0.039691
  14 C     6.0000    0    12.011    5.625673   -1.066126    1.995302
  15 C     6.0000    0    12.011   -3.945537    2.388353   -1.965114
  16 C     6.0000    0    12.011    2.767658   -3.439287   -0.897800
  17 C     6.0000    0    12.011   -5.316688   -1.401981    0.455515
  18 H     1.0000    0     1.008    0.865479   -1.820036    3.330785
  19 H     1.0000    0     1.008   -1.596486    2.216718    3.919716
  20 H     1.0000    0     1.008    6.145956    3.812944    2.817175
  21 H     1.0000    0     1.008    3.739753    4.475823    0.541889
  22 H     1.0000    0     1.008    2.912529    4.435386    3.695819
  23 H     1.0000    0     1.008   -0.778711    6.292560    1.938103
  24 H     1.0000    0     1.008    0.884742    5.451285   -0.789599
  25 H     1.0000    0     1.008   -2.106622    6.830776   -1.138468
  26 H     1.0000    0     1.008   -0.647870   -1.877377   -1.471557
  27 H     1.0000    0     1.008   -3.708042   -1.837103    3.846394
  28 H     1.0000    0     1.008    6.182866   -4.568847    0.470443
  29 H     1.0000    0     1.008   -6.456403   -0.357780   -3.059995

--------------------------------
INTERNAL COORDINATES (ANGSTROEM)
--------------------------------
 O      0   0   0     0.000000000000     0.00000000     0.00000000
 O      1   0   0     7.653417130450     0.00000000     0.00000000
 O      1   2   0     4.480786631132    51.40402777     0.00000000
 O      2   1   3     4.521537380770    75.86213025    56.36945114
 N      3   1   2     2.287595542435    63.16296838   340.15019362
 N      4   2   1     2.268130314889    62.50267455    33.51996506
 N      3   1   2     2.283682926494    11.30480186   263.20710327
 N      2   1   3     2.268442133219    71.59245145    52.19445505
 C      7   3   5     2.372230755369   118.90826307   347.22139722
 C      2   1   3     2.359392007211    33.95905691   120.23036179
 C      5   3   1     1.456296900208   139.69036690   317.39615693
 C      6   4   2     1.439696923419   152.27229547   343.60897384
 C      9   7   3     1.443133588189   148.83404373   250.14749752
 C     10   2   1     1.459711671263    93.46683638    86.68892341
 C      1   2   3     1.214360481108    27.75552850   318.41585278
 C      2   1   3     1.218162185436    47.27657060    77.19654503
 C      3   1   2     1.205740555536    34.94810422   329.23138134
 C      4   2   1     1.209819657631    32.47132888    27.80497417
 H     11   5   3     1.101952888617   106.99225493   321.24765978
 H     12   6   4     1.092732941458   109.50797500   148.46366475
 H     13   9   7     1.085710001698   111.43332592   317.95771837
 H     13   9   7     1.114885822717   111.06567734    79.18769563
 H     13   9   7     1.096970243871   111.40286705   192.82692031
 H     14  10   2     1.091990394395   112.24208155   148.04680686
 H     14  10   2     1.111922859143   111.81692036   265.72688947
 H     14  10   2     1.086076225988   110.62337108    23.34862041
 H      5   3   1     1.008880281481    89.57185114   179.00748707
 H      6   4   2     1.004057195070    87.56747657   176.04468529
 H      7   3  17     1.008860495592    86.80404690   182.96391734
 H      8   2   1     1.007553177836    88.55243998   212.33269018

---------------------------
INTERNAL COORDINATES (A.U.)
---------------------------
 O      0   0   0     0.000000000000     0.00000000     0.00000000
 O      1   0   0    14.462862365212     0.00000000     0.00000000
 O      1   2   0     8.467459597376    51.40402777     0.00000000
 O      2   1   3     8.544467353943    75.86213025    56.36945114
 N      3   1   2     4.322929080381    63.16296838   340.15019362
 N      4   2   1     4.286145131184    62.50267455    33.51996506
 N      3   1   2     4.315535307785    11.30480186   263.20710327
 N      2   1   3     4.286734382432    71.59245145    52.19445505
 C      7   3   5     4.482866454112   118.90826307   347.22139722
 C      2   1   3     4.458604736192    33.95905691   120.23036179
 C      5   3   1     2.752002311072   139.69036690   317.39615693
 C      6   4   2     2.720632901111   152.27229547   343.60897384
 C      9   7   3     2.727127256339   148.83404373   250.14749752
 C     10   2   1     2.758455293176    93.46683638    86.68892341
 C      1   2   3     2.294808737152    27.75552850   318.41585278
 C      2   1   3     2.301992917174    47.27657060    77.19654503
 C      3   1   2     2.278519438526    34.94810422   329.23138134
 C      4   2   1     2.286227824358    32.47132888    27.80497417
 H     11   5   3     2.082389171969   106.99225493   321.24765978
 H     12   6   4     2.064965996870   109.50797500   148.46366475
 H     13   9   7     2.051694564069   111.43332592   317.95771837
 H     13   9   7     2.106828875527   111.06567734    79.18769563
 H     13   9   7     2.072973337977   111.40286705   192.82692031
 H     14  10   2     2.063562786279   112.24208155   148.04680686
 H     14  10   2     2.101229685827   111.81692036   265.72688947
 H     14  10   2     2.052386627679   110.62337108    23.34862041
 H      5   3   1     1.906507433912    89.57185114   179.00748707
 H      6   4   2     1.897393121475    87.56747657   176.04468529
 H      7   3  17     1.906470044001    86.80404690   182.96391734
 H      8   2   1     1.903999571472    88.55243998   212.33269018

---------------------
BASIS SET INFORMATION
---------------------
There are 4 groups of distinct atoms

 Group   1 Type O   : 12s7p3d1f contracted to 6s4p3d1f pattern {621111/4111/111/1}
 Group   2 Type N   : 12s6p3d1f contracted to 6s3p3d1f pattern {621111/411/111/1}
 Group   3 Type C   : 12s6p3d1f contracted to 6s3p3d1f pattern {621111/411/111/1}
 Group   4 Type H   : 5s3p1d contracted to 3s3p1d pattern {311/111/1}

Atom   0O    basis set group =>   1
Atom   1O    basis set group =>   1
Atom   2O    basis set group =>   1
Atom   3O    basis set group =>   1
Atom   4N    basis set group =>   2
Atom   5N    basis set group =>   2
Atom   6N    basis set group =>   2
Atom   7N    basis set group =>   2
Atom   8C    basis set group =>   3
Atom   9C    basis set group =>   3
Atom  10C    basis set group =>   3
Atom  11C    basis set group =>   3
Atom  12C    basis set group =>   3
Atom  13C    basis set group =>   3
Atom  14C    basis set group =>   3
Atom  15C    basis set group =>   3
Atom  16C    basis set group =>   3
Atom  17C    basis set group =>   3
Atom  18H    basis set group =>   4
Atom  19H    basis set group =>   4
Atom  20H    basis set group =>   4
Atom  21H    basis set group =>   4
Atom  22H    basis set group =>   4
Atom  23H    basis set group =>   4
Atom  24H    basis set group =>   4
Atom  25H    basis set group =>   4
Atom  26H    basis set group =>   4
Atom  27H    basis set group =>   4
Atom  28H    basis set group =>   4
Atom  29H    basis set group =>   4
---------------------------------
AUXILIARY/J BASIS SET INFORMATION
---------------------------------
There are 4 groups of distinct atoms

 Group   1 Type O   : 12s5p4d2f1g contracted to 6s4p3d1f1g pattern {711111/2111/211/2/1}
 Group   2 Type N   : 12s5p4d2f1g contracted to 6s4p3d1f1g pattern {711111/2111/211/2/1}
 Group   3 Type C   : 12s5p4d2f1g contracted to 6s4p3d1f1g pattern {711111/2111/211/2/1}
 Group   4 Type H   : 5s2p1d contracted to 3s1p1d pattern {311/2/1}

Atom   0O    basis set group =>   1
Atom   1O    basis set group =>   1
Atom   2O    basis set group =>   1
Atom   3O    basis set group =>   1
Atom   4N    basis set group =>   2
Atom   5N    basis set group =>   2
Atom   6N    basis set group =>   2
Atom   7N    basis set group =>   2
Atom   8C    basis set group =>   3
Atom   9C    basis set group =>   3
Atom  10C    basis set group =>   3
Atom  11C    basis set group =>   3
Atom  12C    basis set group =>   3
Atom  13C    basis set group =>   3
Atom  14C    basis set group =>   3
Atom  15C    basis set group =>   3
Atom  16C    basis set group =>   3
Atom  17C    basis set group =>   3
Atom  18H    basis set group =>   4
Atom  19H    basis set group =>   4
Atom  20H    basis set group =>   4
Atom  21H    basis set group =>   4
Atom  22H    basis set group =>   4
Atom  23H    basis set group =>   4
Atom  24H    basis set group =>   4
Atom  25H    basis set group =>   4
Atom  26H    basis set group =>   4
Atom  27H    basis set group =>   4
Atom  28H    basis set group =>   4
Atom  29H    basis set group =>   4
[1738788038.341721] [ohm:2918669:0]        ib_iface.c:1059 UCX  ERROR ibv_create_cq(cqe=256) failed: Connection timed out
[1738788038.364068] [ohm:2918672:0]        ib_iface.c:1059 UCX  ERROR ibv_create_cq(cqe=256) failed: Connection timed out
[1738788038.372146] [ohm:2918667:0]        ib_iface.c:1059 UCX  ERROR ibv_create_cq(cqe=256) failed: Connection timed out
[1738788038.406439] [ohm:2918675:0]        ib_iface.c:1059 UCX  ERROR ibv_create_cq(cqe=256) failed: Connection timed out
[1738788038.411718] [ohm:2918668:0]        ib_iface.c:1059 UCX  ERROR ibv_create_cq(cqe=256) failed: Connection timed out
[1738788038.413835] [ohm:2918673:0]        ib_iface.c:1059 UCX  ERROR ibv_create_cq(cqe=256) failed: Connection timed out
[1738788038.424292] [ohm:2918761:0]        ib_iface.c:1059 UCX  ERROR ibv_create_cq(cqe=256) failed: Connection timed out
[1738788038.428172] [ohm:2918692:0]        ib_iface.c:1059 UCX  ERROR ibv_create_cq(cqe=256) failed: Connection timed out
[1738788038.431447] [ohm:2918687:0]        ib_iface.c:1059 UCX  ERROR ibv_create_cq(cqe=256) failed: Connection timed out
[1738788038.431527] [ohm:2918682:0]        ib_iface.c:1059 UCX  ERROR ibv_create_cq(cqe=256) failed: Connection timed out
[1738788038.438293] [ohm:2918725:0]        ib_iface.c:1059 UCX  ERROR ibv_create_cq(cqe=256) failed: Connection timed out
[1738788038.447770] [ohm:2918783:0]        ib_iface.c:1059 UCX  ERROR ibv_create_cq(cqe=256) failed: Connection timed out
[1738788038.451803] [ohm:2918781:0]        ib_iface.c:1059 UCX  ERROR ibv_create_cq(cqe=256) failed: Connection timed out
[1738788038.456188] [ohm:2918762:0]        ib_iface.c:1059 UCX  ERROR ibv_create_cq(cqe=256) failed: Connection timed out
[1738788038.461952] [ohm:2918693:0]        ib_iface.c:1059 UCX  ERROR ibv_create_cq(cqe=256) failed: Connection timed out
[1738788038.462892] [ohm:2918752:0]        ib_iface.c:1059 UCX  ERROR ibv_create_cq(cqe=256) failed: Connection timed out
[1738788038.464051] [ohm:2918695:0]        ib_iface.c:1059 UCX  ERROR ibv_create_cq(cqe=256) failed: Connection timed out
[1738788038.467819] [ohm:2918688:0]        ib_iface.c:1059 UCX  ERROR ibv_create_cq(cqe=256) failed: Connection timed out
[1738788038.471347] [ohm:2918801:0]        ib_iface.c:1059 UCX  ERROR ibv_create_cq(cqe=256) failed: Connection timed out
[1738788038.485265] [ohm:2918814:0]        ib_iface.c:1059 UCX  ERROR ibv_create_cq(cqe=256) failed: Connection timed out
[1738788038.520535] [ohm:2918685:0]        ib_iface.c:1059 UCX  ERROR ibv_create_cq(cqe=256) failed: Connection timed out
[1738788038.546173] [ohm:2918716:0]        ib_iface.c:1059 UCX  ERROR ibv_create_cq(cqe=256) failed: Connection timed out
[1738788038.552277] [ohm:2918794:0]        ib_iface.c:1059 UCX  ERROR ibv_create_cq(cqe=256) failed: Connection timed out
[1738788038.555802] [ohm:2918733:0]        ib_iface.c:1059 UCX  ERROR ibv_create_cq(cqe=256) failed: Connection timed out
[1738788038.563706] [ohm:2918806:0]        ib_iface.c:1059 UCX  ERROR ibv_create_cq(cqe=256) failed: Connection timed out
[1738788038.566717] [ohm:2918684:0]        ib_iface.c:1059 UCX  ERROR ibv_create_cq(cqe=256) failed: Connection timed out
[1738788038.567958] [ohm:2918708:0]        ib_iface.c:1059 UCX  ERROR ibv_create_cq(cqe=256) failed: Connection timed out
[1738788038.569273] [ohm:2918713:0]        ib_iface.c:1059 UCX  ERROR ibv_create_cq(cqe=256) failed: Connection timed out
[1738788038.570903] [ohm:2918803:0]        ib_iface.c:1059 UCX  ERROR ibv_create_cq(cqe=256) failed: Connection timed out
[1738788038.574172] [ohm:2918679:0]        ib_iface.c:1059 UCX  ERROR ibv_create_cq(cqe=256) failed: Connection timed out
[1738788038.576943] [ohm:2918817:0]        ib_iface.c:1059 UCX  ERROR ibv_create_cq(cqe=256) failed: Connection timed out
[1738788038.577494] [ohm:2918683:0]        ib_iface.c:1059 UCX  ERROR ibv_create_cq(cqe=256) failed: Connection timed out
[1738788038.579403] [ohm:2918771:0]        ib_iface.c:1059 UCX  ERROR ibv_create_cq(cqe=256) failed: Connection timed out
[1738788038.580988] [ohm:2918790:0]        ib_iface.c:1059 UCX  ERROR ibv_create_cq(cqe=256) failed: Connection timed out
[1738788038.581114] [ohm:2918676:0]        ib_iface.c:1059 UCX  ERROR ibv_create_cq(cqe=256) failed: Connection timed out
[1738788038.581360] [ohm:2918766:0]        ib_iface.c:1059 UCX  ERROR ibv_create_cq(cqe=256) failed: Connection timed out
[1738788038.586436] [ohm:2918765:0]        ib_iface.c:1059 UCX  ERROR ibv_create_cq(cqe=256) failed: Connection timed out
[1738788038.603033] [ohm:2918686:0]        ib_iface.c:1059 UCX  ERROR ibv_create_cq(cqe=256) failed: Connection timed out
[1738788038.623426] [ohm:2918742:0]        ib_iface.c:1059 UCX  ERROR ibv_create_cq(cqe=256) failed: Connection timed out
[1738788038.623579] [ohm:2918773:0]        ib_iface.c:1059 UCX  ERROR ibv_create_cq(cqe=256) failed: Connection timed out
[1738788038.625417] [ohm:2918671:0]        ib_iface.c:1059 UCX  ERROR ibv_create_cq(cqe=256) failed: Connection timed out
[1738788038.630497] [ohm:2918674:0]        ib_iface.c:1059 UCX  ERROR ibv_create_cq(cqe=256) failed: Connection timed out
[1738788038.634448] [ohm:2918700:0]        ib_iface.c:1059 UCX  ERROR ibv_create_cq(cqe=256) failed: Connection timed out
[1738788038.638019] [ohm:2918731:0]        ib_iface.c:1059 UCX  ERROR ibv_create_cq(cqe=256) failed: Connection timed out
[1738788038.639614] [ohm:2918758:0]        ib_iface.c:1059 UCX  ERROR ibv_create_cq(cqe=256) failed: Connection timed out
[1738788038.640368] [ohm:2918705:0]        ib_iface.c:1059 UCX  ERROR ibv_create_cq(cqe=256) failed: Connection timed out
[1738788038.648529] [ohm:2918670:0]        ib_iface.c:1059 UCX  ERROR ibv_create_cq(cqe=256) failed: Connection timed out
[1738788038.651035] [ohm:2918746:0]        ib_iface.c:1059 UCX  ERROR ibv_create_cq(cqe=256) failed: Connection timed out
[1738788038.659513] [ohm:2918691:0]        ib_iface.c:1059 UCX  ERROR ibv_create_cq(cqe=256) failed: Connection timed out
[1738788038.662507] [ohm:2918740:0]        ib_iface.c:1059 UCX  ERROR ibv_create_cq(cqe=256) failed: Connection timed out
[1738788038.666910] [ohm:2918787:0]        ib_iface.c:1059 UCX  ERROR ibv_create_cq(cqe=256) failed: Connection timed out
[1738788038.667826] [ohm:2918809:0]        ib_iface.c:1059 UCX  ERROR ibv_create_cq(cqe=256) failed: Connection timed out
[1738788038.671159] [ohm:2918690:0]        ib_iface.c:1059 UCX  ERROR ibv_create_cq(cqe=256) failed: Connection timed out
[1738788038.672218] [ohm:2918778:0]        ib_iface.c:1059 UCX  ERROR ibv_create_cq(cqe=256) failed: Connection timed out
[1738788038.675730] [ohm:2918696:0]        ib_iface.c:1059 UCX  ERROR ibv_create_cq(cqe=256) failed: Connection timed out
[1738788038.675770] [ohm:2918681:0]        ib_iface.c:1059 UCX  ERROR ibv_create_cq(cqe=256) failed: Connection timed out
[1738788038.675805] [ohm:2918689:0]        ib_iface.c:1059 UCX  ERROR ibv_create_cq(cqe=256) failed: Connection timed out
[1738788038.678317] [ohm:2918719:0]        ib_iface.c:1059 UCX  ERROR ibv_create_cq(cqe=256) failed: Connection timed out
[1738788038.679548] [ohm:2918680:0]        ib_iface.c:1059 UCX  ERROR ibv_create_cq(cqe=256) failed: Connection timed out
[1738788038.682061] [ohm:2918798:0]        ib_iface.c:1059 UCX  ERROR ibv_create_cq(cqe=256) failed: Connection timed out
[1738788038.682047] [ohm:2918678:0]        ib_iface.c:1059 UCX  ERROR ibv_create_cq(cqe=256) failed: Connection timed out
[1738788038.682437] [ohm:2918723:0]        ib_iface.c:1059 UCX  ERROR ibv_create_cq(cqe=256) failed: Connection timed out
[1738788038.685463] [ohm:2918677:0]        ib_iface.c:1059 UCX  ERROR ibv_create_cq(cqe=256) failed: Connection timed out
[1738788038.688571] [ohm:2918755:0]        ib_iface.c:1059 UCX  ERROR ibv_create_cq(cqe=256) failed: Connection timed out


           ************************************************************
           *        Program running with 64 parallel MPI-processes    *
           *              working on a common directory               *
           ************************************************************
------------------------------------------------------------------------------
                             ORCA STARTUP CALCULATIONS
                           -- RI-GTO INTEGRALS CHOSEN --
------------------------------------------------------------------------------
------------------------------------------------------------------------------
                   ___                                                        
                  /   \      - P O W E R E D   B Y -                         
                 /     \                                                     
                 |  |  |   _    _      __       _____    __    __             
                 |  |  |  | |  | |    /  \     |  _  \  |  |  /  |          
                  \  \/   | |  | |   /    \    | | | |  |  | /  /          
                 / \  \   | |__| |  /  /\  \   | |_| |  |  |/  /          
                |  |  |   |  __  | /  /__\  \  |    /   |      \           
                |  |  |   | |  | | |   __   |  |    \   |  |\   \          
                \     /   | |  | | |  |  |  |  | |\  \  |  | \   \       
                 \___/    |_|  |_| |__|  |__|  |_| \__\ |__|  \__/        
                                                                              
                      - O R C A' S   B I G   F R I E N D -                    
                                      &                                       
                       - I N T E G R A L  F E E D E R -                       
                                                                              
 v1 FN, 2020, v2 2021, v3 2022-2024                                           
------------------------------------------------------------------------------


----------------------
SHARK INTEGRAL PACKAGE
----------------------

Number of atoms                             ...     30
Number of basis functions                   ...    882
Number of shells                            ...    322
Maximum angular momentum                    ...      3
Integral batch strategy                     ... SHARK/LIBINT Hybrid
RI-J (if used) integral strategy            ... SPLIT-RIJ (Revised 2003 algorithm where possible)
Printlevel                                  ...      1
Contraction scheme used                     ... SEGMENTED contraction
Prescreening option                         ... SCHWARTZ
   Thresh                                   ... 2.500e-11
   Tcut                                     ... 2.500e-12
   Tpresel                                  ... 2.500e-12 
Coulomb Range Separation                    ... NOT USED
Exchange Range Separation                   ... Long Range
   Mu parameter                             ... 3.000e-01
   Scaling (regular/separated)              ... 1.500e-01 8.500e-01
Multipole approximations                    ... NOT USED
Finite Nucleus Model                        ... NOT USED
CABS basis                                  ... NOT available
Auxiliary Coulomb fitting basis             ... AVAILABLE
   # of basis functions in Aux-J            ...   1014
   # of shells in Aux-J                     ...    330
   Maximum angular momentum in Aux-J        ...      4
Auxiliary J/K fitting basis                 ... NOT available
Auxiliary Correlation fitting basis         ... NOT available
Auxiliary 'external' fitting basis          ... NOT available

Checking pre-screening integrals            ... done (  0.0 sec) Dimension = 322
Check shell pair data                       ... done (  0.0 sec)
Shell pair information
Shell pair cut-off parameter TPreSel        ...   2.5e-12
Total number of shell pairs                 ...     52003
Shell pairs after pre-screening             ...     43821
Total number of primitive shell pairs       ...    129718
Primitive shell pairs kept                  ...     81623
          la=0 lb=0:   8518 shell pairs
          la=1 lb=0:  11654 shell pairs
          la=1 lb=1:   4028 shell pairs
          la=2 lb=0:   7885 shell pairs
          la=2 lb=1:   5454 shell pairs
          la=2 lb=2:   1871 shell pairs
          la=3 lb=0:   1958 shell pairs
          la=3 lb=1:   1389 shell pairs
          la=3 lb=2:    942 shell pairs
          la=3 lb=3:    122 shell pairs

Calculating one electron integrals          ... done (  0.2 sec)
Calculating RI/J V-Matrix + Cholesky decomp.... done (  0.1 sec)
Calculating Nuclear repulsion               ... done (  0.0 sec) ENN=   1383.850404557416 Eh

Diagonalization of the overlap matrix:
Smallest eigenvalue                        ... 6.182e-07
Time for diagonalization                   ...    0.128 sec
Threshold for overlap eigenvalues          ... 1.000e-07
Number of eigenvalues below threshold      ... 0

IMPORTANT:
Smallest eigenvalue of S below the DiffSThresh (1.000e-06) while
Thresh>1e-12 and/or TCut>1e-13! In order to avoid SCF convergence issues,
Thresh will be set to at least 1e-12 and TCut to at least 1e-13.
This can be turned off by adding %SCF DiffSThresh -1 END to the input.

Time for construction of square roots      ...    0.130 sec
Total time needed                          ...    0.270 sec

-------------------
DFT GRID GENERATION
-------------------

General Integration Accuracy     IntAcc      ... 4.388
Radial Grid Type                 RadialGrid  ... OptM3 with GC (2021)
Angular Grid (max. ang.)         AngularGrid ... 4 (Lebedev-302)
Angular grid pruning method      GridPruning ... 4 (adaptive)
Weight generation scheme         WeightScheme... mBecke (2022)
Basis function cutoff            BFCut       ... 1.0000e-11
Integration weight cutoff        WCut        ... 1.0000e-14
Partially contracted basis set               ... off
Rotationally invariant grid construction     ... off
Angular grids for H and He will be reduced by one unit
Diffuse basis detected: some atoms will have their outermost
                        angular grid increased by 1.

Total number of grid points                  ...   152188
Total number of batches                      ...     2391
Average number of points per batch           ...       63
Average number of grid points per atom       ...     5073

--------------------
COSX GRID GENERATION
--------------------

GRIDX 1
-------
General Integration Accuracy     IntAcc      ... 3.816
Radial Grid Type                 RadialGrid  ... OptM3 with GC (2021)
Angular Grid (max. ang.)         AngularGrid ... 1 (Lebedev-50)
Angular grid pruning method      GridPruning ... 4 (adaptive)
Weight generation scheme         WeightScheme... mBecke (2022)
Basis function cutoff            BFCut       ... 1.0000e-11
Integration weight cutoff        WCut        ... 1.0000e-14
Partially contracted basis set               ... on
Rotationally invariant grid construction     ... off
Angular grids for H and He will be reduced by one unit
Diffuse basis detected: some atoms will have their outermost
                        angular grid increased by 1.

Total number of grid points                  ...    19062
Total number of batches                      ...      167
Average number of points per batch           ...      114
Average number of grid points per atom       ...      635
UseSFitting                                  ... on

GRIDX 2
-------
General Integration Accuracy     IntAcc      ... 4.020
Radial Grid Type                 RadialGrid  ... OptM3 with GC (2021)
Angular Grid (max. ang.)         AngularGrid ... 2 (Lebedev-110)
Angular grid pruning method      GridPruning ... 4 (adaptive)
Weight generation scheme         WeightScheme... mBecke (2022)
Basis function cutoff            BFCut       ... 1.0000e-11
Integration weight cutoff        WCut        ... 1.0000e-14
Partially contracted basis set               ... on
Rotationally invariant grid construction     ... off
Angular grids for H and He will be reduced by one unit
Diffuse basis detected: some atoms will have their outermost
                        angular grid increased by 1.

Total number of grid points                  ...    46148
Total number of batches                      ...      378
Average number of points per batch           ...      122
Average number of grid points per atom       ...     1538
UseSFitting                                  ... on

GRIDX 3
-------
General Integration Accuracy     IntAcc      ... 4.338
Radial Grid Type                 RadialGrid  ... OptM3 with GC (2021)
Angular Grid (max. ang.)         AngularGrid ... 3 (Lebedev-194)
Angular grid pruning method      GridPruning ... 4 (adaptive)
Weight generation scheme         WeightScheme... mBecke (2022)
Basis function cutoff            BFCut       ... 1.0000e-11
Integration weight cutoff        WCut        ... 1.0000e-14
Partially contracted basis set               ... on
Rotationally invariant grid construction     ... off
Angular grids for H and He will be reduced by one unit
Diffuse basis detected: some atoms will have their outermost
                        angular grid increased by 1.

Total number of grid points                  ...   101555
Total number of batches                      ...      811
Average number of points per batch           ...      125
Average number of grid points per atom       ...     3385
UseSFitting                                  ... on
Initializing property integral containers    ... done (  0.0 sec)

SHARK setup successfully completed in   4.1 seconds

Maximum memory used throughout the entire STARTUP-calculation: 78.6 MB
[1738788044.601133] [ohm:2919000:0]        ib_iface.c:1059 UCX  ERROR ibv_create_cq(cqe=256) failed: Connection timed out
[1738788044.601791] [ohm:2918999:0]        ib_iface.c:1059 UCX  ERROR ibv_create_cq(cqe=256) failed: Connection timed out
[1738788044.612875] [ohm:2919001:0]        ib_iface.c:1059 UCX  ERROR ibv_create_cq(cqe=256) failed: Connection timed out
[1738788044.679317] [ohm:2919007:0]        ib_iface.c:1059 UCX  ERROR ibv_create_cq(cqe=256) failed: Connection timed out
[1738788044.687544] [ohm:2918997:0]        ib_iface.c:1059 UCX  ERROR ibv_create_cq(cqe=256) failed: Connection timed out
[1738788044.706136] [ohm:2919011:0]        ib_iface.c:1059 UCX  ERROR ibv_create_cq(cqe=256) failed: Connection timed out
[1738788044.715411] [ohm:2919027:0]        ib_iface.c:1059 UCX  ERROR ibv_create_cq(cqe=256) failed: Connection timed out
[1738788044.720607] [ohm:2919005:0]        ib_iface.c:1059 UCX  ERROR ibv_create_cq(cqe=256) failed: Connection timed out
[1738788044.747685] [ohm:2919003:0]        ib_iface.c:1059 UCX  ERROR ibv_create_cq(cqe=256) failed: Connection timed out
[1738788044.748450] [ohm:2919040:0]        ib_iface.c:1059 UCX  ERROR ibv_create_cq(cqe=256) failed: Connection timed out
[1738788044.756252] [ohm:2919006:0]        ib_iface.c:1059 UCX  ERROR ibv_create_cq(cqe=256) failed: Connection timed out
[1738788044.763407] [ohm:2919002:0]        ib_iface.c:1059 UCX  ERROR ibv_create_cq(cqe=256) failed: Connection timed out
[1738788044.776441] [ohm:2919035:0]        ib_iface.c:1059 UCX  ERROR ibv_create_cq(cqe=256) failed: Connection timed out
[1738788044.779019] [ohm:2919067:0]        ib_iface.c:1059 UCX  ERROR ibv_create_cq(cqe=256) failed: Connection timed out
[1738788044.785309] [ohm:2919004:0]        ib_iface.c:1059 UCX  ERROR ibv_create_cq(cqe=256) failed: Connection timed out
[1738788044.788035] [ohm:2919055:0]        ib_iface.c:1059 UCX  ERROR ibv_create_cq(cqe=256) failed: Connection timed out
[1738788044.790611] [ohm:2919029:0]        ib_iface.c:1059 UCX  ERROR ibv_create_cq(cqe=256) failed: Connection timed out
[1738788044.794179] [ohm:2919025:0]        ib_iface.c:1059 UCX  ERROR ibv_create_cq(cqe=256) failed: Connection timed out
[1738788044.797370] [ohm:2919033:0]        ib_iface.c:1059 UCX  ERROR ibv_create_cq(cqe=256) failed: Connection timed out
[1738788044.803563] [ohm:2919026:0]        ib_iface.c:1059 UCX  ERROR ibv_create_cq(cqe=256) failed: Connection timed out
[1738788044.806806] [ohm:2919010:0]        ib_iface.c:1059 UCX  ERROR ibv_create_cq(cqe=256) failed: Connection timed out
[1738788044.807485] [ohm:2919048:0]        ib_iface.c:1059 UCX  ERROR ibv_create_cq(cqe=256) failed: Connection timed out
[1738788044.817160] [ohm:2919024:0]        ib_iface.c:1059 UCX  ERROR ibv_create_cq(cqe=256) failed: Connection timed out
[1738788044.885902] [ohm:2919043:0]        ib_iface.c:1059 UCX  ERROR ibv_create_cq(cqe=256) failed: Connection timed out
[1738788044.888603] [ohm:2919064:0]        ib_iface.c:1059 UCX  ERROR ibv_create_cq(cqe=256) failed: Connection timed out
[1738788044.890262] [ohm:2919057:0]        ib_iface.c:1059 UCX  ERROR ibv_create_cq(cqe=256) failed: Connection timed out
[1738788044.893989] [ohm:2919008:0]        ib_iface.c:1059 UCX  ERROR ibv_create_cq(cqe=256) failed: Connection timed out
[1738788044.909348] [ohm:2919050:0]        ib_iface.c:1059 UCX  ERROR ibv_create_cq(cqe=256) failed: Connection timed out
[1738788044.911455] [ohm:2919045:0]        ib_iface.c:1059 UCX  ERROR ibv_create_cq(cqe=256) failed: Connection timed out
[1738788044.913439] [ohm:2919119:0]        ib_iface.c:1059 UCX  ERROR ibv_create_cq(cqe=256) failed: Connection timed out
[1738788044.915659] [ohm:2919060:0]        ib_iface.c:1059 UCX  ERROR ibv_create_cq(cqe=256) failed: Connection timed out
[1738788044.916255] [ohm:2919062:0]        ib_iface.c:1059 UCX  ERROR ibv_create_cq(cqe=256) failed: Connection timed out
[1738788044.918989] [ohm:2919056:0]        ib_iface.c:1059 UCX  ERROR ibv_create_cq(cqe=256) failed: Connection timed out
[1738788044.920327] [ohm:2919123:0]        ib_iface.c:1059 UCX  ERROR ibv_create_cq(cqe=256) failed: Connection timed out
[1738788044.926737] [ohm:2919061:0]        ib_iface.c:1059 UCX  ERROR ibv_create_cq(cqe=256) failed: Connection timed out
[1738788044.933363] [ohm:2919095:0]        ib_iface.c:1059 UCX  ERROR ibv_create_cq(cqe=256) failed: Connection timed out
[1738788044.934990] [ohm:2919063:0]        ib_iface.c:1059 UCX  ERROR ibv_create_cq(cqe=256) failed: Connection timed out
[1738788044.943652] [ohm:2919071:0]        ib_iface.c:1059 UCX  ERROR ibv_create_cq(cqe=256) failed: Connection timed out
[1738788044.949080] [ohm:2919068:0]        ib_iface.c:1059 UCX  ERROR ibv_create_cq(cqe=256) failed: Connection timed out
[1738788044.954960] [ohm:2919116:0]        ib_iface.c:1059 UCX  ERROR ibv_create_cq(cqe=256) failed: Connection timed out
[1738788044.955173] [ohm:2919146:0]        ib_iface.c:1059 UCX  ERROR ibv_create_cq(cqe=256) failed: Connection timed out
[1738788044.961083] [ohm:2918998:0]        ib_iface.c:1059 UCX  ERROR ibv_create_cq(cqe=256) failed: Connection timed out
[1738788044.961181] [ohm:2919009:0]        ib_iface.c:1059 UCX  ERROR ibv_create_cq(cqe=256) failed: Connection timed out
[1738788044.962443] [ohm:2919059:0]        ib_iface.c:1059 UCX  ERROR ibv_create_cq(cqe=256) failed: Connection timed out
[1738788044.967415] [ohm:2919054:0]        ib_iface.c:1059 UCX  ERROR ibv_create_cq(cqe=256) failed: Connection timed out
[1738788044.974511] [ohm:2919085:0]        ib_iface.c:1059 UCX  ERROR ibv_create_cq(cqe=256) failed: Connection timed out
[1738788044.982719] [ohm:2919102:0]        ib_iface.c:1059 UCX  ERROR ibv_create_cq(cqe=256) failed: Connection timed out
[1738788044.983673] [ohm:2919073:0]        ib_iface.c:1059 UCX  ERROR ibv_create_cq(cqe=256) failed: Connection timed out
[1738788044.983802] [ohm:2919141:0]        ib_iface.c:1059 UCX  ERROR ibv_create_cq(cqe=256) failed: Connection timed out
[1738788044.984653] [ohm:2919090:0]        ib_iface.c:1059 UCX  ERROR ibv_create_cq(cqe=256) failed: Connection timed out
[1738788044.987306] [ohm:2919103:0]        ib_iface.c:1059 UCX  ERROR ibv_create_cq(cqe=256) failed: Connection timed out
[1738788044.988068] [ohm:2919133:0]        ib_iface.c:1059 UCX  ERROR ibv_create_cq(cqe=256) failed: Connection timed out
[1738788044.991929] [ohm:2919128:0]        ib_iface.c:1059 UCX  ERROR ibv_create_cq(cqe=256) failed: Connection timed out
[1738788044.991953] [ohm:2919058:0]        ib_iface.c:1059 UCX  ERROR ibv_create_cq(cqe=256) failed: Connection timed out
[1738788044.992229] [ohm:2919088:0]        ib_iface.c:1059 UCX  ERROR ibv_create_cq(cqe=256) failed: Connection timed out
[1738788044.992234] [ohm:2919144:0]        ib_iface.c:1059 UCX  ERROR ibv_create_cq(cqe=256) failed: Connection timed out
[1738788044.992360] [ohm:2919080:0]        ib_iface.c:1059 UCX  ERROR ibv_create_cq(cqe=256) failed: Connection timed out
[1738788044.993090] [ohm:2919125:0]        ib_iface.c:1059 UCX  ERROR ibv_create_cq(cqe=256) failed: Connection timed out
[1738788044.993668] [ohm:2919075:0]        ib_iface.c:1059 UCX  ERROR ibv_create_cq(cqe=256) failed: Connection timed out
[1738788044.994582] [ohm:2919110:0]        ib_iface.c:1059 UCX  ERROR ibv_create_cq(cqe=256) failed: Connection timed out
[1738788044.994855] [ohm:2919138:0]        ib_iface.c:1059 UCX  ERROR ibv_create_cq(cqe=256) failed: Connection timed out
[1738788044.997057] [ohm:2919112:0]        ib_iface.c:1059 UCX  ERROR ibv_create_cq(cqe=256) failed: Connection timed out
[1738788044.997567] [ohm:2919094:0]        ib_iface.c:1059 UCX  ERROR ibv_create_cq(cqe=256) failed: Connection timed out
[1738788044.998731] [ohm:2919082:0]        ib_iface.c:1059 UCX  ERROR ibv_create_cq(cqe=256) failed: Connection timed out


           ************************************************************
           *        Program running with 64 parallel MPI-processes    *
           *              working on a common directory               *
           ************************************************************
-------------------------------------------------------------------------------
                                 ORCA GUESS
                   Start orbitals & Density for SCF / CASSCF
-------------------------------------------------------------------------------

------------
SCF SETTINGS
------------
Hamiltonian:
 Density Functional     Method          .... DFT(GTOs)
  Functional kind                       .... Exchange-Correlation
  Functional name                       .... wB97M-V exchange-correlation functional
  Functional family                     .... Hybrid MGGA
  Functional refs                              
    [ 0] N. Mardirossian and M. Head-Gordon.,  J. Chem. Phys. 144, 214110 (2016), doi: 10.1063/1.4952647
  Fraction of HF Exchange (short range) .... 0.1500
  Fraction of HF Exchange (long range)  .... 1.0000
  Range separation parameter mu         .... 0.3000
  Functional external parameters        .... 17
    Parameter  0 _cx00      =  8.500000e-01 : u^00 coefficient for exchange
    Parameter  1 _cx01      =  1.007000e+00 : u^01 coefficient for exchange
    Parameter  2 _cx10      =  2.590000e-01 : u^10 coefficient for exchange
    Parameter  3 _css00     =  4.430000e-01 : u^00 coefficient for same-spin correlation
    Parameter  4 _css04     = -1.437000e+00 : u^04 coefficient for same-spin correlation
    Parameter  5 _css10     = -4.535000e+00 : u^10 coefficient for same-spin correlation
    Parameter  6 _css20     = -3.390000e+00 : u^20 coefficient for same-spin correlation
    Parameter  7 _css43     =  4.278000e+00 : u^43 coefficient for same-spin correlation
    Parameter  8 _cos00     =  1.000000e+00 : u^00 coefficient for opposite-spin correlation
    Parameter  9 _cos10     =  1.358000e+00 : u^10 coefficient for opposite-spin correlation
    Parameter 10 _cos20     =  2.924000e+00 : u^20 coefficient for opposite-spin correlation
    Parameter 11 _cos21     = -8.812000e+00 : u^21 coefficient for opposite-spin correlation
    Parameter 12 _cos60     = -1.390000e+00 : u^60 coefficient for opposite-spin correlation
    Parameter 13 _cos61     =  9.142000e+00 : u^61 coefficient for opposite-spin correlation
    Parameter 14 _alpha     =  1.000000e+00 : fraction of HF exchange
    Parameter 15 _beta      = -8.500000e-01 : fraction of short-range exchange
    Parameter 16 _omega     =  3.000000e-01 : range-separation constant
 Long-range corrected/Screened/Range-Separated Hybrid DFT is turned on
   Amount of maximum screened exact exchange              ....  0.850000
   Range separation parameter mu (erf(mu*r12)/r12)        ....  0.300000
 RI-approximation to the Coulomb term is turned on
   Number of AuxJ basis functions       .... 1014
   RIJ-COSX (HFX calculated with COS-X)).... on


General Settings:
 Integral files         IntName         .... orca
 Hartree-Fock type      HFTyp           .... UHF
 Total Charge           Charge          ....    0
 Multiplicity           Mult            ....    3
 Number of Electrons    NEL             ....  132
 Basis Dimension        Dim             ....  882
 Nuclear Repulsion      ENuc            ....   1383.8504045574 Eh

Convergence Acceleration:
 AO-DIIS                CNVDIIS         .... on
   Start iteration      DIISMaxIt       ....    12
   Startup error        DIISStart       ....  0.200000
   # of expansion vecs  DIISMaxEq       ....     5
   Bias factor          DIISBfac        ....   1.050
   Max. coefficient     DIISMaxC        ....  10.000
 MO-DIIS                CNVKDIIS        .... off
 Trust-Rad. Augm. Hess. CNVTRAH         .... auto
   Auto Start mean grad. ratio tolernc. ....  1.125000
   Auto Start start iteration           ....    50
   Auto Start num. interpolation iter.  ....    10
   Max. Number of Micro iterations      ....    24
   Max. Number of Macro iterations      .... Maxiter - #DIIS iter
   Number of Davidson start vectors     ....     2
   Converg. threshold    (grad. norm)   ....   1.000e-05
   Grad. Scal. Fac. for Micro threshold ....   0.100
   Minimum threshold for Micro iter.    ....   1.000e-02
   NR start threshold (gradient norm)   ....   1.000e-04
   Initial trust radius                 ....   0.400
   Minimum AH scaling param. (alpha)    ....   1.000
   Maximum AH scaling param. (alpha)    .... 1000.000
   Quad. conv. algorithm                .... NR
   White noise on init. David. guess    .... on
   Maximum white noise                  ....   0.010
   Pseudo random numbers                .... off
   Inactive MOs                         .... canonical
   Orbital update algorithm             .... Taylor
   Preconditioner                       .... Diag
   Full preconditioner red. dimension   ....   250
 SOSCF                  CNVSOSCF        .... on
   Start iteration      SOSCFMaxIt      ....   150
   Startup grad/error   SOSCFStart      ....  0.003300
   Hessian update       SOSCFHessUp     .... L-BFGS
 Level Shifting         CNVShift        .... on
   Level shift para.    LevelShift      ....    0.2500
   Turn off err/grad.   ShiftErr        ....    0.0010
 Zerner damping         CNVZerner       .... off
 Static damping         CNVDamp         .... on
   Fraction old density DampFac         ....    0.7000
   Max. Damping (<1)    DampMax         ....    0.9800
   Min. Damping (>=0)   DampMin         ....    0.0000
   Turn off err/grad.   DampErr         ....    0.1000

SCF Procedure:
 Maximum # iterations   MaxIter         ....   125
 SCF integral mode      SCFMode         .... Direct
   Integral package                     .... SHARK and LIBINT hybrid scheme
 Reset frequency        DirectResetFreq ....    20
 Integral Threshold     Thresh          ....  1.000e-12 Eh
 Primitive CutOff       TCut            ....  1.000e-13 Eh

Convergence Tolerance:
 Convergence Check Mode ConvCheckMode   .... Total+1el-Energy
 Convergence forced     ConvForced      .... 1
 Energy Change          TolE            ....  1.000e-08 Eh
 1-El. energy change                    ....  1.000e-05 Eh
 Orbital Gradient       TolG            ....  1.000e-05
 Orbital Rotation angle TolX            ....  1.000e-05
 DIIS Error             TolErr          ....  5.000e-07

------------------------------
INITIAL GUESS: MODEL POTENTIAL
------------------------------
Loading Hartree-Fock densities                     ... done
Calculating cut-offs                               ... done
Initializing the effective Hamiltonian             ... done
Setting up the integral package (SHARK)            ... done
Starting the Coulomb interaction                   ... done (   0.1 sec)
Making the grid                                    ... done (   0.3 sec)
Mapping shells                                     ... done
Starting the XC term evaluation                    ... done (   0.1 sec)
  promolecular density results
     # of electrons  =    132.002846261
     EX              =   -113.559865167
     EC              =     -4.495670752
     EX+EC           =   -118.055535919
Transforming the Hamiltonian                       ... done (   0.1 sec)
Diagonalizing the Hamiltonian                      ... done (   0.1 sec)
Back transforming the eigenvectors                 ... done (   0.1 sec)
Now organizing SCF variables                       ... done
                      ------------------
                      INITIAL GUESS DONE (   1.1 sec)
                      ------------------
             **** ENERGY FILE WAS UPDATED (orca.en.tmp) ****
Finished Guess after   3.5 sec
Maximum memory used throughout the entire GUESS-calculation: 70.7 MB
[1738788048.712807] [ohm:2919334:0]        ib_iface.c:1059 UCX  ERROR ibv_create_cq(cqe=256) failed: Connection timed out
[1738788048.715775] [ohm:2919355:0]        ib_iface.c:1059 UCX  ERROR ibv_create_cq(cqe=256) failed: Connection timed out
[1738788048.726998] [ohm:2919338:0]        ib_iface.c:1059 UCX  ERROR ibv_create_cq(cqe=256) failed: Connection timed out
[1738788048.730113] [ohm:2919336:0]        ib_iface.c:1059 UCX  ERROR ibv_create_cq(cqe=256) failed: Connection timed out
[1738788048.789449] [ohm:2919342:0]        ib_iface.c:1059 UCX  ERROR ibv_create_cq(cqe=256) failed: Connection timed out
[1738788048.790975] [ohm:2919356:0]        ib_iface.c:1059 UCX  ERROR ibv_create_cq(cqe=256) failed: Connection timed out
[1738788048.797391] [ohm:2919378:0]        ib_iface.c:1059 UCX  ERROR ibv_create_cq(cqe=256) failed: Connection timed out
[1738788048.800070] [ohm:2919341:0]        ib_iface.c:1059 UCX  ERROR ibv_create_cq(cqe=256) failed: Connection timed out
[1738788048.800179] [ohm:2919346:0]        ib_iface.c:1059 UCX  ERROR ibv_create_cq(cqe=256) failed: Connection timed out
[1738788048.807085] [ohm:2919357:0]        ib_iface.c:1059 UCX  ERROR ibv_create_cq(cqe=256) failed: Connection timed out
[1738788048.811519] [ohm:2919335:0]        ib_iface.c:1059 UCX  ERROR ibv_create_cq(cqe=256) failed: Connection timed out
[1738788048.815564] [ohm:2919381:0]        ib_iface.c:1059 UCX  ERROR ibv_create_cq(cqe=256) failed: Connection timed out
[1738788048.830881] [ohm:2919352:0]        ib_iface.c:1059 UCX  ERROR ibv_create_cq(cqe=256) failed: Connection timed out
[1738788048.833674] [ohm:2919447:0]        ib_iface.c:1059 UCX  ERROR ibv_create_cq(cqe=256) failed: Connection timed out
[1738788048.851131] [ohm:2919444:0]        ib_iface.c:1059 UCX  ERROR ibv_create_cq(cqe=256) failed: Connection timed out
[1738788048.857152] [ohm:2919358:0]        ib_iface.c:1059 UCX  ERROR ibv_create_cq(cqe=256) failed: Connection timed out
[1738788048.863244] [ohm:2919460:0]        ib_iface.c:1059 UCX  ERROR ibv_create_cq(cqe=256) failed: Connection timed out
[1738788048.883525] [ohm:2919361:0]        ib_iface.c:1059 UCX  ERROR ibv_create_cq(cqe=256) failed: Connection timed out
[1738788048.895532] [ohm:2919349:0]        ib_iface.c:1059 UCX  ERROR ibv_create_cq(cqe=256) failed: Connection timed out
[1738788048.898005] [ohm:2919390:0]        ib_iface.c:1059 UCX  ERROR ibv_create_cq(cqe=256) failed: Connection timed out
[1738788048.898921] [ohm:2919455:0]        ib_iface.c:1059 UCX  ERROR ibv_create_cq(cqe=256) failed: Connection timed out
[1738788048.907944] [ohm:2919375:0]        ib_iface.c:1059 UCX  ERROR ibv_create_cq(cqe=256) failed: Connection timed out
[1738788048.912563] [ohm:2919397:0]        ib_iface.c:1059 UCX  ERROR ibv_create_cq(cqe=256) failed: Connection timed out
[1738788048.915860] [ohm:2919359:0]        ib_iface.c:1059 UCX  ERROR ibv_create_cq(cqe=256) failed: Connection timed out
[1738788048.940610] [ohm:2919388:0]        ib_iface.c:1059 UCX  ERROR ibv_create_cq(cqe=256) failed: Connection timed out
[1738788048.958501] [ohm:2919453:0]        ib_iface.c:1059 UCX  ERROR ibv_create_cq(cqe=256) failed: Connection timed out
[1738788048.962576] [ohm:2919385:0]        ib_iface.c:1059 UCX  ERROR ibv_create_cq(cqe=256) failed: Connection timed out
[1738788048.965072] [ohm:2919350:0]        ib_iface.c:1059 UCX  ERROR ibv_create_cq(cqe=256) failed: Connection timed out
[1738788048.966719] [ohm:2919441:0]        ib_iface.c:1059 UCX  ERROR ibv_create_cq(cqe=256) failed: Connection timed out
[1738788048.971861] [ohm:2919369:0]        ib_iface.c:1059 UCX  ERROR ibv_create_cq(cqe=256) failed: Connection timed out
[1738788048.979667] [ohm:2919486:0]        ib_iface.c:1059 UCX  ERROR ibv_create_cq(cqe=256) failed: Connection timed out
[1738788048.982074] [ohm:2919448:0]        ib_iface.c:1059 UCX  ERROR ibv_create_cq(cqe=256) failed: Connection timed out
[1738788048.987628] [ohm:2919404:0]        ib_iface.c:1059 UCX  ERROR ibv_create_cq(cqe=256) failed: Connection timed out
[1738788048.994403] [ohm:2919373:0]        ib_iface.c:1059 UCX  ERROR ibv_create_cq(cqe=256) failed: Connection timed out
[1738788049.003455] [ohm:2919348:0]        ib_iface.c:1059 UCX  ERROR ibv_create_cq(cqe=256) failed: Connection timed out
[1738788049.005029] [ohm:2919431:0]        ib_iface.c:1059 UCX  ERROR ibv_create_cq(cqe=256) failed: Connection timed out
[1738788049.010463] [ohm:2919343:0]        ib_iface.c:1059 UCX  ERROR ibv_create_cq(cqe=256) failed: Connection timed out
[1738788049.010520] [ohm:2919464:0]        ib_iface.c:1059 UCX  ERROR ibv_create_cq(cqe=256) failed: Connection timed out
[1738788049.011896] [ohm:2919436:0]        ib_iface.c:1059 UCX  ERROR ibv_create_cq(cqe=256) failed: Connection timed out
[1738788049.012750] [ohm:2919414:0]        ib_iface.c:1059 UCX  ERROR ibv_create_cq(cqe=256) failed: Connection timed out
[1738788049.012979] [ohm:2919474:0]        ib_iface.c:1059 UCX  ERROR ibv_create_cq(cqe=256) failed: Connection timed out
[1738788049.015270] [ohm:2919421:0]        ib_iface.c:1059 UCX  ERROR ibv_create_cq(cqe=256) failed: Connection timed out
[1738788049.015644] [ohm:2919411:0]        ib_iface.c:1059 UCX  ERROR ibv_create_cq(cqe=256) failed: Connection timed out
[1738788049.029731] [ohm:2919337:0]        ib_iface.c:1059 UCX  ERROR ibv_create_cq(cqe=256) failed: Connection timed out
[1738788049.034167] [ohm:2919417:0]        ib_iface.c:1059 UCX  ERROR ibv_create_cq(cqe=256) failed: Connection timed out
[1738788049.040289] [ohm:2919466:0]        ib_iface.c:1059 UCX  ERROR ibv_create_cq(cqe=256) failed: Connection timed out
[1738788049.043574] [ohm:2919339:0]        ib_iface.c:1059 UCX  ERROR ibv_create_cq(cqe=256) failed: Connection timed out
[1738788049.047665] [ohm:2919400:0]        ib_iface.c:1059 UCX  ERROR ibv_create_cq(cqe=256) failed: Connection timed out
[1738788049.049667] [ohm:2919393:0]        ib_iface.c:1059 UCX  ERROR ibv_create_cq(cqe=256) failed: Connection timed out
[1738788049.050007] [ohm:2919425:0]        ib_iface.c:1059 UCX  ERROR ibv_create_cq(cqe=256) failed: Connection timed out
[1738788049.057538] [ohm:2919340:0]        ib_iface.c:1059 UCX  ERROR ibv_create_cq(cqe=256) failed: Connection timed out
[1738788049.059022] [ohm:2919462:0]        ib_iface.c:1059 UCX  ERROR ibv_create_cq(cqe=256) failed: Connection timed out
[1738788049.059384] [ohm:2919354:0]        ib_iface.c:1059 UCX  ERROR ibv_create_cq(cqe=256) failed: Connection timed out
[1738788049.060121] [ohm:2919469:0]        ib_iface.c:1059 UCX  ERROR ibv_create_cq(cqe=256) failed: Connection timed out
[1738788049.062099] [ohm:2919367:0]        ib_iface.c:1059 UCX  ERROR ibv_create_cq(cqe=256) failed: Connection timed out
[1738788049.064827] [ohm:2919353:0]        ib_iface.c:1059 UCX  ERROR ibv_create_cq(cqe=256) failed: Connection timed out
[1738788049.065376] [ohm:2919422:0]        ib_iface.c:1059 UCX  ERROR ibv_create_cq(cqe=256) failed: Connection timed out
[1738788049.071759] [ohm:2919344:0]        ib_iface.c:1059 UCX  ERROR ibv_create_cq(cqe=256) failed: Connection timed out
[1738788049.071743] [ohm:2919362:0]        ib_iface.c:1059 UCX  ERROR ibv_create_cq(cqe=256) failed: Connection timed out
[1738788049.072883] [ohm:2919347:0]        ib_iface.c:1059 UCX  ERROR ibv_create_cq(cqe=256) failed: Connection timed out
[1738788049.073824] [ohm:2919481:0]        ib_iface.c:1059 UCX  ERROR ibv_create_cq(cqe=256) failed: Connection timed out
[1738788049.074644] [ohm:2919351:0]        ib_iface.c:1059 UCX  ERROR ibv_create_cq(cqe=256) failed: Connection timed out
[1738788049.074881] [ohm:2919345:0]        ib_iface.c:1059 UCX  ERROR ibv_create_cq(cqe=256) failed: Connection timed out
[1738788049.075844] [ohm:2919427:0]        ib_iface.c:1059 UCX  ERROR ibv_create_cq(cqe=256) failed: Connection timed out


           ************************************************************
           *        Program running with 64 parallel MPI-processes    *
           *              working on a common directory               *
           ************************************************************

-------------------------------------------------------------------------------------------
                                      ORCA LEAN-SCF
                              memory conserving SCF solver
-------------------------------------------------------------------------------------------

----------------------------------------D-I-I-S--------------------------------------------
Iteration    Energy (Eh)           Delta-E    RMSDP     MaxDP     DIISErr   Damp  Time(sec)
-------------------------------------------------------------------------------------------
               ***  Starting incremental Fock matrix formation  ***
    1    -908.1404691746549815     0.00e+00  1.61e-03  3.28e-01  1.47e-01  0.700   7.7
    2    -908.4054347791668533    -2.65e-01  1.31e-03  2.42e-01  6.90e-02  0.700   6.5
                               ***Turning on AO-DIIS***
    3    -908.5222393827496035    -1.17e-01  9.30e-04  1.63e-01  2.95e-02  0.700   5.7
    4    -908.5938822922137206    -7.16e-02  2.17e-03  3.45e-01  1.89e-02  0.000   5.6
    5    -908.7547310876464053    -1.61e-01  2.60e-04  6.30e-02  4.75e-03  0.000   5.7
                              *** Initializing SOSCF ***
---------------------------------------S-O-S-C-F--------------------------------------
Iteration    Energy (Eh)           Delta-E    RMSDP     MaxDP     MaxGrad    Time(sec)
--------------------------------------------------------------------------------------
    6    -908.7559454388094764    -1.21e-03  1.22e-04  3.08e-02  3.00e-03     6.4
               *** Restarting incremental Fock matrix formation ***
    7    -908.7564430270110734    -4.98e-04  5.47e-04  6.15e-02  2.55e-03     7.3
    8    -908.7567811983533375    -3.38e-04  4.36e-04  6.38e-02  1.31e-03     6.6
    9    -908.7568979283789758    -1.17e-04  3.77e-04  4.45e-02  1.10e-03     6.6
   10    -908.7569693186890163    -7.14e-05  2.49e-05  6.44e-03  3.48e-04     6.4
   11    -908.7569757639460022    -6.45e-06  1.65e-05  2.52e-03  1.57e-04     6.1
   12    -908.7569777989444901    -2.03e-06  7.56e-06  1.63e-03  1.37e-04     6.0
   13    -908.7569786895071502    -8.91e-07  5.98e-06  6.81e-04  2.64e-05     6.0
   14    -908.7569787425520644    -5.30e-08  1.40e-06  3.08e-04  1.59e-05     5.8
   15    -908.7569787729455584    -3.04e-08  2.30e-06  3.85e-04  6.19e-06     5.6
   16    -908.7569787799341157    -6.99e-09  1.28e-06  2.45e-04  3.96e-06     5.5
                 **** Energy Check signals convergence ****

               *****************************************************
               *                     SUCCESS                       *
               *           SCF CONVERGED AFTER  16 CYCLES          *
               *****************************************************

Recomputing exchange energy using gridx3       ... done (    7.720 sec)
Old exchange energy                            :    -35.041154394 Eh
New exchange energy                            :    -35.041166562 Eh
Exchange energy change after final integration :     -0.000012168 Eh
Total energy after final integration           :   -908.756990948 Eh
             **** ENERGY FILE WAS UPDATED (orca.en.tmp) ****

----------------
TOTAL SCF ENERGY
----------------

Total Energy       :       -908.75699094798642 Eh          -24728.53490 eV

Components:
Nuclear Repulsion  :       1383.85040455741569 Eh           37656.48393 eV
Electronic Energy  :      -2292.60738333735026 Eh          -62385.01849 eV
One Electron Energy:      -3984.11770358029298 Eh         -108413.35434 eV
Two Electron Energy:       1691.51032024294295 Eh           46028.33585 eV

Virial components:
Potential Energy   :      -1814.54104407148634 Eh          -49376.17205 eV
Kinetic Energy     :        905.78405312349992 Eh           24647.63715 eV
Virial Ratio       :          2.00328217063906

DFT components:
N(Alpha)           :       67.000118363321 electrons
N(Beta)            :       65.000107522341 electrons
N(Total)           :      132.000225885662 electrons
E(XC)              :      -86.266913259224 Eh       

---------------
SCF CONVERGENCE
---------------

  Last Energy change         ...    6.9886e-09  Tolerance :   1.0000e-08
  Last MAX-Density change    ...    2.4469e-04  Tolerance :   1.0000e-07
  Last RMS-Density change    ...    1.2791e-06  Tolerance :   5.0000e-09
  Last DIIS Error            ...    3.0013e-03  Tolerance :   5.0000e-07
  Last Orbital Gradient      ...    3.9585e-06  Tolerance :   1.0000e-05
  Last Orbital Rotation      ...    1.1665e-05  Tolerance :   1.0000e-05


----------------------
UHF SPIN CONTAMINATION
----------------------

Warning: in a DFT calculation there is little theoretical justification to 
         calculate <S**2> as in Hartree-Fock theory. We will do it anyways
         but you should keep in mind that the values have only limited relevance

Expectation value of <S**2>     :     2.014007
Ideal value S*(S+1) for S=1.0   :     2.000000
Deviation                       :     0.014007

----------------
ORBITAL ENERGIES
----------------
                 SPIN UP ORBITALS
  NO   OCC          E(Eh)            E(eV) 
   0   1.0000     -19.343743      -526.3700 
   1   1.0000     -19.338319      -526.2224 
   2   1.0000     -19.326054      -525.8887 
   3   1.0000     -19.322426      -525.7900 
   4   1.0000     -14.572108      -396.5272 
   5   1.0000     -14.571088      -396.4994 
   6   1.0000     -14.562405      -396.2632 
   7   1.0000     -14.559187      -396.1756 
   8   1.0000     -10.513736      -286.0933 
   9   1.0000     -10.504672      -285.8466 
  10   1.0000     -10.490795      -285.4691 
  11   1.0000     -10.483281      -285.2646 
  12   1.0000     -10.462486      -284.6987 
  13   1.0000     -10.450260      -284.3660 
  14   1.0000     -10.428760      -283.7810 
  15   1.0000     -10.418091      -283.4907 
  16   1.0000     -10.380719      -282.4737 
  17   1.0000     -10.378440      -282.4117 
  18   1.0000      -1.228459       -33.4281 
  19   1.0000      -1.220952       -33.2238 
  20   1.0000      -1.205791       -32.8112 
  21   1.0000      -1.200008       -32.6539 
  22   1.0000      -1.125096       -30.6154 
  23   1.0000      -1.106190       -30.1010 
  24   1.0000      -1.072982       -29.1973 
  25   1.0000      -1.057296       -28.7705 
  26   1.0000      -0.985432       -26.8150 
  27   1.0000      -0.964703       -26.2509 
  28   1.0000      -0.893764       -24.3206 
  29   1.0000      -0.849795       -23.1241 
  30   1.0000      -0.837962       -22.8021 
  31   1.0000      -0.797241       -21.6940 
  32   1.0000      -0.794523       -21.6201 
  33   1.0000      -0.783118       -21.3097 
  34   1.0000      -0.708089       -19.2681 
  35   1.0000      -0.701590       -19.0912 
  36   1.0000      -0.696424       -18.9507 
  37   1.0000      -0.674480       -18.3535 
  38   1.0000      -0.652228       -17.7480 
  39   1.0000      -0.636902       -17.3310 
  40   1.0000      -0.632713       -17.2170 
  41   1.0000      -0.610547       -16.6138 
  42   1.0000      -0.605153       -16.4671 
  43   1.0000      -0.588622       -16.0172 
  44   1.0000      -0.586305       -15.9542 
  45   1.0000      -0.577523       -15.7152 
  46   1.0000      -0.571688       -15.5564 
  47   1.0000      -0.569446       -15.4954 
  48   1.0000      -0.568590       -15.4721 
  49   1.0000      -0.559626       -15.2282 
  50   1.0000      -0.555486       -15.1155 
  51   1.0000      -0.546142       -14.8613 
  52   1.0000      -0.543653       -14.7935 
  53   1.0000      -0.524745       -14.2790 
  54   1.0000      -0.516290       -14.0490 
  55   1.0000      -0.512314       -13.9408 
  56   1.0000      -0.499305       -13.5868 
  57   1.0000      -0.430776       -11.7220 
  58   1.0000      -0.427708       -11.6385 
  59   1.0000      -0.414964       -11.2917 
  60   1.0000      -0.408154       -11.1064 
  61   1.0000      -0.402233       -10.9453 
  62   1.0000      -0.399954       -10.8833 
  63   1.0000      -0.391168       -10.6442 
  64   1.0000      -0.385935       -10.5018 
  65   1.0000      -0.348248        -9.4763 
  66   1.0000      -0.336420        -9.1545 
  67   0.0000       0.007215         0.1963 
  68   0.0000       0.027444         0.7468 
  69   0.0000       0.031892         0.8678 
  70   0.0000       0.033271         0.9054 
  71   0.0000       0.053771         1.4632 
  72   0.0000       0.056566         1.5392 
  73   0.0000       0.056787         1.5453 
  74   0.0000       0.060136         1.6364 
  75   0.0000       0.061966         1.6862 
  76   0.0000       0.067825         1.8456 
  77   0.0000       0.072581         1.9750 

                 SPIN DOWN ORBITALS
  NO   OCC          E(Eh)            E(eV) 
   0   1.0000     -19.339325      -526.2498 
   1   1.0000     -19.334133      -526.1085 
   2   1.0000     -19.325982      -525.8867 
   3   1.0000     -19.322230      -525.7846 
   4   1.0000     -14.571537      -396.5117 
   5   1.0000     -14.571031      -396.4979 
   6   1.0000     -14.562165      -396.2566 
   7   1.0000     -14.558280      -396.1509 
   8   1.0000     -10.513777      -286.0944 
   9   1.0000     -10.504688      -285.8471 
  10   1.0000     -10.491820      -285.4969 
  11   1.0000     -10.484226      -285.2903 
  12   1.0000     -10.463388      -284.7233 
  13   1.0000     -10.449356      -284.3414 
  14   1.0000     -10.417721      -283.4806 
  15   1.0000     -10.406430      -283.1734 
  16   1.0000     -10.381285      -282.4891 
  17   1.0000     -10.379042      -282.4281 
  18   1.0000      -1.226659       -33.3791 
  19   1.0000      -1.218988       -33.1704 
  20   1.0000      -1.200896       -32.6780 
  21   1.0000      -1.195243       -32.5242 
  22   1.0000      -1.122844       -30.5541 
  23   1.0000      -1.103657       -30.0320 
  24   1.0000      -1.071366       -29.1534 
  25   1.0000      -1.055637       -28.7253 
  26   1.0000      -0.971485       -26.4354 
  27   1.0000      -0.947113       -25.7722 
  28   1.0000      -0.890171       -24.2228 
  29   1.0000      -0.844587       -22.9824 
  30   1.0000      -0.828576       -22.5467 
  31   1.0000      -0.795357       -21.6428 
  32   1.0000      -0.789822       -21.4921 
  33   1.0000      -0.781496       -21.2656 
  34   1.0000      -0.703415       -19.1409 
  35   1.0000      -0.694598       -18.9010 
  36   1.0000      -0.691001       -18.8031 
  37   1.0000      -0.666464       -18.1354 
  38   1.0000      -0.644627       -17.5412 
  39   1.0000      -0.630394       -17.1539 
  40   1.0000      -0.625514       -17.0211 
  41   1.0000      -0.605057       -16.4644 
  42   1.0000      -0.599723       -16.3193 
  43   1.0000      -0.584106       -15.8943 
  44   1.0000      -0.578932       -15.7535 
  45   1.0000      -0.569556       -15.4984 
  46   1.0000      -0.566688       -15.4204 
  47   1.0000      -0.563456       -15.3324 
  48   1.0000      -0.561379       -15.2759 
  49   1.0000      -0.553237       -15.0543 
  50   1.0000      -0.542955       -14.7746 
  51   1.0000      -0.539962       -14.6931 
  52   1.0000      -0.533196       -14.5090 
  53   1.0000      -0.516327       -14.0500 
  54   1.0000      -0.509611       -13.8672 
  55   1.0000      -0.503172       -13.6920 
  56   1.0000      -0.494316       -13.4510 
  57   1.0000      -0.426938       -11.6176 
  58   1.0000      -0.423569       -11.5259 
  59   1.0000      -0.401877       -10.9356 
  60   1.0000      -0.399784       -10.8787 
  61   1.0000      -0.397292       -10.8109 
  62   1.0000      -0.396019       -10.7762 
  63   1.0000      -0.384872       -10.4729 
  64   1.0000      -0.381758       -10.3882 
  65   0.0000      -0.070387        -1.9153 
  66   0.0000      -0.050358        -1.3703 
  67   0.0000       0.006406         0.1743 
  68   0.0000       0.027216         0.7406 
  69   0.0000       0.031851         0.8667 
  70   0.0000       0.032975         0.8973 
  71   0.0000       0.053891         1.4665 
  72   0.0000       0.056607         1.5404 
  73   0.0000       0.057148         1.5551 
  74   0.0000       0.060101         1.6354 
  75   0.0000       0.068108         1.8533 
*Only the first 10 virtual orbitals were printed.

                    ********************************
                    * MULLIKEN POPULATION ANALYSIS *
                    ********************************

--------------------------------------------
MULLIKEN ATOMIC CHARGES AND SPIN POPULATIONS
--------------------------------------------
   0 O :   -0.624373    0.148119
   1 O :   -0.652722    0.161909
   2 O :   -0.625683    0.005332
   3 O :   -0.645711    0.002552
   4 N :   -0.196088    0.039828
   5 N :   -0.148066    0.013012
   6 N :   -0.036624    0.016590
   7 N :   -0.023360    0.025637
   8 C :    0.050154    0.390149
   9 C :    0.295347    0.411274
  10 C :    0.637577    0.157048
  11 C :    0.143371    0.119649
  12 C :   -1.234673    0.059411
  13 C :   -1.394455    0.011653
  14 C :    0.419340    0.113375
  15 C :    0.594630    0.144614
  16 C :    0.248904   -0.004104
  17 C :    0.478559   -0.004516
  18 H :    0.334748    0.047377
  19 H :    0.459043    0.019628
  20 H :    0.320350    0.015147
  21 H :    0.200098    0.044225
  22 H :    0.236078    0.004704
  23 H :    0.306286    0.003889
  24 H :    0.194259    0.041483
  25 H :    0.341748    0.017923
  26 H :    0.157796    0.000771
  27 H :    0.039976   -0.003320
  28 H :    0.091731   -0.001135
  29 H :    0.031762   -0.002228
Sum of atomic charges         :   -0.0000000
Sum of atomic spin populations:    2.0000000

-----------------------------------------------------
MULLIKEN REDUCED ORBITAL CHARGES AND SPIN POPULATIONS
-----------------------------------------------------
[...]
[1738788290.679919] [ohm:2920483:0]        ib_iface.c:1059 UCX  ERROR ibv_create_cq(cqe=256) failed: Connection timed out
[1738788290.682567] [ohm:2920435:0]        ib_iface.c:1059 UCX  ERROR ibv_create_cq(cqe=256) failed: Connection timed out
[1738788290.686151] [ohm:2920533:0]        ib_iface.c:1059 UCX  ERROR ibv_create_cq(cqe=256) failed: Connection timed out
[1738788290.690435] [ohm:2920565:0]        ib_iface.c:1059 UCX  ERROR ibv_create_cq(cqe=256) failed: Connection timed out
[1738788290.691073] [ohm:2920572:0]        ib_iface.c:1059 UCX  ERROR ibv_create_cq(cqe=256) failed: Connection timed out
[1738788290.691161] [ohm:2920545:0]        ib_iface.c:1059 UCX  ERROR ibv_create_cq(cqe=256) failed: Connection timed out
[1738788290.691188] [ohm:2920439:0]        ib_iface.c:1059 UCX  ERROR ibv_create_cq(cqe=256) failed: Connection timed out
[1738788290.693666] [ohm:2920527:0]        ib_iface.c:1059 UCX  ERROR ibv_create_cq(cqe=256) failed: Connection timed out
[1738788290.695377] [ohm:2920429:0]        ib_iface.c:1059 UCX  ERROR ibv_create_cq(cqe=256) failed: Connection timed out
[1738788290.695785] [ohm:2920424:0]        ib_iface.c:1059 UCX  ERROR ibv_create_cq(cqe=256) failed: Connection timed out


           ************************************************************
           *        Program running with 64 parallel MPI-processes    *
           *              working on a common directory               *
           ************************************************************

------------------------------------------------------------------------------
                              ORCA PROPERTY CALCULATIONS
------------------------------------------------------------------------------

GBWName                                 ... orca.gbw
Number of atoms                         ...     30
Number of basis functions               ...    882
Max core memory                         ...   1024 MB

Electric properties:
Dipole moment                           ... YES
Quadrupole moment                       ...  NO
Static polarizability (Dipole/Dipole)   ...  NO
Static polarizability (Dipole/Quad.)    ...  NO
Static polarizability (Quad./Quad.)     ...  NO
Static polarizability (Velocity)        ...  NO

Atomic electric properties:
Dipole moment                           ...  NO
Quadrupole moment                       ...  NO
Static polarizability                   ...  NO

Choice of electric origin               ... Center of mass
Position of electric origin             ...    -0.050727    -0.060782     0.308326

General magnetic properties:
Magnetizability                         ...  NO

EPR properties:
g-Tensor (aka g-matrix)                 ...  NO
Zero-Field splitting spin-orbit         ...  NO
Zero-field splitting spin-spin          ...  NO
Hyperfine couplings                     ...  NO (   0 nuclei)
Quadrupole couplings                    ...  NO (   0 nuclei)
Contact density                         ...  NO (   0 nuclei)

NMR properties:
Chemical shifts                         ...  NO (   0 nuclei)
Spin-rotation constants                 ...  NO (   0 nuclei)
Spin-spin couplings                     ...  NO (   0 nuclei,    0 pairs)

Choice of magnetic origin               ... GIAO
Position of magnetic origin             ...     0.000000     0.000000     0.000000

Properties with geometric perturbations:
SCF Hessian                             ...  NO
IR spectrum                             ...  NO
VCD spectrum                            ...  NO
X-ray spectroscopy properties:
SCF XES/XAS/RIXS spectra                ...  NO


-------------
DIPOLE MOMENT
-------------

Method             : SCF
Type of density    : Electron Density
Multiplicity       :   3
Irrep              :   0
Energy             :  -908.7569909479864236 Eh
Relativity type    : 
Basis              : AO
                                X                 Y                 Z
Electronic contribution:     -3.098031988     -10.124701157      -3.527437059
Nuclear contribution   :      2.989820221      11.752811113       5.129798714
                        -----------------------------------------
Total Dipole Moment    :     -0.108211767       1.628109956       1.602361655
                        -----------------------------------------
Magnitude (a.u.)       :      2.286922537
Magnitude (Debye)      :      5.812895130



--------------------
Rotational spectrum 
--------------------
 
Rotational constants in cm-1:             0.021884             0.010476             0.008624 
Rotational constants in MHz :           656.071454           314.054915           258.526214 

Dipole components along the rotational axes: 
x,y,z [a.u.] :     0.097001     1.788189     1.422317 
x,y,z [Debye]:     0.246558     4.545216     3.615241 

 

-------------
DIPOLE MOMENT
-------------

Method             : TDA/CIS
Type of density    : Electron Density
Level              : Relaxed density
State              :   1
Multiplicity       :   3
Irrep              :   0
Energy             :     0.0000000000000000 Eh
Relativity type    : 
Basis              : AO
                                X                 Y                 Z
Electronic contribution:     -2.949356558     -10.127060311      -3.419245695
Nuclear contribution   :      2.989820221      11.752811113       5.129798714
                        -----------------------------------------
Total Dipole Moment    :      0.040463663       1.625750802       1.710553019
                        -----------------------------------------
Magnitude (a.u.)       :      2.360231897
Magnitude (Debye)      :      5.999232716



--------------------
Rotational spectrum 
--------------------
 
Rotational constants in cm-1:             0.021884             0.010476             0.008624 
Rotational constants in MHz :           656.071454           314.054915           258.526214 

Dipole components along the rotational axes: 
x,y,z [a.u.] :    -0.068295     1.826635     1.493129 
x,y,z [Debye]:    -0.173592     4.642937     3.795233 

 

Dipole moment calculation done in   0.2 sec 

Maximum memory used throughout the entire PROP-calculation: 80.2 MB
[1738788293.257033] [ohm:2920757:0]        ib_iface.c:1059 UCX  ERROR ibv_create_cq(cqe=256) failed: Connection timed out
[1738788293.268400] [ohm:2920758:0]        ib_iface.c:1059 UCX  ERROR ibv_create_cq(cqe=256) failed: Connection timed out
[1738788293.288026] [ohm:2920765:0]        ib_iface.c:1059 UCX  ERROR ibv_create_cq(cqe=256) failed: Connection timed out
[1738788293.294979] [ohm:2920760:0]        ib_iface.c:1059 UCX  ERROR ibv_create_cq(cqe=256) failed: Connection timed out
[1738788293.297094] [ohm:2920763:0]        ib_iface.c:1059 UCX  ERROR ibv_create_cq(cqe=256) failed: Connection timed out
[1738788293.316883] [ohm:2920764:0]        ib_iface.c:1059 UCX  ERROR ibv_create_cq(cqe=256) failed: Connection timed out
[1738788293.319652] [ohm:2920767:0]        ib_iface.c:1059 UCX  ERROR ibv_create_cq(cqe=256) failed: Connection timed out
[1738788293.320800] [ohm:2920766:0]        ib_iface.c:1059 UCX  ERROR ibv_create_cq(cqe=256) failed: Connection timed out
[1738788293.324541] [ohm:2920768:0]        ib_iface.c:1059 UCX  ERROR ibv_create_cq(cqe=256) failed: Connection timed out
[1738788293.335438] [ohm:2920762:0]        ib_iface.c:1059 UCX  ERROR ibv_create_cq(cqe=256) failed: Connection timed out
[1738788293.341457] [ohm:2920759:0]        ib_iface.c:1059 UCX  ERROR ibv_create_cq(cqe=256) failed: Connection timed out
[1738788293.341602] [ohm:2920771:0]        ib_iface.c:1059 UCX  ERROR ibv_create_cq(cqe=256) failed: Connection timed out
[1738788293.342114] [ohm:2920776:0]        ib_iface.c:1059 UCX  ERROR ibv_create_cq(cqe=256) failed: Connection timed out
[1738788293.342248] [ohm:2920774:0]        ib_iface.c:1059 UCX  ERROR ibv_create_cq(cqe=256) failed: Connection timed out
[1738788293.365451] [ohm:2920761:0]        ib_iface.c:1059 UCX  ERROR ibv_create_cq(cqe=256) failed: Connection timed out
[1738788293.368485] [ohm:2920824:0]        ib_iface.c:1059 UCX  ERROR ibv_create_cq(cqe=256) failed: Connection timed out
[1738788293.370345] [ohm:2920769:0]        ib_iface.c:1059 UCX  ERROR ibv_create_cq(cqe=256) failed: Connection timed out
[1738788293.401519] [ohm:2920772:0]        ib_iface.c:1059 UCX  ERROR ibv_create_cq(cqe=256) failed: Connection timed out
[1738788293.413769] [ohm:2920798:0]        ib_iface.c:1059 UCX  ERROR ibv_create_cq(cqe=256) failed: Connection timed out
[1738788293.416945] [ohm:2920777:0]        ib_iface.c:1059 UCX  ERROR ibv_create_cq(cqe=256) failed: Connection timed out
[1738788293.417088] [ohm:2920810:0]        ib_iface.c:1059 UCX  ERROR ibv_create_cq(cqe=256) failed: Connection timed out
[1738788293.417339] [ohm:2920770:0]        ib_iface.c:1059 UCX  ERROR ibv_create_cq(cqe=256) failed: Connection timed out
[1738788293.433035] [ohm:2920832:0]        ib_iface.c:1059 UCX  ERROR ibv_create_cq(cqe=256) failed: Connection timed out
[1738788293.453568] [ohm:2920779:0]        ib_iface.c:1059 UCX  ERROR ibv_create_cq(cqe=256) failed: Connection timed out
[1738788293.465220] [ohm:2920781:0]        ib_iface.c:1059 UCX  ERROR ibv_create_cq(cqe=256) failed: Connection timed out
[1738788293.473708] [ohm:2920794:0]        ib_iface.c:1059 UCX  ERROR ibv_create_cq(cqe=256) failed: Connection timed out
[1738788293.485757] [ohm:2920865:0]        ib_iface.c:1059 UCX  ERROR ibv_create_cq(cqe=256) failed: Connection timed out
[1738788293.492096] [ohm:2920812:0]        ib_iface.c:1059 UCX  ERROR ibv_create_cq(cqe=256) failed: Connection timed out
[1738788293.498210] [ohm:2920817:0]        ib_iface.c:1059 UCX  ERROR ibv_create_cq(cqe=256) failed: Connection timed out
[1738788293.498366] [ohm:2920790:0]        ib_iface.c:1059 UCX  ERROR ibv_create_cq(cqe=256) failed: Connection timed out
[1738788293.498711] [ohm:2920806:0]        ib_iface.c:1059 UCX  ERROR ibv_create_cq(cqe=256) failed: Connection timed out
[1738788293.500323] [ohm:2920890:0]        ib_iface.c:1059 UCX  ERROR ibv_create_cq(cqe=256) failed: Connection timed out
[1738788293.510596] [ohm:2920773:0]        ib_iface.c:1059 UCX  ERROR ibv_create_cq(cqe=256) failed: Connection timed out
[1738788293.520549] [ohm:2920855:0]        ib_iface.c:1059 UCX  ERROR ibv_create_cq(cqe=256) failed: Connection timed out
[1738788293.520763] [ohm:2920838:0]        ib_iface.c:1059 UCX  ERROR ibv_create_cq(cqe=256) failed: Connection timed out
[1738788293.538846] [ohm:2920887:0]        ib_iface.c:1059 UCX  ERROR ibv_create_cq(cqe=256) failed: Connection timed out
[1738788293.539393] [ohm:2920897:0]        ib_iface.c:1059 UCX  ERROR ibv_create_cq(cqe=256) failed: Connection timed out
[1738788293.545091] [ohm:2920783:0]        ib_iface.c:1059 UCX  ERROR ibv_create_cq(cqe=256) failed: Connection timed out
[1738788293.546977] [ohm:2920842:0]        ib_iface.c:1059 UCX  ERROR ibv_create_cq(cqe=256) failed: Connection timed out
[1738788293.547543] [ohm:2920871:0]        ib_iface.c:1059 UCX  ERROR ibv_create_cq(cqe=256) failed: Connection timed out
[1738788293.548942] [ohm:2920889:0]        ib_iface.c:1059 UCX  ERROR ibv_create_cq(cqe=256) failed: Connection timed out
[1738788293.554691] [ohm:2920789:0]        ib_iface.c:1059 UCX  ERROR ibv_create_cq(cqe=256) failed: Connection timed out
[1738788293.558650] [ohm:2920856:0]        ib_iface.c:1059 UCX  ERROR ibv_create_cq(cqe=256) failed: Connection timed out
[1738788293.571395] [ohm:2920879:0]        ib_iface.c:1059 UCX  ERROR ibv_create_cq(cqe=256) failed: Connection timed out
[1738788293.571347] [ohm:2920894:0]        ib_iface.c:1059 UCX  ERROR ibv_create_cq(cqe=256) failed: Connection timed out
[1738788293.571795] [ohm:2920848:0]        ib_iface.c:1059 UCX  ERROR ibv_create_cq(cqe=256) failed: Connection timed out
[1738788293.572173] [ohm:2920834:0]        ib_iface.c:1059 UCX  ERROR ibv_create_cq(cqe=256) failed: Connection timed out
[1738788293.582834] [ohm:2920872:0]        ib_iface.c:1059 UCX  ERROR ibv_create_cq(cqe=256) failed: Connection timed out
[1738788293.584065] [ohm:2920881:0]        ib_iface.c:1059 UCX  ERROR ibv_create_cq(cqe=256) failed: Connection timed out
[1738788293.587322] [ohm:2920802:0]        ib_iface.c:1059 UCX  ERROR ibv_create_cq(cqe=256) failed: Connection timed out
[1738788293.587597] [ohm:2920778:0]        ib_iface.c:1059 UCX  ERROR ibv_create_cq(cqe=256) failed: Connection timed out
[1738788293.590807] [ohm:2920869:0]        ib_iface.c:1059 UCX  ERROR ibv_create_cq(cqe=256) failed: Connection timed out
[1738788293.593302] [ohm:2920850:0]        ib_iface.c:1059 UCX  ERROR ibv_create_cq(cqe=256) failed: Connection timed out
[1738788293.596534] [ohm:2920787:0]        ib_iface.c:1059 UCX  ERROR ibv_create_cq(cqe=256) failed: Connection timed out
[1738788293.597859] [ohm:2920849:0]        ib_iface.c:1059 UCX  ERROR ibv_create_cq(cqe=256) failed: Connection timed out
[1738788293.599252] [ohm:2920825:0]        ib_iface.c:1059 UCX  ERROR ibv_create_cq(cqe=256) failed: Connection timed out
[1738788293.600512] [ohm:2920846:0]        ib_iface.c:1059 UCX  ERROR ibv_create_cq(cqe=256) failed: Connection timed out
[1738788293.606091] [ohm:2920864:0]        ib_iface.c:1059 UCX  ERROR ibv_create_cq(cqe=256) failed: Connection timed out
[1738788293.606079] [ohm:2920901:0]        ib_iface.c:1059 UCX  ERROR ibv_create_cq(cqe=256) failed: Connection timed out
[1738788293.607927] [ohm:2920780:0]        ib_iface.c:1059 UCX  ERROR ibv_create_cq(cqe=256) failed: Connection timed out
[1738788293.608441] [ohm:2920785:0]        ib_iface.c:1059 UCX  ERROR ibv_create_cq(cqe=256) failed: Connection timed out
[1738788293.608648] [ohm:2920876:0]        ib_iface.c:1059 UCX  ERROR ibv_create_cq(cqe=256) failed: Connection timed out
[1738788293.608861] [ohm:2920775:0]        ib_iface.c:1059 UCX  ERROR ibv_create_cq(cqe=256) failed: Connection timed out
[1738788293.609261] [ohm:2920815:0]        ib_iface.c:1059 UCX  ERROR ibv_create_cq(cqe=256) failed: Connection timed out

--------------------------------
SUGGESTED CITATIONS FOR THIS RUN
--------------------------------

Below you find a list of papers that are relevant to this ORCA run
We neither can nor want to force you to cite these papers, but we appreciate if you do
You receive ORCA, which is the product of decades of hard work by many enthusiastic individuals, for free
The only thing we kindly ask in return is that you cite our papers,
We deeply appreciate it, if you show your appreciation for ORCA by not just citing the generic ORCA reference.

Please note that relegating all ORCA citations to the supporting information does *not* help us.
SI sections are not indexed - citations you put there will not count into any citation statistics
But we need these citations in order to attract the funding resources that allow us to do what we are doing

Therefore, if you are a happy ORCA user, please consider citing a few of the papers listed below in the main body of your paper

In addition to the list printed below, the program has created the file orca.bibtex that contains the list in bibtex format
You can import this file easily into all common literature databanks and citation aid programs


List of essential papers. We consider these as the minimum necessary citations

  1. Neese,F.
     Software update: the ORCA program system, version 5.0
     WIRES Comput. Molec. Sci., 2022 12(1)e1606
     doi.org/10.1002/wcms.1606

List of papers to cite with high priority. The work reported in these papers was absolutely
necessary for this run to complete.
Our perspective: the developers of density functionals and basis sets usually get cited in chemistry papers
Good! But without the algorithms to do something with them, the functionals or basis sets would not do anything.
Hence, in our opinion, the algorithm design and method developments papers are equally worthy of getting cited

  1. Neese,F.; Olbrich,G.
     Efficient use of the resolution of the identity approximation in time-dependent density functional calculations with hybrid density functionals
     Chem. Phys. Lett., 2002 362 170-178
     doi.org/10.1016/s0009-2614(02)01053-9
  2. Neese,F.
     An improvement of the resolution of the identity approximation for the formation of the Coulomb matrix
     J. Comp. Chem., 2003 24(14)1740-1747
     doi.org/10.1002/jcc.10318
  3. Neese,F.; Wennmohs,F.; Hansen,A.; Becker,U.
     Efficient, approximate and parallel Hartree-Fock and hybrid DFT calculations. A 'chain-of-spheres' algorithm for the Hartree-Fock exchange
     Chem. Phys., 2009 356(1-3)98-109
     doi.org/10.1016/j.chemphys.2008.10.036
  4. Petrenko,T.; Kossmann,S.; Neese,F.
     Efficient time-dependent density functional theory approximations for hybrid density functionals: Analytical gradients and parallelization
     J. Chem. Phys., 2011 134 054116
     doi.org/10.1063/1.3533441
  5. Helmich-Paris,B.; de Souza,B.; Neese,F.; Izsák,R.
     An improved chain of spheres for exchange algorithm
     J. Chem. Phys., 2021 155 104109
     doi.org/doi: 10.1063/5.0058766.
  6. Neese,F.
     The SHARK Integral Generation and Digestion System
     J. Comp. Chem., 2022  1-16
     doi.org/10.1002/jcc.26942
  7. Lehtola,S.; Steigemann,C.; Oliveira,M.; Marques,M.
     Recent developments in Libxc - A comprehensive library of functionals for density functional theory
     Software X, 2018 7 
     doi.org/10.1016/j.softx.2017.11.002
  8. Grimme,S.; Antony,J.; Ehrlich,S.; Krieg,H.
     A consistent and accurate ab initio parametrization of density functional dispersion correction (DFT-D) for the 94 elements H-Pu
     J. Chem. Phys., 2010 132 154104-XXXX
     doi.org/10.1063/1.3382344
  9. Grimme,S.; Ehrlich,S.; Goerigk,L.
     Effect of the damping function in dispersion corrected density functional theory
     J. Comput. Chem., 2011 32(7)1456-1465
     doi.org/10.1002/jcc.21759

List of suggested additional citations. These are papers that are important in the 'surrounding' of 
of this run, or papers that preceded the highly important papers. If you like your results we are grateful for a citation.

  1. Izsak,R.; Neese,F.
     An overlap fitted chain of spheres exchange method
     J. Chem. Phys., 2011 135 144105
     doi.org/10.1063/1.3646921
  2. Izsak,R.; Hansen,A.; Neese,F.
     The resolution of identity and chain of spheres approximations for the LPNO-CCSD singles Fock term
     Molec. Phys., 2012 110 2413-2417
     doi.org/10.1080/00268976.2012.687466
  3. Neese,F.
     The ORCA program system
     WIRES Comput. Molec. Sci., 2012 2(1)73-78
     doi.org/10.1002/wcms.81
  4. Izsak,R.; Neese,F.; Klopper,W.
     Robust fitting techniques in the chain of spheres approximation to the Fock exchange: The role of the complementary space
     J. Chem. Phys., 2013 139 
     doi.org/10.1063/1.4819264
  5. Neese,F.
     Software update: the ORCA program system, version 4.0
     WIRES Comput. Molec. Sci., 2018 8(1)1-6
     doi.org/10.1002/wcms.1327
  6. Neese,F.; Wennmohs,F.; Becker,U.; Riplinger,C.
     The ORCA quantum chemistry program package
     J. Chem. Phys., 2020 152 Art. No. L224108
     doi.org/10.1063/5.0004608

List of optional additional citations

  1. Neese,F.
     Approximate second-order SCF convergence for spin unrestricted wavefunctions
     Chem. Phys. Lett., 2000 325(1-3)93-98
     doi.org/10.1016/s0009-2614(00)00662-x

Timings for individual modules:

Sum of individual times          ...      254.714 sec (=   4.245 min)
Startup calculation              ...        6.249 sec (=   0.104 min)   2.5 %
SCF iterations                   ...      116.933 sec (=   1.949 min)  45.9 %
Property integrals               ...        4.162 sec (=   0.069 min)   1.6 %
Property calculations            ...        2.930 sec (=   0.049 min)   1.2 %
CIS module                       ...      124.441 sec (=   2.074 min)  48.9 %
                             ****ORCA TERMINATED NORMALLY****
TOTAL RUN TIME: 0 days 0 hours 4 minutes 16 seconds 953 msec
