7
Properties=species:S:1:pos:R:3:momenta:R:3:forces:R:3 Coordinates=T from=T ORCA-job=T orca=T E=T -153.798269612488=T energy=-4183.7166778296905 free_energy=-4183.7166778296905 stress="3.2813836418218925e-06 9.57583487014289e-07 9.304437971177716e-07 9.57583487014289e-07 1.209472408301963e-05 -3.049442809285129e-07 9.304437971177716e-07 -3.049442809285129e-07 -4.35019915121475e-06" pbc="F F F"
O        0.52029823       1.20787082      -0.04338143       1.20637102       0.55903438      -0.13715472       0.27114984      -1.40706016       0.16817307
C        0.56667786      -0.26910500       0.03551353      -1.30525586       0.62265586       0.19457671      -1.38832340       0.33552281      -0.08540175
C       -0.82313414      -0.90362445       0.01348193      -0.33406030      -0.20744106       0.05096749       0.83860897       0.69925113      -0.05405497
H        1.12553697      -0.56280839       0.92935532       0.11866429       0.02853824      -0.16352801       0.01896933       0.32019392      -0.13157138
H        1.11041041      -0.61780956      -0.84152222       0.07568306       0.04235687       0.16899585       0.39593810       0.25314985       0.00277511
H       -1.37542415      -0.87858582      -0.89309549       0.11626721      -0.45301549      -0.03030641      -0.16386199      -0.04132232      -0.54204016
H       -1.36889114      -1.18304570       0.87623403       0.12233058      -0.59212879      -0.08355091       0.02751914      -0.15973524       0.64212008
