30
Properties=species:S:1:pos:R:3:momenta:R:3:forces:R:3 Coordinates=T from=T ORCA-job=T orca=T E=T -908.934999320434=T energy=-24729.25972669608 free_energy=-24729.25972669608 stress="-9.64912200573043e-07 1.05786405636345e-08 -2.1264344052286784e-06 1.05786405636345e-08 -2.0648318166075034e-06 9.526777296498822e-07 -2.1264344052286784e-06 9.526777296498822e-07 5.060857858018906e-06" pbc="F F F"
O        2.51292217       1.24345452      -0.36297590       0.18372076      -0.00712605      -0.03131386      -0.07917822       0.22592181      -0.11770565
O       -0.78375297       0.83737716      -2.40193936       0.05132007       0.09653257      -0.27027923      -0.48417013       0.33678445       2.10937652
O        0.57212356      -2.68780841      -1.56335924      -0.04935456       0.00885372      -0.05477653       0.04156659       0.06312512       0.10555376
O       -2.47791866      -1.56822603       1.06787500      -0.11751881       0.16492365      -0.03242769      -0.22650473      -0.67970547      -0.42028097
N        0.59679391      -2.11072033       0.63955497      -0.04700022      -0.08233872      -0.02546543       0.15585738       0.29171726       0.09008750
N       -1.85285950       0.58963453       1.42816001       0.03080620       0.02089968      -0.34004468      -1.08165465      -1.44421465       0.52898116
N        1.61980403      -0.76435085      -0.92430660      -0.07933755      -0.08527032      -0.01786974       0.10378767      -0.14384157      -0.27707892
N       -1.68700840      -0.32068056      -0.67017509      -0.20310117      -0.00681172       0.20648518       1.06822611       1.77833628      -1.21081097
C        1.43717414       0.00411554       1.35420213       0.07915934      -0.08547671       0.11246731       0.88259792       0.47042436      -0.65538201
C       -0.84793790       1.91323580      -0.29778195       0.34088449      -0.04237982      -0.97691462      -1.81764325       1.22877280       8.42660319
C        0.81461960      -1.15362316       1.60199001      -0.13422141       0.07827978      -0.15506925       0.04229793      -0.94668873       0.32297970
C       -1.24814896       1.73981425       1.00362376      -0.33701092       0.12282938       1.19870174       1.92012852       0.32655463      -8.51526939
C        1.71316640       1.04912935       2.38412181       0.03855201       0.04918702       0.05239708      -0.05947658      -0.40563472       0.38016615
C       -0.18659979       3.14837204      -0.78633088      -0.22098356      -0.07946501       0.19542362       0.43770530       0.53315484      -1.20730473
C        1.91604844       0.24436401      -0.01139556       0.16675685      -0.19710965      -0.05841106      -0.57561807      -0.09856062       0.93416827
C       -1.08572268       0.82250850      -1.22249811      -0.04393451       0.20271292       0.24348460      -0.45906226      -3.42564170      -2.89761287
C        0.90911816      -1.91919626      -0.68824416       0.17453879      -0.01224128      -0.03636823      -0.19480834      -0.03910041      -0.12714952
C       -2.04553278      -0.52174719       0.63572987       0.16375908      -0.10399253      -0.17738754      -0.26755335       1.33437141       2.47823348
H        0.44376456      -1.40383284       2.58295358       0.01264644       0.00910860       0.01737890       0.18125119      -0.24284585       0.06381500
H       -1.11020408       2.50114328       1.74064823       0.01976663      -0.02333800       0.03515306       0.11038969       0.47330375       0.11149116
H        1.35851691       2.01188539       2.04961609       0.01216957      -0.06142280       0.03924990      -0.00427734       0.18684819       0.04415575
H        1.22970948       0.79628837       3.33646479       0.00698640      -0.00257146       0.03905869       0.16337921       0.04041176      -0.15823619
H        2.77800136       1.15132932       2.55781691       0.00612672       0.02067907      -0.00263117       0.20459022       0.00911239      -0.00343982
H       -0.73806434       3.57115813      -1.63140267       0.02023036       0.02987516      -0.03739592       0.17639910      -0.00790251       0.19997343
H       -0.12039863       3.89808899      -0.00096804      -0.01000910       0.00198301      -0.01438555      -0.02819556       0.00345693       0.00995195
H        0.81965355       2.91262904      -1.13598635      -0.00740153      -0.00773002       0.05531690      -0.13346287       0.17857912       0.10586492
H       -0.02084619      -2.88011623       0.83220667       0.00119999      -0.01331985       0.01543263      -0.00420125      -0.05480714      -0.00784561
H       -2.10971437       0.48026724       2.39636344      -0.01184574      -0.01977882      -0.03418797      -0.05265884      -0.09303336      -0.26358522
H        1.82494467      -0.56613512      -1.89406535      -0.05438247       0.06130073       0.02733628      -0.03269730       0.01380619       0.08510204
H       -1.79748096      -1.11836218      -1.28405647       0.00747786      -0.03679252       0.02704260       0.01298589       0.08729544      -0.13480212
