7
Properties=species:S:1:pos:R:3:momenta:R:3:forces:R:3 Coordinates=T from=T ORCA-job=T orca=T E=T -153.931009416206=T energy=-4184.073783827291 free_energy=-4184.073783827291 stress="-2.407558309045843e-06 -1.276470128807963e-06 1.4868048840539467e-06 -1.276470128807963e-06 -1.982578983634455e-05 -5.053520740143062e-06 1.4868048840539467e-06 -5.053520740143062e-06 -2.791245179595842e-06" pbc="F F F"
O        0.50907493       1.33881805       0.07586773       0.07828870       1.35956871       0.49048547      -0.16711102       4.55391994       1.33595904
C        0.57769415       0.16493080      -0.28866573       0.12402052      -1.28875814      -0.47656047       0.43520657      -4.08744452      -1.38176718
C       -0.43319135      -0.82376291       0.21111111      -0.16411688      -0.12833737       0.11231260       0.18340463      -0.71428374      -0.18741005
H        0.07627179      -1.64552929       0.73201041       0.02442206      -0.06126496      -0.02393008      -0.22203235       0.17008688       0.10533555
H        1.36436292      -0.15514477      -0.95965074      -0.00443471       0.08718146       0.02918697       0.16153746       0.07254665      -0.10395273
H       -0.96246151      -1.26415178      -0.63360316      -0.06310285       0.05540066      -0.06376031      -0.21695258      -0.01872254       0.02030499
H       -1.13389317      -0.33188164       0.86448172       0.00492316      -0.02379036      -0.06773418      -0.17405271       0.02389733       0.21153037
