7
Properties=species:S:1:pos:R:3:momenta:R:3:forces:R:3 Coordinates=T from=T ORCA-job=T orca=T E=T -153.798269612488=T energy=-4183.492540023624 free_energy=-4183.492540023624 stress="-1.1685569233690428e-05 -1.1355337908990798e-05 -9.411867844476156e-08 -1.1355337908990798e-05 -1.871513988246972e-05 -3.3683003604071105e-07 -9.411867844476156e-08 -3.3683003604071105e-07 -1.4372565802663416e-07" pbc="F F F"
O        0.41151252       1.05536827      -0.00577382       0.24170335       0.37205114      -0.40865496       1.21949659       2.23384655       0.00385951
C        0.61463716      -0.27430975       0.00031121      -0.10437582      -0.28198828       0.05382675      -0.16600367      -1.02441067       0.16908633
C       -0.74795491      -0.73929734       0.00187055      -0.39244157      -0.59255758       0.15410425      -1.58737163      -1.70866028       0.14151280
H        1.17728321      -0.60510270       0.88491853       0.07589805       0.16649184       0.00717338       0.24936547       0.30270520      -0.02683725
H        1.19014234      -0.60411554      -0.86805547       0.14347402       0.18498572       0.09001622       0.29618008       0.20744532      -0.13030638
H       -1.30932222      -0.74569045      -0.91568145      -0.00012675       0.07957574       0.04278083      -0.04086106      -0.00195439      -0.04575664
H       -1.30164604      -0.74100676       0.93135773       0.03586873       0.07144142       0.06075353       0.02919422      -0.00897173      -0.11155837
