30
Properties=species:S:1:pos:R:3:momenta:R:3:forces:R:3 Coordinates=T from=T ORCA-job=T orca=T E=T -908.935713707619=T energy=-24729.361936555433 free_energy=-24729.361936555433 stress="3.223686272906512e-07 -1.522090772474085e-07 2.971352859965717e-07 -1.522090772474085e-07 9.448169202278152e-07 -7.186756233928179e-07 2.971352859965717e-07 -7.186756233928179e-07 -7.661892280277747e-07" pbc="F F F"
O        2.55384044       1.19414253      -0.50230547       0.03668577       0.41991855      -0.13498562      -0.15411118      -0.17155156       0.17930070
O       -0.63065690       0.84719183      -2.29015773      -0.14605510       0.06777462      -0.02773300       0.06165682       0.05867702      -0.33297470
O        0.57619541      -2.76091865      -1.54160657      -0.06276848       0.11058213       0.15812830       0.06958113      -0.04971764      -0.20685204
O       -2.45882899      -1.62031744       1.06335197      -0.09591198      -0.18836813      -0.05236341      -0.02296031       0.16107033      -0.09455676
N        0.64285471      -2.11862562       0.63979160       0.00931839       0.18195151       0.04044286      -0.10761133      -0.53716238      -0.13820507
N       -2.01325655       0.58150326       1.43652109      -0.20613915       0.02029905       0.09001743      -0.04772634       0.17449258      -0.21158500
N        1.67348807      -0.84579789      -0.97866655       0.26777287      -0.29777581      -0.06180579       0.18554876       0.50195546       0.53721596
N       -1.61051969      -0.34009092      -0.62967898       0.30994780      -0.00367820      -0.01137848      -0.10956878      -0.16829059      -0.15690409
C        1.50852016       0.02403883       1.25759874       0.63475560       1.00140206      -0.77130636      -0.79258842      -1.26446365       1.04575155
C       -0.90437070       1.92775919      -0.19324862      -0.06351018       0.13283832      -0.17386948       0.50857219      -0.52817599      -0.73972062
C        0.86591829      -1.14377687       1.57528466      -0.46162245      -1.00493855       0.69815174       0.49886047       1.61416968      -1.08357320
C       -1.43250157       1.76570724       1.02901250      -0.06394282       0.12991141       0.21052456      -0.34099194      -0.19818778       0.72707628
C        1.76692126       1.09892983       2.25460162      -0.15727857      -0.34193467      -0.02529433       0.26942235       0.32918689      -0.06920709
C       -0.23036053       3.17418323      -0.65091969      -0.07012763      -0.26526952       0.10245502      -0.09884995       0.04185444      -0.29983447
C        1.96471804       0.20493817      -0.09931844      -0.13807426       0.03695764       0.63532868       0.26133658       0.08263104      -1.08781019
C       -1.01770024       0.81887511      -1.14387794      -0.07771341      -0.03303235      -0.08765131       0.04391041       0.15223030       0.43216330
C        0.94201534      -1.97324955      -0.70110649       0.18535758       0.10075869      -0.35196336      -0.41989808      -0.36445700       0.61564692
C       -2.06275382      -0.54559554       0.65191842       0.02359633       0.06297648      -0.05671069      -0.02125294      -0.24095383       0.09976131
H        0.49635313      -1.34982123       2.55337037      -0.03362538      -0.05603815      -0.02344327      -0.05089717      -0.05202387       0.40441933
H       -1.41590316       2.54317743       1.76444506       0.00075682       0.01902248      -0.00310482       0.03019551       0.16870257       0.18298731
H        1.35737548       2.04802138       1.89627489       0.06465367       0.03602743      -0.02815227       0.10811909      -0.09973304       0.13042562
H        1.32734736       0.85362519       3.22317486      -0.06622920      -0.02675654      -0.00382084       0.07080059       0.06289029      -0.11011547
H        2.84904907       1.25201956       2.37085436       0.05963843      -0.01334921      -0.03812223      -0.26745645      -0.00274509       0.05888138
H       -0.70876936       3.55648034      -1.56448321       0.01076746      -0.05352058      -0.08367009       0.11070413      -0.06296915       0.25384283
H       -0.26177790       3.93519647       0.12165150       0.02393273      -0.01360417      -0.00043792      -0.01113850       0.07428689       0.01624975
H        0.81082468       2.97118429      -0.90742730       0.01859154       0.00329134       0.01918839      -0.02715506      -0.06291815       0.05683136
H       -0.00274399      -2.87275197       0.85644173      -0.01026523      -0.04876683      -0.00061232       0.18645323       0.22834647      -0.16357830
H       -2.34952962       0.46993683       2.37123496       0.01277658       0.00181836      -0.02147252       0.01424387      -0.03360821       0.15546569
H        1.85681309      -0.68151920      -1.94957740      -0.00096559      -0.02453071       0.00389546       0.04097819       0.10419419      -0.23042744
H       -1.64447916      -1.14022671      -1.24816476      -0.00432215       0.04603333      -0.00023432       0.01182315       0.08226977       0.02932515
