
                                 *****************
                                 * O   R   C   A *
                                 *****************

                                            #,                                       
                                            ###                                      
                                            ####                                     
                                            #####                                    
                                            ######                                   
                                           ########,                                 
                                     ,,################,,,,,                         
                               ,,#################################,,                 
                          ,,##########################################,,             
                       ,#########################################, ''#####,          
                    ,#############################################,,   '####,        
                  ,##################################################,,,,####,       
                ,###########''''           ''''###############################       
              ,#####''   ,,,,##########,,,,          '''####'''          '####       
            ,##' ,,,,###########################,,,                        '##       
           ' ,,###''''                  '''############,,,                           
         ,,##''                                '''############,,,,        ,,,,,,###''
      ,#''                                            '''#######################'''  
     '                                                          ''''####''''         
             ,#######,   #######,   ,#######,      ##                                
            ,#'     '#,  ##    ##  ,#'     '#,    #''#        ,####,   ,####,        
            ##       ##  ##   ,#'  ##            #'  '#       #'       #'  '#        
            ##       ##  #######   ##           ,######,      #####,   #    #        
            '#,     ,#'  ##    ##  '#,     ,#' ,#      #,     #,   #   #,  ,#        
             '#######'   ##     ##  '#######'  #'      '#     '####' # '####'        



                #########################################################
                #                        -***-                          #
                #          Department of theory and spectroscopy        #
                #                                                       #
                #                      Frank Neese                      #
                #                                                       #
                #     Directorship, Architecture, Infrastructure        #
                #                    SHARK, DRIVERS                     #
                #        Core code/Algorithms in most modules           #
                #                                                       #
                #        Max Planck Institute fuer Kohlenforschung      #
                #                Kaiser Wilhelm Platz 1                 #
                #                 D-45470 Muelheim/Ruhr                 #
                #                      Germany                          #
                #                                                       #
                #                  All rights reserved                  #
                #                        -***-                          #
                #########################################################


                         Program Version 6.0.0  -   RELEASE  -


 With contributions from (in alphabetic order):
   Daniel Aravena         : Magnetic Suceptibility
   Michael Atanasov       : Ab Initio Ligand Field Theory (pilot matlab implementation)
   Alexander A. Auer      : GIAO ZORA, VPT2 properties, NMR spectrum
   Ute Becker             : All parallelization in ORCA, NUMFREQ, NUMCALC
   Giovanni Bistoni       : ED, misc. LED, open-shell LED, HFLD
   Martin Brehm           : Molecular dynamics
   Dmytro Bykov           : pre 5.0 version of the SCF Hessian
   Marcos Casanova-Páez   : Triplet and SCS-CIS(D). UHF-(DLPNO)-IP/EA/STEOM-CCSD. UHF-CVS-IP/STEOM-CCSD
   Vijay G. Chilkuri      : MRCI spin determinant printing, contributions to CSF-ICE
   Pauline Colinet        : FMM embedding
   Dipayan Datta          : RHF DLPNO-CCSD density
   Achintya Kumar Dutta   : EOM-CC, STEOM-CC
   Nicolas Foglia         : Exact transition moments, OPA infrastructure, MCD improvements
   Dmitry Ganyushin       : Spin-Orbit,Spin-Spin,Magnetic field MRCI
   Miquel Garcia          : C-PCM and meta-GGA Hessian, CCSD/C-PCM, Gaussian charge scheme
   Tiago L. C. Gouveia    : GS-ROHF, GS-ROCIS
   Yang Guo               : DLPNO-NEVPT2, F12-NEVPT2, CIM, IAO-localization
   Andreas Hansen         : Spin unrestricted coupled pair/coupled cluster methods
   Ingolf Harden          : AUTO-CI MPn and infrastructure 
   Benjamin Helmich-Paris : MC-RPA, TRAH-(SCF,CASSCF), AVAS, COSX integrals, SCF dyn. polar.
   Lee Huntington         : MR-EOM, pCC
   Robert Izsak           : Overlap fitted RIJCOSX, COSX-SCS-MP3, EOM
   Riya Kayal             : Wick's Theorem for AUTO-CI, AUTO-CI UHF-CCSDT
   Emily Kempfer          : AUTO-CI, RHF CISDT and CCSDT
   Christian Kollmar      : KDIIS, OOCD, Brueckner-CCSD(T), CCSD density, CASPT2, CASPT2-K, improved NEVPT2
   Axel Koslowski         : Symmetry handling
   Simone Kossmann        : Meta GGA functionals, TD-DFT gradient, OOMP2, (MP2 Hessian; deprecated post 5.0)
   Lucas Lang             : DCDCAS
   Marvin Lechner         : AUTO-CI (C++ implementation), FIC-MRCC
   Spencer Leger          : CASSCF response
   Dagmar Lenk            : GEPOL surface, SMD, ORCA-2-JSON
   Dimitrios Liakos       : Extrapolation schemes; Compound Job, initial MDCI parallelization
   Dimitrios Manganas     : Further ROCIS development; embedding schemes. LFT, Crystal Embedding
   Dimitrios Pantazis     : SARC Basis sets
   Anastasios Papadopoulos: AUTO-CI, single reference methods and gradients
   Taras Petrenko         : pre 6.0 DFT Hessian and TD-DFT gradient, (ASA, deprecated), ECA, 1-Electron XAS/XES, NRVS
   Peter Pinski           : DLPNO-MP2, DLPNO-MP2 Gradient
   Christoph Reimann      : Effective Core Potentials
   Marius Retegan         : Local ZFS, SOC
   Christoph Riplinger    : Optimizer, TS searches, QM/MM, DLPNO-CCSD(T), (RO)-DLPNO pert. Triples
   Michael Roemelt        : Original ROCIS implementation
   Masaaki Saitow         : Open-shell DLPNO-CCSD energy and density
   Barbara Sandhoefer     : DKH picture change effects
   Kantharuban Sivalingam : CASSCF convergence/infrastructure, NEVPT2 and variants, FIC-MRCI
   Bernardo de Souza      : ESD, SOC TD-DFT
   Georgi Stoychev        : AutoAux, RI-MP2 NMR, DLPNO-MP2 response, X2C
   Van Anh Tran           : RI-MP2 g-tensors
   Willem Van den Heuvel  : Paramagnetic NMR
   Zikuan Wang            : NOTCH, Electric field optimization 
   Frank Wennmohs         : Technical directorship and infrastructure
   Hang Xu                : AUTO-CI-Response properties 


 We gratefully acknowledge several colleagues who have allowed us to
 interface, adapt or use parts of their codes:
   Stefan Grimme, W. Hujo, H. Kruse, P. Pracht,  : VdW corrections, initial TS optimization,
                  C. Bannwarth, S. Ehlert,         DFT functionals, gCP, sTDA/sTD-DF
                  L. Wittmann, M. Mueller
   Ed Valeev, F. Pavosevic, A. Kumar             : LibInt (2-el integral package), F12 methods
   Garnet Chan, S. Sharma, J. Yang, R. Olivares  : DMRG
   Ulf Ekstrom                                   : XCFun DFT Library
   Mihaly Kallay                                 : mrcc  (arbitrary order and MRCC methods)
   Frank Weinhold                                : gennbo (NPA and NBO analysis)
   Simon Mueller                                 : openCOSMO-RS
   Christopher J. Cramer and Donald G. Truhlar   : smd solvation model
   Lars Goerigk                                  : TD-DFT with DH, B97 family of functionals
   V. Asgeirsson, H. Jonsson                     : NEB implementation
   FAccTs GmbH                                   : IRC, NEB, NEB-TS, DLPNO-Multilevel, CI-OPT
                                                   MM, QMMM, 2- and 3-layer-ONIOM, Crystal-QMMM,
                                                   LR-CPCM, SF, NACMEs, symmetry and pop. for TD-DFT,
                                                   nearIR, NL-DFT gradient (VV10), updates on ESD,
                                                   ML-optimized integration grids, MBIS, APM,
                                                   GOAT, DOCKER, SOLVATOR, interface openCOSMO-RS
   S Lehtola, MJT Oliveira, MAL Marques          : LibXC Library
   Liviu Ungur et al                             : ANISO software


 Your calculation uses the libint2 library for the computation of 2-el integrals
 For citations please refer to: http://libint.valeyev.net

 Your ORCA version has been built with support for libXC version: 6.2.2
 For citations please refer to: https://libxc.gitlab.io

 This ORCA versions uses:
   CBLAS   interface :  Fast vector & matrix operations
   LAPACKE interface :  Fast linear algebra routines
   SCALAPACK package :  Parallel linear algebra routines
   Shared memory     :  Shared parallel matrices
   BLAS/LAPACK       :  OpenBLAS 0.3.27  USE64BITINT DYNAMIC_ARCH NO_AFFINITY SkylakeX SINGLE_THREADED
        Core in use  :  SkylakeX
   Copyright (c) 2011-2014, The OpenBLAS Project


Your calculation utilizes the atom-pairwise dispersion correction
with the Becke-Johnson damping scheme (D3BJ)


Warning: RI is on but no J-basis has been assigned. Assigning Def2/J (nothing to worry about!)
================================================================================

----- Orbital basis set information -----
Your calculation utilizes the basis: def2-TZVPPD
   F. Weigend and R. Ahlrichs, Phys. Chem. Chem. Phys. 7, 3297 (2005).
   D. Rappoport and F. Furche, J. Chem. Phys. 133, 134105 (2010)
   D. Rappoport, J. Chem. Phys. 155, 124102 (2021).

----- AuxJ basis set information -----
Your calculation utilizes the auxiliary basis: def2/J
   F. Weigend, Phys. Chem. Chem. Phys. 8, 1057 (2006).

================================================================================
                                        WARNINGS
                       Please study these warnings very carefully!
================================================================================

Using LibXC functional ID 531 : wB97M-V exchange-correlation functional
[ 1]  N. Mardirossian and M. Head-Gordon.,  J. Chem. Phys. 144, 214110 (2016)
Using LibXC functional ID 531 : wB97M-V exchange-correlation functional
[ 1]  N. Mardirossian and M. Head-Gordon.,  J. Chem. Phys. 144, 214110 (2016)

WARNING: B97M-V or wB97M-V functional requested.
  ===> : libXC variant has now been activated.
         Any manually given DFX/HFX/RangeSep scaling parameters are IGNORED!

Your calculation utilizes LibXC
 by S Lehtola, C Steigemann, MJT Oliveira & MAL Marques
Please cite in your paper:
 S Lehtola, C Steigemann, MJT Oliveira & MAL Marques, SoftwareX, 7, (2018), 1.
   


WARNING: Geometry Optimization
  ===> : Switching off AutoStart
         For restart on a previous wavefunction, please use MOREAD

================================================================================
                                       INPUT FILE
================================================================================
NAME = orca.inp
|  1> ! opt def2-TZVPPD wB97M-D3BJ 
|  2> %pal nprocs 8 end%pal nprocs 32 end 
|  3> %geom Constraints 
|  4> {B 9 8 3.2 C} 
|  5> {A 8 9 11 43.14285714285714 C} 
|  6> end 
|  7> MaxIter 300 
|  8> end 
|  9> *xyz 0 1 
| 10> O   2.98579685529314 0.88758230159078 -0.86184571092411
| 11> O   -0.03983205397054 0.68929041702508 -2.10362336723772
| 12> O   0.93431434349854 -3.13274393337945 -0.68767288184107
| 13> O   -3.75829998830163 -0.84727300865116 -0.0472717177755
| 14> N   0.21184538946282 -1.54604804365365 0.7617588924445
| 15> N   -2.13631993928911 0.03188773433438 1.27350571071531
| 16> N   2.02598672506387 -1.14318467211666 -0.64531219127023
| 17> N   -1.91814233924584 0.03137116037665 -1.04498946748291
| 18> C   1.18097737274226 0.71693507080484 0.70173889017321
| 19> C   -0.20686880480777 1.27024627933494 0.21345042231937
| 20> C   0.41441080275909 -0.34173258966541 1.52336266615173
| 21> C   -0.82922175114212 0.58960593673968 1.44434972027296
| 22> C   1.92822011286806 1.69488653817281 1.5963734975385
| 23> C   -0.37809776891576 2.77134929626422 0.04819649358288
| 24> C   2.1403947470937 0.1972384729179 -0.35038567829864
| 25> C   -0.67361678962426 0.6214190571346 -1.0793014500539
| 26> C   1.04142578622994 -2.02697492875068 -0.21027082435993
| 27> C   -2.68467002550422 -0.30396816036989 0.07167054343891
| 28> H   0.80817443950001 -0.54572267081061 2.51895215321335
| 29> H   -0.83785272399001 1.27240685039143 2.28901317073582
| 30> H   2.31167340578204 2.52284411740894 1.00913016264629
| 31> H   1.28982602448342 2.08257620823614 2.38710022492991
| 32> H   2.77390820759972 1.19140411795486 2.06045858523949
| 33> H   -1.41857211141493 3.00964947214868 -0.16882755561625
| 34> H   -0.09065531563179 3.29799318042223 0.95389844358819
| 35> H   0.23426221611057 3.12492645074476 -0.77764887675592
| 36> H   -0.46772570547622 -2.21560145172536 1.0787081584806
| 37> H   -2.71769301149571 -0.17090724573546 2.06627440900372
| 38> H   2.60065167263658 -1.49057255715425 -1.3966820077142
| 39> H   -2.27169977231386 -0.32388339999036 -1.91951041514436
| 40> *
| 41> 
| 42>                          ****END OF INPUT****
================================================================================

                       *****************************
                       * Geometry Optimization Run *
                       *****************************

Geometry optimization settings:
Update method            Update   .... BFGS
Choice of coordinates    CoordSys .... (2022) Redundant Internals
Initial Hessian          InHess   .... Almloef's Model
Max. no of cycles        MaxIter  .... 300

Convergence Tolerances:
Energy Change            TolE     ....  5.0000e-06 Eh
Max. Gradient            TolMAXG  ....  3.0000e-04 Eh/bohr
RMS Gradient             TolRMSG  ....  1.0000e-04 Eh/bohr
Max. Displacement        TolMAXD  ....  4.0000e-03 bohr
RMS Displacement         TolRMSD  ....  2.0000e-03 bohr
Strict Convergence                .... False

------------------------------------------------------------------------------
                        ORCA OPTIMIZATION COORDINATE SETUP
------------------------------------------------------------------------------

The optimization will be done in redundant internal coordinates (2022)
Making redundant internal coordinates   ...  (2022 redundants) done
Evaluating the initial hessian          ...  (Almloef) done
Evaluating the coordinates              ...  done
Calculating the B-matrix                .... done
Calculating the G-matrix                .... done
Diagonalizing the G-matrix              .... done
Decreasing the constraint accuracy, check your results carefully!
The first mode is                       ....   88
The number of degrees of freedom        ....   84
Storing new coordinates                 .... done

    -----------------------------------------------------------------
                    Redundant Internal Coordinates


    -----------------------------------------------------------------
         Definition                    Initial Value    Approx d2E/dq
    -----------------------------------------------------------------
      1. B(C   9,C   8)                  3.2000         0.320344 C 
      2. B(C  10,N   4)                  1.4375         0.466977   
      3. B(C  10,C   8)                  1.3521         0.355045   
      4. B(C  11,C   9)                  2.0010         0.362641   
      5. B(C  11,C  10)                  1.6540         0.339897   
      6. B(C  11,N   5)                  1.4908         0.480746   
      7. B(C  12,C   8)                  1.5299         0.385345   
      8. B(C  13,C   9)                  1.5472         0.387770   
      9. B(C  14,O   0)                  1.2253         1.102736   
     10. B(C  14,N   6)                  1.3865         0.586441   
     11. B(C  14,C   8)                  1.5260         0.393636   
     12. B(C  15,O   1)                  1.2390         1.098286   
     13. B(C  15,N   7)                  1.3671         0.585369   
     14. B(C  15,C   9)                  1.5169         0.387723   
     15. B(C  16,O   2)                  1.2125         1.087341   
     16. B(C  16,N   4)                  1.3727         0.612509   
     17. B(C  16,N   6)                  1.4178         0.554006   
     18. B(C  17,O   3)                  1.2337         1.087510   
     19. B(C  17,N   5)                  1.4243         0.617844   
     20. B(C  17,N   7)                  1.4628         0.548746   
     21. B(H  18,C  10)                  1.0950         0.360246   
     22. B(H  19,C  11)                  1.0933         0.365213   
     23. B(H  20,C  12)                  1.1001         0.366664   
     24. B(H  21,C  12)                  1.0922         0.363151   
     25. B(H  22,C  12)                  1.1030         0.362563   
     26. B(H  23,C  13)                  1.1143         0.361089   
     27. B(H  24,C  13)                  1.0963         0.364889   
     28. B(H  25,C  13)                  1.1065         0.363812   
     29. B(H  26,N   4)                  1.0202         0.440286   
     30. B(H  27,N   5)                  1.0245         0.442686   
     31. B(H  28,N   6)                  1.0142         0.436367   
     32. B(H  29,N   7)                  1.0223         0.435953   
     33. A(C  16,N   4,H  26)          115.1341         0.358987   
     34. A(C  10,N   4,H  26)          120.8805         0.342908   
     35. A(C  10,N   4,C  16)          122.6901         0.406446   
     36. A(C  11,N   5,H  27)          114.5447         0.344898   
     37. A(C  11,N   5,C  17)          136.0938         0.409168   
     38. A(C  17,N   5,H  27)          109.3560         0.359850   
     39. A(C  14,N   6,H  28)          116.2651         0.355801   
     40. A(C  16,N   6,H  28)          115.6569         0.352388   
     41. A(C  14,N   6,C  16)          127.0999         0.415733   
     42. A(C  15,N   7,C  17)          125.1483         0.414893   
     43. A(C  17,N   7,H  29)          116.8223         0.351763   
     44. A(C  15,N   7,H  29)          117.3275         0.355634   
     45. A(C   9,C   8,C  14)          119.6092         0.357126   
     46. A(C  10,C   8,C  12)          112.8977         0.362122   
     47. A(C  10,C   8,C  14)          118.2869         0.363441   
     48. A(C   9,C   8,C  12)          114.1438         0.355837   
     49. A(C  12,C   8,C  14)          107.9368         0.368575   
     50. A(C   9,C   8,C  10)           82.3546         0.350937   
     51. A(C   8,C   9,C  15)          119.9751         0.356209   
     52. A(C  11,C   9,C  15)          121.2579         0.363816   
     53. A(C   8,C   9,C  13)          140.0604         0.356216   
     54. A(C  13,C   9,C  15)           91.8929         0.368015   
     55. A(C   8,C   9,C  11)           43.1504         0.352195 C 
     56. A(C  11,C   9,C  13)          139.0235         0.363823   
     57. A(N   4,C  10,C   8)          118.6143         0.371914   
     58. A(N   4,C  10,H  18)          114.6398         0.334496   
     59. A(C   8,C  10,H  18)          104.9538         0.321646   
     60. A(C  11,C  10,H  18)          114.7716         0.319361   
     61. A(N   4,C  10,C  11)          108.1003         0.369136   
     62. A(C   8,C  10,C  11)           94.3239         0.354473   
     63. A(N   5,C  11,C  10)          111.6245         0.370984   
     64. A(C   9,C  11,C  10)          129.1286         0.355748   
     65. A(N   5,C  11,C   9)           90.6779         0.375149   
     66. A(N   5,C  11,H  19)          107.3575         0.336883   
     67. A(C   9,C  11,H  19)          111.9195         0.323489   
     68. A(C  10,C  11,H  19)          104.2154         0.320077   
     69. A(C   8,C  12,H  20)          110.2719         0.326948   
     70. A(C   8,C  12,H  21)          110.8941         0.326430   
     71. A(H  20,C  12,H  21)          109.5555         0.292054   
     72. A(C   8,C  12,H  22)          109.9512         0.326343   
     73. A(H  20,C  12,H  22)          107.9912         0.291979   
     74. A(H  21,C  12,H  22)          108.1034         0.291537   
     75. A(H  23,C  13,H  25)          108.0661         0.291434   
     76. A(C   9,C  13,H  23)          109.8950         0.326461   
     77. A(C   9,C  13,H  24)          110.1720         0.327024   
     78. A(H  23,C  13,H  24)          109.3381         0.291570   
     79. A(C   9,C  13,H  25)          111.1297         0.326865   
     80. A(H  24,C  13,H  25)          108.1845         0.291914   
     81. A(O   0,C  14,C   8)          123.6683         0.440771   
     82. A(N   6,C  14,C   8)          113.7794         0.393922   
     83. A(O   0,C  14,N   6)          122.4620         0.470819   
     84. A(O   1,C  15,N   7)          125.0156         0.470312   
     85. A(O   1,C  15,C   9)          123.6472         0.439248   
     86. A(N   7,C  15,C   9)          111.3363         0.392753   
     87. A(O   2,C  16,N   4)          123.5700         0.473371   
     88. A(O   2,C  16,N   6)          122.3339         0.464736   
     89. A(N   4,C  16,N   6)          114.0960         0.418965   
     90. A(O   3,C  17,N   7)          119.2666         0.463939   
     91. A(N   5,C  17,N   7)          120.7512         0.418900   
     92. A(O   3,C  17,N   5)          119.9138         0.474140   
     93. D(C  11,C   9,C   8,C  10)     23.3510         0.008410   
     94. D(C  11,C   9,C   8,C  12)    -88.3672         0.008410   
     95. D(C  11,C   9,C   8,C  14)    141.6236         0.008410   
     96. D(C  13,C   9,C   8,C  10)    139.8074         0.008410   
     97. D(C  13,C   9,C   8,C  12)     28.0892         0.008410   
     98. D(C  13,C   9,C   8,C  14)   -101.9200         0.008410   
     99. D(N   4,C  10,C   8,C  12)   -152.8278         0.010134   
    100. D(C   8,C  10,N   4,H  26)   -167.8808         0.018626   
    101. D(C  11,C  10,N   4,C  16)    131.3394         0.018626   
    102. D(C  11,C  10,C   8,C  14)   -138.7977         0.010134   
    103. D(N   4,C  10,C   8,C  14)    -25.4590         0.010134   
    104. D(C   8,C  10,N   4,C  16)     25.7543         0.018626   
    105. D(C  11,C  10,N   4,H  26)    -62.2957         0.018626   
    106. D(C  11,C  10,C   8,C  12)     93.8335         0.010134   
    107. D(H  18,C  10,N   4,C  16)    -99.2483         0.018626   
    108. D(N   4,C  10,C   8,C   9)     94.1367         0.010134   
    109. D(C  11,C  10,C   8,C   9)    -19.2020         0.010134   
    110. D(C   9,C  11,N   5,H  27)   -154.2147         0.019770   
    111. D(N   5,C  11,C  10,N   4)     30.0261         0.009355   
    112. D(C   9,C  11,N   5,C  17)     24.8143         0.019770   
    113. D(C  10,C  11,C   9,C   8)    -24.4554         0.010540   
    114. D(C  10,C  11,N   5,C  17)   -108.3096         0.019770   
    115. D(H  19,C  11,N   5,C  17)    138.0702         0.019770   
    116. D(C  10,C  11,C   9,C  13)   -143.2354         0.010540   
    117. D(C  10,C  11,N   5,H  27)     72.6614         0.019770   
    118. D(N   5,C  11,C   9,C  15)    -41.4989         0.010540   
    119. D(N   5,C  11,C  10,H  18)    -99.3123         0.009355   
    120. D(N   5,C  11,C   9,C   8)   -143.4496         0.010540   
    121. D(N   5,C  11,C   9,C  13)     97.7704         0.010540   
    122. D(C  10,C  11,C   9,C  15)     77.4953         0.010540   
    123. D(N   5,C  11,C  10,C   8)    152.0313         0.009355   
    124. D(C   9,C  11,C  10,N   4)    -79.7836         0.009355   
    125. D(C   9,C  11,C  10,C   8)     42.2216         0.009355   
    126. D(C   9,C  11,C  10,H  18)    150.8780         0.009355   
    127. D(H  20,C  12,C   8,C   9)    -76.0831         0.011818   
    128. D(H  20,C  12,C   8,C  10)   -167.8627         0.011818   
    129. D(H  20,C  12,C   8,C  14)     59.4947         0.011818   
    130. D(H  21,C  12,C   8,C   9)     45.4463         0.011818   
    131. D(H  21,C  12,C   8,C  10)    -46.3333         0.011818   
    132. D(H  21,C  12,C   8,C  14)   -178.9759         0.011818   
    133. D(H  23,C  13,C   9,C   8)   -154.7738         0.011960   
    134. D(H  23,C  13,C   9,C  11)    -85.7501         0.011960   
    135. D(H  23,C  13,C   9,C  15)     60.3259         0.011960   
    136. D(H  24,C  13,C   9,C   8)    -34.2350         0.011960   
    137. D(H  24,C  13,C   9,C  11)     34.7888         0.011960   
    138. D(H  24,C  13,C   9,C  15)   -179.1352         0.011960   
    139. D(N   6,C  14,C   8,C  10)      9.9457         0.011517   
    140. D(O   0,C  14,N   6,H  28)     -7.4344         0.027624   
    141. D(C   8,C  14,N   6,C  16)      7.7853         0.027624   
    142. D(C   8,C  14,N   6,H  28)    175.9037         0.027624   
    143. D(O   0,C  14,C   8,C   9)     95.7419         0.011517   
    144. D(O   0,C  14,C   8,C  10)   -166.6701         0.011517   
    145. D(O   0,C  14,C   8,C  12)    -36.9810         0.011517   
    146. D(O   0,C  14,N   6,C  16)   -175.5527         0.027624   
    147. D(N   6,C  14,C   8,C   9)    -87.6423         0.011517   
    148. D(N   7,C  15,C   9,C   8)     92.3932         0.011191   
    149. D(O   1,C  15,N   7,H  29)     -8.2515         0.027516   
    150. D(C   9,C  15,N   7,C  17)    -18.5244         0.027516   
    151. D(C   9,C  15,N   7,H  29)    171.4136         0.027516   
    152. D(O   1,C  15,C   9,C   8)    -87.9362         0.011191   
    153. D(O   1,C  15,C   9,C  11)   -138.5069         0.011191   
    154. D(O   1,C  15,N   7,C  17)    161.8105         0.027516   
    155. D(O   1,C  15,C   9,C  13)     66.8410         0.011191   
    156. D(N   7,C  15,C   9,C  11)     41.8225         0.011191   
    157. D(O   2,C  16,N   4,C  10)    171.5853         0.030322   
    158. D(O   2,C  16,N   4,H  26)      4.4988         0.030322   
    159. D(N   6,C  16,N   4,C  10)     -8.2975         0.030322   
    160. D(N   6,C  16,N   4,H  26)   -175.3840         0.030322   
    161. D(O   2,C  16,N   6,C  14)    171.5796         0.024482   
    162. D(O   2,C  16,N   6,H  28)      3.3991         0.024482   
    163. D(N   4,C  16,N   6,C  14)     -8.5360         0.024482   
    164. D(N   4,C  16,N   6,H  28)   -176.7165         0.024482   
    165. D(O   3,C  17,N   5,C  11)    174.1319         0.030894   
    166. D(O   3,C  17,N   5,H  27)     -6.8042         0.030894   
    167. D(N   7,C  17,N   5,C  11)     -8.8983         0.030894   
    168. D(N   7,C  17,N   5,H  27)    170.1655         0.030894   
    169. D(O   3,C  17,N   7,C  15)    176.6004         0.023995   
    170. D(O   3,C  17,N   7,H  29)    -13.2924         0.023995   
    171. D(N   5,C  17,N   7,C  15)     -0.3887         0.023995   
    172. D(N   5,C  17,N   7,H  29)    169.7185         0.023995   
    -----------------------------------------------------------------

Number of atoms                         .... 30
Number of degrees of freedom            .... 172


         *************************************************************
         *                GEOMETRY OPTIMIZATION CYCLE   1            *
         *************************************************************
---------------------------------
CARTESIAN COORDINATES (ANGSTROEM)
---------------------------------
  O      3.798635    0.339439   -0.239703
  O     -1.090820    1.631113   -2.680853
  O      1.079920   -3.349644   -0.520261
  O     -3.670196   -0.936206    0.187766
  N      0.416997   -1.622931    0.811667
  N     -1.778348   -0.004076    1.112685
  N      2.486797   -1.537964   -0.280257
  N     -2.474792    0.446899   -1.256019
  C      1.712897    0.386868    1.005560
  C     -0.824920    1.858003   -0.273232
  C      0.758440   -0.420212    1.521108
  C     -0.462893    0.672492    1.297650
  C      2.439337    1.207033    2.073294
  C     -1.346979    3.285164   -0.563823
  C      2.766112   -0.231574    0.090680
  C     -1.457156    1.314386   -1.540443
  C      1.293646   -2.261653   -0.029659
  C     -2.677262   -0.221292    0.029421
  H      1.051638   -0.573527    2.564974
  H     -0.508309    1.221254    2.242140
  H      3.044832    1.995360    1.601932
  H      1.728152    1.658690    2.768315
  H      3.117195    0.556444    2.651110
  H     -2.460242    3.279305   -0.611496
  H     -1.020964    3.974617    0.223728
  H     -0.964044    3.660589   -1.531698
  H     -0.413350   -2.160481    1.061586
  H     -2.167541   -0.418162    1.965147
  H      3.128666   -1.964272   -0.939655
  H     -3.052850    0.129338   -2.037063

----------------------------
CARTESIAN COORDINATES (A.U.)
----------------------------
  NO LB      ZA    FRAG     MASS         X           Y           Z
   0 O     8.0000    0    15.999    7.178381    0.641448   -0.452973
   1 O     8.0000    0    15.999   -2.061350    3.082356   -5.066077
   2 O     8.0000    0    15.999    2.040753   -6.329910   -0.983152
   3 O     8.0000    0    15.999   -6.935666   -1.769172    0.354826
   4 N     7.0000    0    14.007    0.788011   -3.066895    1.533829
   5 N     7.0000    0    14.007   -3.360591   -0.007703    2.102671
   6 N     7.0000    0    14.007    4.699365   -2.906331   -0.529609
   7 N     7.0000    0    14.007   -4.676680    0.844517   -2.373532
   8 C     6.0000    0    12.011    3.236906    0.731075    1.900233
   9 C     6.0000    0    12.011   -1.558873    3.511117   -0.516334
  10 C     6.0000    0    12.011    1.433244   -0.794086    2.874478
  11 C     6.0000    0    12.011   -0.874741    1.270826    2.452202
  12 C     6.0000    0    12.011    4.609680    2.280961    3.917958
  13 C     6.0000    0    12.011   -2.545421    6.208060   -1.065471
  14 C     6.0000    0    12.011    5.227194   -0.437612    0.171361
  15 C     6.0000    0    12.011   -2.753626    2.483830   -2.911016
  16 C     6.0000    0    12.011    2.444636   -4.273905   -0.056048
  17 C     6.0000    0    12.011   -5.059292   -0.418182    0.055597
  18 H     1.0000    0     1.008    1.987308   -1.083808    4.847098
  19 H     1.0000    0     1.008   -0.960564    2.307835    4.237030
  20 H     1.0000    0     1.008    5.753899    3.770684    3.027213
  21 H     1.0000    0     1.008    3.265735    3.134470    5.231357
  22 H     1.0000    0     1.008    5.890645    1.051526    5.009872
  23 H     1.0000    0     1.008   -4.649183    6.196989   -1.155560
  24 H     1.0000    0     1.008   -1.929342    7.510937    0.422786
  25 H     1.0000    0     1.008   -1.821778    6.917511   -2.894490
  26 H     1.0000    0     1.008   -0.781118   -4.082717    2.006106
  27 H     1.0000    0     1.008   -4.096059   -0.790211    3.713590
  28 H     1.0000    0     1.008    5.912321   -3.711936   -1.775691
  29 H     1.0000    0     1.008   -5.769051    0.244414   -3.849492

--------------------------------
INTERNAL COORDINATES (ANGSTROEM)
--------------------------------
 O      0   0   0     0.000000000000     0.00000000     0.00000000
 O      1   0   0     3.276547224713     0.00000000     0.00000000
 O      2   1   0     4.190682946307    73.29092113     0.00000000
 O      2   1   3     4.518474637089   127.44709352    53.95475711
 N      3   2   1     2.267248928620    60.24193841    80.78937904
 N      4   2   1     2.268963619588    62.92622666    27.43118870
 N      1   2   3     2.256576334345    65.74096506   357.61235796
 N      2   1   3     2.254243334192   127.52491870    57.66431925
 C      1   2   3     2.394011413247    63.06732880   286.37055960
 C      9   1   2     1.571844755014   115.95449945   332.88544696
 C      5   3   2     1.439252850441   151.52652991   286.18182125
 C      6   4   2     1.431343055439   150.83977748   355.05159247
 C      9   1   2     1.521555738675    88.16429934   218.15250995
 C     10   9   1     1.519848178782   118.74569578   289.79399729
 C      1   2   3     1.205350858177    58.56645480   322.99572470
 C      2   1   3     1.206451409160    99.59764305    73.76644980
 C      3   2   1     1.209177686384    47.15301651    46.62139346
 C      4   2   1     1.209135524532    32.99112947    29.98848261
 H     11   5   3     1.089889985995   112.18610762   269.23059945
 H     12   6   4     1.086162016425   109.29975388   150.93446994
 H     13   9   1     1.085082907080   110.22864580    44.99621095
 H     13   9   1     1.087703567048   111.61009477   166.52742608
 H     13   9   1     1.088144232014   109.57581940   286.25790409
 H     14  10   9     1.089253537592   110.20351681   187.26232421
 H     14  10   9     1.086403685061   110.99745457   307.14572518
 H     14  10   9     1.087208412008   109.89763282    67.87223600
 H      5   3   2     1.005273831639    87.18304645   127.88417897
 H      6   4   2     1.003794133283    88.13320973   180.35863417
 H      7   1   2     1.007707668772    89.77821731   104.06503618
 H      8   2   1     1.007966045578    89.29448577   210.74819076

---------------------------
INTERNAL COORDINATES (A.U.)
---------------------------
 O      0   0   0     0.000000000000     0.00000000     0.00000000
 O      1   0   0     6.191776919568     0.00000000     0.00000000
 O      2   1   0     7.919243082615    73.29092113     0.00000000
 O      2   1   3     8.538679607168   127.44709352    53.95475711
 N      3   2   1     4.284479552517    60.24193841    80.78937904
 N      4   2   1     4.287719848851    62.92622666    27.43118870
 N      1   2   3     4.264311272200    65.74096506   357.61235796
 N      2   1   3     4.259902540841   127.52491870    57.66431925
 C      1   2   3     4.524025932519    63.06732880   286.37055960
 C      9   1   2     2.970356112017   115.95449945   332.88544696
 C      5   3   2     2.719793724800   151.52652991   286.18182125
 C      6   4   2     2.704846378470   150.83977748   355.05159247
 C      9   1   2     2.875323643591    88.16429934   218.15250995
 C     10   9   1     2.872096823037   118.74569578   289.79399729
 C      1   2   3     2.277783017241    58.56645480   322.99572470
 C      2   1   3     2.279862757196    99.59764305    73.76644980
 C      3   2   1     2.285014674514    47.15301651    46.62139346
 C      4   2   1     2.284935000161    32.99112947    29.98848261
 H     11   5   3     2.059593589634   112.18610762   269.23059945
 H     12   6   4     2.052548748110   109.29975388   150.93446994
 H     13   9   1     2.050509526980   110.22864580    44.99621095
 H     13   9   1     2.055461856610   111.61009477   166.52742608
 H     13   9   1     2.056294592713   109.57581940   286.25790409
 H     14  10   9     2.058390876454   110.20351681   187.26232421
 H     14  10   9     2.053005435648   110.99745457   307.14572518
 H     14  10   9     2.054526149191   109.89763282    67.87223600
 H      5   3   2     1.899692231395    87.18304645   127.88417897
 H      6   4   2     1.896896006743    88.13320973   180.35863417
 H      7   1   2     1.904291517032    89.77821731   104.06503618
 H      8   2   1     1.904779778434    89.29448577   210.74819076

---------------------
BASIS SET INFORMATION
---------------------
There are 4 groups of distinct atoms

 Group   1 Type O   : 12s7p3d1f contracted to 6s4p3d1f pattern {621111/4111/111/1}
 Group   2 Type N   : 12s6p3d1f contracted to 6s3p3d1f pattern {621111/411/111/1}
 Group   3 Type C   : 12s6p3d1f contracted to 6s3p3d1f pattern {621111/411/111/1}
 Group   4 Type H   : 5s3p1d contracted to 3s3p1d pattern {311/111/1}

Atom   0O    basis set group =>   1
Atom   1O    basis set group =>   1
Atom   2O    basis set group =>   1
Atom   3O    basis set group =>   1
Atom   4N    basis set group =>   2
Atom   5N    basis set group =>   2
Atom   6N    basis set group =>   2
Atom   7N    basis set group =>   2
Atom   8C    basis set group =>   3
Atom   9C    basis set group =>   3
Atom  10C    basis set group =>   3
Atom  11C    basis set group =>   3
Atom  12C    basis set group =>   3
Atom  13C    basis set group =>   3
Atom  14C    basis set group =>   3
Atom  15C    basis set group =>   3
Atom  16C    basis set group =>   3
Atom  17C    basis set group =>   3
Atom  18H    basis set group =>   4
Atom  19H    basis set group =>   4
Atom  20H    basis set group =>   4
Atom  21H    basis set group =>   4
Atom  22H    basis set group =>   4
Atom  23H    basis set group =>   4
Atom  24H    basis set group =>   4
Atom  25H    basis set group =>   4
Atom  26H    basis set group =>   4
Atom  27H    basis set group =>   4
Atom  28H    basis set group =>   4
Atom  29H    basis set group =>   4
---------------------------------
AUXILIARY/J BASIS SET INFORMATION
---------------------------------
There are 4 groups of distinct atoms

 Group   1 Type O   : 12s5p4d2f1g contracted to 6s4p3d1f1g pattern {711111/2111/211/2/1}
 Group   2 Type N   : 12s5p4d2f1g contracted to 6s4p3d1f1g pattern {711111/2111/211/2/1}
 Group   3 Type C   : 12s5p4d2f1g contracted to 6s4p3d1f1g pattern {711111/2111/211/2/1}
 Group   4 Type H   : 5s2p1d contracted to 3s1p1d pattern {311/2/1}

Atom   0O    basis set group =>   1
Atom   1O    basis set group =>   1
Atom   2O    basis set group =>   1
Atom   3O    basis set group =>   1
Atom   4N    basis set group =>   2
Atom   5N    basis set group =>   2
Atom   6N    basis set group =>   2
Atom   7N    basis set group =>   2
Atom   8C    basis set group =>   3
Atom   9C    basis set group =>   3
Atom  10C    basis set group =>   3
Atom  11C    basis set group =>   3
Atom  12C    basis set group =>   3
Atom  13C    basis set group =>   3
Atom  14C    basis set group =>   3
Atom  15C    basis set group =>   3
Atom  16C    basis set group =>   3
Atom  17C    basis set group =>   3
Atom  18H    basis set group =>   4
Atom  19H    basis set group =>   4
Atom  20H    basis set group =>   4
Atom  21H    basis set group =>   4
Atom  22H    basis set group =>   4
Atom  23H    basis set group =>   4
Atom  24H    basis set group =>   4
Atom  25H    basis set group =>   4
Atom  26H    basis set group =>   4
Atom  27H    basis set group =>   4
Atom  28H    basis set group =>   4
Atom  29H    basis set group =>   4


           ************************************************************
           *        Program running with 32 parallel MPI-processes    *
           *              working on a common directory               *
           ************************************************************
------------------------------------------------------------------------------
                             ORCA STARTUP CALCULATIONS
                           -- RI-GTO INTEGRALS CHOSEN --
------------------------------------------------------------------------------
------------------------------------------------------------------------------
                   ___                                                        
                  /   \      - P O W E R E D   B Y -                         
                 /     \                                                     
                 |  |  |   _    _      __       _____    __    __             
                 |  |  |  | |  | |    /  \     |  _  \  |  |  /  |          
                  \  \/   | |  | |   /    \    | | | |  |  | /  /          
                 / \  \   | |__| |  /  /\  \   | |_| |  |  |/  /          
                |  |  |   |  __  | /  /__\  \  |    /   |      \           
                |  |  |   | |  | | |   __   |  |    \   |  |\   \          
                \     /   | |  | | |  |  |  |  | |\  \  |  | \   \       
                 \___/    |_|  |_| |__|  |__|  |_| \__\ |__|  \__/        
                                                                              
                      - O R C A' S   B I G   F R I E N D -                    
                                      &                                       
                       - I N T E G R A L  F E E D E R -                       
                                                                              
 v1 FN, 2020, v2 2021, v3 2022-2024                                           
------------------------------------------------------------------------------


----------------------
SHARK INTEGRAL PACKAGE
----------------------

Number of atoms                             ...     30
Number of basis functions                   ...    882
Number of shells                            ...    322
Maximum angular momentum                    ...      3
Integral batch strategy                     ... SHARK/LIBINT Hybrid
RI-J (if used) integral strategy            ... SPLIT-RIJ (Revised 2003 algorithm where possible)
Printlevel                                  ...      1
Contraction scheme used                     ... SEGMENTED contraction
Prescreening option                         ... SCHWARTZ
   Thresh                                   ... 2.500e-11
   Tcut                                     ... 2.500e-12
   Tpresel                                  ... 2.500e-12 
Coulomb Range Separation                    ... NOT USED
Exchange Range Separation                   ... Long Range
   Mu parameter                             ... 3.000e-01
   Scaling (regular/separated)              ... 1.500e-01 8.500e-01
Multipole approximations                    ... NOT USED
Finite Nucleus Model                        ... NOT USED
CABS basis                                  ... NOT available
Auxiliary Coulomb fitting basis             ... AVAILABLE
   # of basis functions in Aux-J            ...   1014
   # of shells in Aux-J                     ...    330
   Maximum angular momentum in Aux-J        ...      4
Auxiliary J/K fitting basis                 ... NOT available
Auxiliary Correlation fitting basis         ... NOT available
Auxiliary 'external' fitting basis          ... NOT available

Checking pre-screening integrals            ... done (  0.0 sec) Dimension = 322
Check shell pair data                       ... done (  0.0 sec)
Shell pair information
Shell pair cut-off parameter TPreSel        ...   2.5e-12
Total number of shell pairs                 ...     52003
Shell pairs after pre-screening             ...     43163
Total number of primitive shell pairs       ...    129718
Primitive shell pairs kept                  ...     80068
          la=0 lb=0:   8403 shell pairs
          la=1 lb=0:  11489 shell pairs
          la=1 lb=1:   3964 shell pairs
          la=2 lb=0:   7775 shell pairs
          la=2 lb=1:   5354 shell pairs
          la=2 lb=2:   1838 shell pairs
          la=3 lb=0:   1926 shell pairs
          la=3 lb=1:   1375 shell pairs
          la=3 lb=2:    922 shell pairs
          la=3 lb=3:    117 shell pairs

Calculating one electron integrals          ... done (  0.1 sec)
Calculating RI/J V-Matrix + Cholesky decomp.... done (  0.0 sec)
Calculating Nuclear repulsion               ... done (  0.0 sec) ENN=   1359.463135901642 Eh

Diagonalization of the overlap matrix:
Smallest eigenvalue                        ... 6.890e-07
Time for diagonalization                   ...    0.163 sec
Threshold for overlap eigenvalues          ... 1.000e-07
Number of eigenvalues below threshold      ... 0

IMPORTANT:
Smallest eigenvalue of S below the DiffSThresh (1.000e-06) while
Thresh>1e-12 and/or TCut>1e-13! In order to avoid SCF convergence issues,
Thresh will be set to at least 1e-12 and TCut to at least 1e-13.
This can be turned off by adding %SCF DiffSThresh -1 END to the input.

Time for construction of square roots      ...    0.086 sec
Total time needed                          ...    0.256 sec

-------------------
DFT GRID GENERATION
-------------------

General Integration Accuracy     IntAcc      ... 4.388
Radial Grid Type                 RadialGrid  ... OptM3 with GC (2021)
Angular Grid (max. ang.)         AngularGrid ... 4 (Lebedev-302)
Angular grid pruning method      GridPruning ... 4 (adaptive)
Weight generation scheme         WeightScheme... mBecke (2022)
Basis function cutoff            BFCut       ... 1.0000e-11
Integration weight cutoff        WCut        ... 1.0000e-14
Partially contracted basis set               ... off
Rotationally invariant grid construction     ... off
Angular grids for H and He will be reduced by one unit
Diffuse basis detected: some atoms will have their outermost
                        angular grid increased by 1.

Total number of grid points                  ...   152952
Total number of batches                      ...     2406
Average number of points per batch           ...       63
Average number of grid points per atom       ...     5098

--------------------
COSX GRID GENERATION
--------------------

GRIDX 1
-------
General Integration Accuracy     IntAcc      ... 3.816
Radial Grid Type                 RadialGrid  ... OptM3 with GC (2021)
Angular Grid (max. ang.)         AngularGrid ... 1 (Lebedev-50)
Angular grid pruning method      GridPruning ... 4 (adaptive)
Weight generation scheme         WeightScheme... mBecke (2022)
Basis function cutoff            BFCut       ... 1.0000e-11
Integration weight cutoff        WCut        ... 1.0000e-14
Partially contracted basis set               ... on
Rotationally invariant grid construction     ... off
Angular grids for H and He will be reduced by one unit
Diffuse basis detected: some atoms will have their outermost
                        angular grid increased by 1.

Total number of grid points                  ...    19165
Total number of batches                      ...      167
Average number of points per batch           ...      114
Average number of grid points per atom       ...      639
UseSFitting                                  ... on

GRIDX 2
-------
General Integration Accuracy     IntAcc      ... 4.020
Radial Grid Type                 RadialGrid  ... OptM3 with GC (2021)
Angular Grid (max. ang.)         AngularGrid ... 2 (Lebedev-110)
Angular grid pruning method      GridPruning ... 4 (adaptive)
Weight generation scheme         WeightScheme... mBecke (2022)
Basis function cutoff            BFCut       ... 1.0000e-11
Integration weight cutoff        WCut        ... 1.0000e-14
Partially contracted basis set               ... on
Rotationally invariant grid construction     ... off
Angular grids for H and He will be reduced by one unit
Diffuse basis detected: some atoms will have their outermost
                        angular grid increased by 1.

Total number of grid points                  ...    46473
Total number of batches                      ...      376
Average number of points per batch           ...      123
Average number of grid points per atom       ...     1549
UseSFitting                                  ... on

GRIDX 3
-------
General Integration Accuracy     IntAcc      ... 4.338
Radial Grid Type                 RadialGrid  ... OptM3 with GC (2021)
Angular Grid (max. ang.)         AngularGrid ... 3 (Lebedev-194)
Angular grid pruning method      GridPruning ... 4 (adaptive)
Weight generation scheme         WeightScheme... mBecke (2022)
Basis function cutoff            BFCut       ... 1.0000e-11
Integration weight cutoff        WCut        ... 1.0000e-14
Partially contracted basis set               ... on
Rotationally invariant grid construction     ... off
Angular grids for H and He will be reduced by one unit
Diffuse basis detected: some atoms will have their outermost
                        angular grid increased by 1.

Total number of grid points                  ...   102312
Total number of batches                      ...      817
Average number of points per batch           ...      125
Average number of grid points per atom       ...     3410
UseSFitting                                  ... on
Initializing property integral containers    ... done (  0.0 sec)

SHARK setup successfully completed in   3.3 seconds

Maximum memory used throughout the entire STARTUP-calculation: 78.9 MB


           ************************************************************
           *        Program running with 32 parallel MPI-processes    *
           *              working on a common directory               *
           ************************************************************
-------------------------------------------------------------------------------
                                 ORCA GUESS
                   Start orbitals & Density for SCF / CASSCF
-------------------------------------------------------------------------------

------------
SCF SETTINGS
------------
Hamiltonian:
 Density Functional     Method          .... DFT(GTOs)
  Functional kind                       .... Exchange-Correlation
  Functional name                       .... wB97M-V exchange-correlation functional
  Functional family                     .... Hybrid MGGA
  Functional refs                              
    [ 0] N. Mardirossian and M. Head-Gordon.,  J. Chem. Phys. 144, 214110 (2016), doi: 10.1063/1.4952647
  Fraction of HF Exchange (short range) .... 0.1500
  Fraction of HF Exchange (long range)  .... 1.0000
  Range separation parameter mu         .... 0.3000
  Functional external parameters        .... 17
    Parameter  0 _cx00      =  8.500000e-01 : u^00 coefficient for exchange
    Parameter  1 _cx01      =  1.007000e+00 : u^01 coefficient for exchange
    Parameter  2 _cx10      =  2.590000e-01 : u^10 coefficient for exchange
    Parameter  3 _css00     =  4.430000e-01 : u^00 coefficient for same-spin correlation
    Parameter  4 _css04     = -1.437000e+00 : u^04 coefficient for same-spin correlation
    Parameter  5 _css10     = -4.535000e+00 : u^10 coefficient for same-spin correlation
    Parameter  6 _css20     = -3.390000e+00 : u^20 coefficient for same-spin correlation
    Parameter  7 _css43     =  4.278000e+00 : u^43 coefficient for same-spin correlation
    Parameter  8 _cos00     =  1.000000e+00 : u^00 coefficient for opposite-spin correlation
    Parameter  9 _cos10     =  1.358000e+00 : u^10 coefficient for opposite-spin correlation
    Parameter 10 _cos20     =  2.924000e+00 : u^20 coefficient for opposite-spin correlation
    Parameter 11 _cos21     = -8.812000e+00 : u^21 coefficient for opposite-spin correlation
    Parameter 12 _cos60     = -1.390000e+00 : u^60 coefficient for opposite-spin correlation
    Parameter 13 _cos61     =  9.142000e+00 : u^61 coefficient for opposite-spin correlation
    Parameter 14 _alpha     =  1.000000e+00 : fraction of HF exchange
    Parameter 15 _beta      = -8.500000e-01 : fraction of short-range exchange
    Parameter 16 _omega     =  3.000000e-01 : range-separation constant
 Long-range corrected/Screened/Range-Separated Hybrid DFT is turned on
   Amount of maximum screened exact exchange              ....  0.850000
   Range separation parameter mu (erf(mu*r12)/r12)        ....  0.300000
 RI-approximation to the Coulomb term is turned on
   Number of AuxJ basis functions       .... 1014
   RIJ-COSX (HFX calculated with COS-X)).... on


General Settings:
 Integral files         IntName         .... orca
 Hartree-Fock type      HFTyp           .... RHF
 Total Charge           Charge          ....    0
 Multiplicity           Mult            ....    1
 Number of Electrons    NEL             ....  132
 Basis Dimension        Dim             ....  882
 Nuclear Repulsion      ENuc            ....   1359.4631359016 Eh

Convergence Acceleration:
 AO-DIIS                CNVDIIS         .... on
   Start iteration      DIISMaxIt       ....    12
   Startup error        DIISStart       ....  0.200000
   # of expansion vecs  DIISMaxEq       ....     5
   Bias factor          DIISBfac        ....   1.050
   Max. coefficient     DIISMaxC        ....  10.000
 MO-DIIS                CNVKDIIS        .... off
 Trust-Rad. Augm. Hess. CNVTRAH         .... auto
   Auto Start mean grad. ratio tolernc. ....  1.125000
   Auto Start start iteration           ....    50
   Auto Start num. interpolation iter.  ....    10
   Max. Number of Micro iterations      ....    24
   Max. Number of Macro iterations      .... Maxiter - #DIIS iter
   Number of Davidson start vectors     ....     2
   Converg. threshold    (grad. norm)   ....   1.000e-05
   Grad. Scal. Fac. for Micro threshold ....   0.100
   Minimum threshold for Micro iter.    ....   1.000e-02
   NR start threshold (gradient norm)   ....   1.000e-04
   Initial trust radius                 ....   0.400
   Minimum AH scaling param. (alpha)    ....   1.000
   Maximum AH scaling param. (alpha)    .... 1000.000
   Quad. conv. algorithm                .... NR
   White noise on init. David. guess    .... on
   Maximum white noise                  ....   0.010
   Pseudo random numbers                .... off
   Inactive MOs                         .... canonical
   Orbital update algorithm             .... Taylor
   Preconditioner                       .... Diag
   Full preconditioner red. dimension   ....   250
 SOSCF                  CNVSOSCF        .... on
   Start iteration      SOSCFMaxIt      ....   150
   Startup grad/error   SOSCFStart      ....  0.003300
   Hessian update       SOSCFHessUp     .... L-BFGS
 Level Shifting         CNVShift        .... on
   Level shift para.    LevelShift      ....    0.2500
   Turn off err/grad.   ShiftErr        ....    0.0010
 Zerner damping         CNVZerner       .... off
 Static damping         CNVDamp         .... on
   Fraction old density DampFac         ....    0.7000
   Max. Damping (<1)    DampMax         ....    0.9800
   Min. Damping (>=0)   DampMin         ....    0.0000
   Turn off err/grad.   DampErr         ....    0.1000

SCF Procedure:
 Maximum # iterations   MaxIter         ....   125
 SCF integral mode      SCFMode         .... Direct
   Integral package                     .... SHARK and LIBINT hybrid scheme
 Reset frequency        DirectResetFreq ....    20
 Integral Threshold     Thresh          ....  1.000e-12 Eh
 Primitive CutOff       TCut            ....  1.000e-13 Eh

Convergence Tolerance:
 Convergence Check Mode ConvCheckMode   .... Total+1el-Energy
 Convergence forced     ConvForced      .... 0
 Energy Change          TolE            ....  1.000e-08 Eh
 1-El. energy change                    ....  1.000e-05 Eh
 Orbital Gradient       TolG            ....  1.000e-05
 Orbital Rotation angle TolX            ....  1.000e-05
 DIIS Error             TolErr          ....  5.000e-07

------------------------------
INITIAL GUESS: MODEL POTENTIAL
------------------------------
Loading Hartree-Fock densities                     ... done
Calculating cut-offs                               ... done
Initializing the effective Hamiltonian             ... done
Setting up the integral package (SHARK)            ... done
Starting the Coulomb interaction                   ... done (   0.2 sec)
Making the grid                                    ... done (   0.3 sec)
Mapping shells                                     ... done
Starting the XC term evaluation                    ... done (   0.2 sec)
  promolecular density results
     # of electrons  =    131.992745902
     EX              =   -113.361919128
     EC              =     -4.455705040
     EX+EC           =   -117.817624167
Transforming the Hamiltonian                       ... done (   0.1 sec)
Diagonalizing the Hamiltonian                      ... done (   0.2 sec)
Back transforming the eigenvectors                 ... done (   0.0 sec)
Now organizing SCF variables                       ... done
                      ------------------
                      INITIAL GUESS DONE (   1.0 sec)
                      ------------------
             **** ENERGY FILE WAS UPDATED (orca.en.tmp) ****
Finished Guess after   1.7 sec
Maximum memory used throughout the entire GUESS-calculation: 71.1 MB


           ************************************************************
           *        Program running with 32 parallel MPI-processes    *
           *              working on a common directory               *
           ************************************************************

-------------------------------------------------------------------------------------------
                                      ORCA LEAN-SCF
                              memory conserving SCF solver
-------------------------------------------------------------------------------------------

----------------------------------------D-I-I-S--------------------------------------------
Iteration    Energy (Eh)           Delta-E    RMSDP     MaxDP     DIISErr   Damp  Time(sec)
-------------------------------------------------------------------------------------------
               ***  Starting incremental Fock matrix formation  ***
    1    -907.7195747174141616     0.00e+00  3.05e-03  4.25e-01  3.01e-01  0.700  12.3
Warning: op=0 Small HOMO/LUMO gap (   0.056) - skipping pre-diagonalization
         Will do a full diagonalization
    2    -908.0758426966394836    -3.56e-01  2.34e-03  2.55e-01  1.41e-01  0.700   7.2
                               ***Turning on AO-DIIS***
    3    -908.2154282033338859    -1.40e-01  1.50e-03  1.55e-01  5.39e-02  0.700   6.6
    4    -908.3036768806600776    -8.82e-02  3.64e-03  7.64e-01  3.14e-02  0.000   6.4
    5    -908.5125521355889759    -2.09e-01  6.69e-04  2.11e-01  8.10e-03  0.000   6.6
    6    -908.5149964085680949    -2.44e-03  4.04e-04  8.67e-02  6.20e-03  0.000   6.2
    7    -908.5164876552980786    -1.49e-03  2.93e-04  5.74e-02  3.79e-03  0.000   6.0
    8    -908.5175062573798641    -1.02e-03  2.84e-04  5.34e-02  3.85e-03  0.000   6.0
                              *** Initializing SOSCF ***
---------------------------------------S-O-S-C-F--------------------------------------
Iteration    Energy (Eh)           Delta-E    RMSDP     MaxDP     MaxGrad    Time(sec)
--------------------------------------------------------------------------------------
    9    -908.5184556400618021    -9.49e-04  2.56e-04  3.74e-02  2.72e-03     6.4
               *** Restarting incremental Fock matrix formation ***
   10    -908.5191689852413219    -7.13e-04  5.63e-04  5.81e-02  4.62e-03    12.1
   11    -908.5195452953475979    -3.76e-04  1.19e-03  1.18e-01  3.38e-03    10.5
   12    -908.5201759470246543    -6.31e-04  7.69e-04  8.14e-02  8.80e-04    10.8
   13    -908.5202379956308505    -6.20e-05  3.11e-04  2.94e-02  5.04e-04    10.4
   14    -908.5202490274996308    -1.10e-05  8.02e-05  6.74e-03  2.22e-04    10.1
   15    -908.5202527313476821    -3.70e-06  5.94e-05  5.58e-03  7.35e-05     9.7
   16    -908.5202533048427540    -5.73e-07  7.34e-06  6.32e-04  4.82e-05     9.5
   17    -908.5202536775714179    -3.73e-07  9.65e-06  7.79e-04  3.55e-05     8.9
   18    -908.5202537701643450    -9.26e-08  2.63e-06  3.54e-04  1.85e-05     8.9
   19    -908.5202538165453916    -4.64e-08  2.52e-06  3.08e-04  6.41e-06     8.3
   20    -908.5202538368325804    -2.03e-08  1.18e-06  1.49e-04  3.92e-06     8.2
   21    -908.5202537655959532     7.12e-08  1.36e-06  2.92e-04  1.75e-06     7.7
                  *** Gradient check signals convergence ***

               *****************************************************
               *                     SUCCESS                       *
               *           SCF CONVERGED AFTER  21 CYCLES          *
               *****************************************************

Recomputing exchange energy using gridx3       ... done (   19.593 sec)
Old exchange energy                            :    -34.886660201 Eh
New exchange energy                            :    -34.886661411 Eh
Exchange energy change after final integration :     -0.000001209 Eh
Total energy after final integration           :   -908.520254975 Eh
             **** ENERGY FILE WAS UPDATED (orca.en.tmp) ****

----------------
TOTAL SCF ENERGY
----------------

Total Energy       :       -908.52025497494651 Eh          -24722.09298 eV

Components:
Nuclear Repulsion  :       1359.46313590164209 Eh           36992.87261 eV
Electronic Energy  :      -2267.98338966723804 Eh          -61714.96556 eV
One Electron Energy:      -3935.88726528491770 Eh         -107100.93739 eV
Two Electron Energy:       1667.90387561767966 Eh           45385.97183 eV

Virial components:
Potential Energy   :      -1812.98044220825909 Eh          -49333.70591 eV
Kinetic Energy     :        904.46018723331258 Eh           24611.61292 eV
Virial Ratio       :          2.00448894025292

DFT components:
N(Alpha)           :       65.999997374377 electrons
N(Beta)            :       65.999997374377 electrons
N(Total)           :      131.999994748753 electrons
E(XC)              :      -85.948574969087 Eh       

---------------
SCF CONVERGENCE
---------------

  Last Energy change         ...   -7.1237e-08  Tolerance :   1.0000e-08
  Last MAX-Density change    ...    2.9229e-04  Tolerance :   1.0000e-07
  Last RMS-Density change    ...    1.3562e-06  Tolerance :   5.0000e-09
  Last DIIS Error            ...    2.7224e-03  Tolerance :   5.0000e-07
  Last Orbital Gradient      ...    1.7477e-06  Tolerance :   1.0000e-05
  Last Orbital Rotation      ...    6.0057e-06  Tolerance :   1.0000e-05


----------------
ORBITAL ENERGIES
----------------

  NO   OCC          E(Eh)            E(eV) 
   0   2.0000     -19.345815      -526.4264 
   1   2.0000     -19.338669      -526.2319 
   2   2.0000     -19.321674      -525.7695 
   3   2.0000     -19.321583      -525.7670 
   4   2.0000     -14.583882      -396.8476 
   5   2.0000     -14.581461      -396.7817 
   6   2.0000     -14.564000      -396.3066 
   7   2.0000     -14.561711      -396.2443 
   8   2.0000     -10.541791      -286.8567 
   9   2.0000     -10.509125      -285.9678 
  10   2.0000     -10.500643      -285.7370 
  11   2.0000     -10.498355      -285.6748 
  12   2.0000     -10.478476      -285.1338 
  13   2.0000     -10.460531      -284.6455 
  14   2.0000     -10.444293      -284.2037 
  15   2.0000     -10.403638      -283.0974 
  16   2.0000     -10.389820      -282.7214 
  17   2.0000     -10.371772      -282.2303 
  18   2.0000      -1.216824       -33.1115 
  19   2.0000      -1.212137       -32.9839 
  20   2.0000      -1.192006       -32.4361 
  21   2.0000      -1.181153       -32.1408 
  22   2.0000      -1.113685       -30.3049 
  23   2.0000      -1.089662       -29.6512 
  24   2.0000      -1.069409       -29.1001 
  25   2.0000      -1.052069       -28.6282 
  26   2.0000      -0.985880       -26.8272 
  27   2.0000      -0.932917       -25.3860 
  28   2.0000      -0.877022       -23.8650 
  29   2.0000      -0.829249       -22.5650 
  30   2.0000      -0.802434       -21.8353 
  31   2.0000      -0.788459       -21.4551 
  32   2.0000      -0.784208       -21.3394 
  33   2.0000      -0.775378       -21.0991 
  34   2.0000      -0.702482       -19.1155 
  35   2.0000      -0.687469       -18.7070 
  36   2.0000      -0.684211       -18.6183 
  37   2.0000      -0.659911       -17.9571 
  38   2.0000      -0.639862       -17.4115 
  39   2.0000      -0.637874       -17.3574 
  40   2.0000      -0.618150       -16.8207 
  41   2.0000      -0.600331       -16.3358 
  42   2.0000      -0.597718       -16.2647 
  43   2.0000      -0.584078       -15.8936 
  44   2.0000      -0.573063       -15.5938 
  45   2.0000      -0.572444       -15.5770 
  46   2.0000      -0.563280       -15.3276 
  47   2.0000      -0.552362       -15.0305 
  48   2.0000      -0.547599       -14.9009 
  49   2.0000      -0.544706       -14.8222 
  50   2.0000      -0.540488       -14.7074 
  51   2.0000      -0.532159       -14.4808 
  52   2.0000      -0.519818       -14.1450 
  53   2.0000      -0.498687       -13.5700 
  54   2.0000      -0.493801       -13.4370 
  55   2.0000      -0.479715       -13.0537 
  56   2.0000      -0.470215       -12.7952 
  57   2.0000      -0.427507       -11.6331 
  58   2.0000      -0.412236       -11.2175 
  59   2.0000      -0.407395       -11.0858 
  60   2.0000      -0.399426       -10.8689 
  61   2.0000      -0.395804       -10.7704 
  62   2.0000      -0.392470       -10.6796 
  63   2.0000      -0.389143       -10.5891 
  64   2.0000      -0.380028       -10.3411 
  65   2.0000      -0.269861        -7.3433 
  66   0.0000      -0.099108        -2.6969 
  67   0.0000      -0.005989        -0.1630 
  68   0.0000       0.007519         0.2046 
  69   0.0000       0.026635         0.7248 
  70   0.0000       0.031518         0.8576 
  71   0.0000       0.035393         0.9631 
  72   0.0000       0.050165         1.3650 
  73   0.0000       0.053678         1.4607 
  74   0.0000       0.057312         1.5595 
  75   0.0000       0.060104         1.6355 
  76   0.0000       0.063090         1.7168 
*Only the first 10 virtual orbitals were printed.

                    ********************************
                    * MULLIKEN POPULATION ANALYSIS *
                    ********************************

-----------------------
MULLIKEN ATOMIC CHARGES
-----------------------
   0 O :   -0.641063
   1 O :   -0.634038
   2 O :   -0.642774
   3 O :   -0.619681
   4 N :   -0.170064
   5 N :   -0.316173
   6 N :   -0.027805
   7 N :    0.006126
   8 C :    0.551625
   9 C :    0.213661
  10 C :    0.280460
  11 C :   -0.135913
  12 C :   -1.614374
  13 C :   -1.321818
  14 C :    0.244690
  15 C :    0.609023
  16 C :    0.416300
  17 C :    0.435596
  18 H :    0.377858
  19 H :    0.580849
  20 H :    0.355737
  21 H :    0.329518
  22 H :    0.425807
  23 H :    0.332023
  24 H :    0.314384
  25 H :    0.317630
  26 H :    0.079858
  27 H :    0.095823
  28 H :    0.076466
  29 H :    0.080268
Sum of atomic charges:   -0.0000000

--------------------------------
MULLIKEN REDUCED ORBITAL CHARGES
--------------------------------
  0 O s       :     4.065992  s :     4.065992
      pz      :     1.519788  p :     4.541247
      px      :     1.362128
      py      :     1.659331
      dz2     :     0.004955  d :     0.031953
      dxz     :     0.006864
      dyz     :     0.004642
      dx2y2   :     0.009076
      dxy     :     0.006416
      f0      :     0.000154  f :     0.001870
      f+1     :     0.000262
      f-1     :     0.000107
      f+2     :     0.000151
      f-2     :     0.000319
      f+3     :     0.000467
      f-3     :     0.000411

  1 O s       :     4.074398  s :     4.074398
      pz      :     1.351207  p :     4.524286
      px      :     1.612020
      py      :     1.561059
      dz2     :     0.011277  d :     0.033516
      dxz     :     0.010591
      dyz     :     0.010076
      dx2y2   :     0.000832
      dxy     :     0.000740
      f0      :     0.000502  f :     0.001838
      f+1     :     0.000487
      f-1     :     0.000433
      f+2     :     0.000229
      f-2     :     0.000175
      f+3     :     0.000006
      f-3     :     0.000007

  2 O s       :     4.070565  s :     4.070565
      pz      :     1.514855  p :     4.538545
      px      :     1.717152
      py      :     1.306538
      dz2     :     0.005507  d :     0.031722
      dxz     :     0.002158
      dyz     :     0.009789
      dx2y2   :     0.008734
      dxy     :     0.005535
      f0      :     0.000138  f :     0.001943
      f+1     :     0.000030
      f-1     :     0.000449
      f+2     :     0.000351
      f-2     :     0.000234
      f+3     :     0.000357
      f-3     :     0.000385

  3 O s       :     4.070256  s :     4.070256
      pz      :     1.750684  p :     4.517158
      px      :     1.359185
      py      :     1.407289
      dz2     :     0.002789  d :     0.030367
      dxz     :     0.003307
      dyz     :     0.000840
      dx2y2   :     0.013793
      dxy     :     0.009637
      f0      :     0.000214  f :     0.001899
      f+1     :     0.000229
      f-1     :     0.000145
      f+2     :     0.000072
      f-2     :     0.000287
      f+3     :     0.000540
      f-3     :     0.000412

  4 N s       :     3.587115  s :     3.587115
      pz      :     1.317912  p :     3.543985
      px      :     1.117444
      py      :     1.108630
      dz2     :     0.010888  d :     0.035379
      dxz     :     0.012310
      dyz     :    -0.000710
      dx2y2   :     0.010850
      dxy     :     0.002041
      f0      :     0.000411  f :     0.003585
      f+1     :     0.000425
      f-1     :     0.000616
      f+2     :     0.000728
      f-2     :     0.000657
      f+3     :     0.000429
      f-3     :     0.000319

  5 N s       :     3.658580  s :     3.658580
      pz      :     1.001507  p :     3.580676
      px      :     1.038329
      py      :     1.540840
      dz2     :     0.010448  d :     0.073713
      dxz     :     0.020336
      dyz     :     0.021815
      dx2y2   :     0.010188
      dxy     :     0.010925
      f0      :     0.000366  f :     0.003203
      f+1     :     0.000508
      f-1     :     0.000199
      f+2     :     0.000395
      f-2     :     0.000504
      f+3     :     0.000557
      f-3     :     0.000674

  6 N s       :     3.493615  s :     3.493615
      pz      :     1.360666  p :     3.474031
      px      :     1.087860
      py      :     1.025505
      dz2     :     0.000988  d :     0.056627
      dxz     :     0.006891
      dyz     :     0.016485
      dx2y2   :     0.028750
      dxy     :     0.003512
      f0      :     0.000425  f :     0.003532
      f+1     :     0.000356
      f-1     :     0.000494
      f+2     :     0.000419
      f-2     :     0.000442
      f+3     :     0.000716
      f-3     :     0.000679

  7 N s       :     3.445176  s :     3.445176
      pz      :     0.991486  p :     3.489668
      px      :     1.221211
      py      :     1.276972
      dz2     :     0.025319  d :     0.055614
      dxz     :     0.004216
      dyz     :    -0.000779
      dx2y2   :     0.009192
      dxy     :     0.017665
      f0      :     0.000482  f :     0.003416
      f+1     :     0.000323
      f-1     :     0.000542
      f+2     :     0.000260
      f-2     :     0.000659
      f+3     :     0.000577
      f-3     :     0.000574

  8 C s       :     3.238302  s :     3.238302
      pz      :     0.721355  p :     2.275232
      px      :     0.760460
      py      :     0.793417
      dz2     :     0.033681  d :    -0.073489
      dxz     :    -0.044059
      dyz     :     0.021383
      dx2y2   :    -0.047621
      dxy     :    -0.036873
      f0      :     0.000648  f :     0.008330
      f+1     :     0.001296
      f-1     :     0.001190
      f+2     :     0.001305
      f-2     :     0.001559
      f+3     :     0.001544
      f-3     :     0.000789

  9 C s       :     3.403876  s :     3.403876
      pz      :     0.839284  p :     2.463398
      px      :     0.854315
      py      :     0.769799
      dz2     :    -0.030890  d :    -0.086391
      dxz     :     0.007300
      dyz     :    -0.017475
      dx2y2   :    -0.055426
      dxy     :     0.010101
      f0      :     0.000982  f :     0.005456
      f+1     :     0.000794
      f-1     :     0.000773
      f+2     :     0.000747
      f-2     :     0.000801
      f+3     :     0.000569
      f-3     :     0.000791

 10 C s       :     3.275318  s :     3.275318
      pz      :     0.691902  p :     2.253874
      px      :     0.993340
      py      :     0.568633
      dz2     :     0.123407  d :     0.179418
      dxz     :     0.074498
      dyz     :    -0.060657
      dx2y2   :     0.014815
      dxy     :     0.027355
      f0      :     0.000877  f :     0.010930
      f+1     :     0.001011
      f-1     :     0.002111
      f+2     :     0.001387
      f-2     :     0.001762
      f+3     :     0.001920
      f-3     :     0.001861

 11 C s       :     3.588450  s :     3.588450
      pz      :     0.983005  p :     2.408583
      px      :     0.597459
      py      :     0.828119
      dz2     :     0.002821  d :     0.131227
      dxz     :     0.043239
      dyz     :     0.070296
      dx2y2   :    -0.057370
      dxy     :     0.072240
      f0      :     0.000728  f :     0.007654
      f+1     :     0.000771
      f-1     :     0.000691
      f+2     :     0.000450
      f-2     :     0.001060
      f+3     :     0.002453
      f-3     :     0.001499

 12 C s       :     3.797594  s :     3.797594
      pz      :     1.171853  p :     3.691310
      px      :     1.253098
      py      :     1.266359
      dz2     :    -0.009924  d :     0.122627
      dxz     :     0.051847
      dyz     :     0.034599
      dx2y2   :     0.001233
      dxy     :     0.044872
      f0      :     0.000199  f :     0.002843
      f+1     :     0.000381
      f-1     :     0.000396
      f+2     :     0.000537
      f-2     :     0.001011
      f+3     :     0.000156
      f-3     :     0.000165

 13 C s       :     3.713097  s :     3.713097
      pz      :     1.325344  p :     3.476707
      px      :     1.218879
      py      :     0.932483
      dz2     :     0.048407  d :     0.129063
      dxz     :     0.020328
      dyz     :     0.030113
      dx2y2   :     0.038891
      dxy     :    -0.008675
      f0      :     0.000331  f :     0.002951
      f+1     :     0.000209
      f-1     :     0.000493
      f+2     :     0.000432
      f-2     :     0.000131
      f+3     :     0.000704
      f-3     :     0.000651

 14 C s       :     3.512901  s :     3.512901
      pz      :     0.698079  p :     1.987481
      px      :     0.678054
      py      :     0.611348
      dz2     :     0.037502  d :     0.234017
      dxz     :     0.047921
      dyz     :     0.048580
      dx2y2   :     0.049987
      dxy     :     0.050027
      f0      :     0.001671  f :     0.020910
      f+1     :     0.002513
      f-1     :     0.002128
      f+2     :     0.003207
      f-2     :     0.002587
      f+3     :     0.005630
      f-3     :     0.003176

 15 C s       :     3.193792  s :     3.193792
      pz      :     0.641616  p :     1.927468
      px      :     0.669883
      py      :     0.615970
      dz2     :     0.050656  d :     0.248735
      dxz     :     0.073170
      dyz     :     0.044224
      dx2y2   :     0.056756
      dxy     :     0.023928
      f0      :     0.005239  f :     0.020982
      f+1     :     0.003581
      f-1     :     0.003632
      f+2     :     0.001908
      f-2     :     0.002879
      f+3     :     0.002219
      f-3     :     0.001525

 16 C s       :     3.266171  s :     3.266171
      pz      :     0.698024  p :     2.057509
      px      :     0.719553
      py      :     0.639932
      dz2     :     0.068117  d :     0.235211
      dxz     :     0.034351
      dyz     :     0.037746
      dx2y2   :     0.015038
      dxy     :     0.079959
      f0      :     0.002045  f :     0.024809
      f+1     :     0.002267
      f-1     :     0.004220
      f+2     :     0.003540
      f-2     :     0.003702
      f+3     :     0.005475
      f-3     :     0.003561

 17 C s       :     3.275649  s :     3.275649
      pz      :     0.734833  p :     2.051338
      px      :     0.625040
      py      :     0.691465
      dz2     :     0.021862  d :     0.214617
      dxz     :     0.060900
      dyz     :     0.071198
      dx2y2   :     0.056129
      dxy     :     0.004527
      f0      :     0.004147  f :     0.022800
      f+1     :     0.003316
      f-1     :     0.002314
      f+2     :     0.002441
      f-2     :     0.004582
      f+3     :     0.003726
      f-3     :     0.002273

 18 H s       :     0.577439  s :     0.577439
      pz      :     0.017818  p :     0.041686
      px      :     0.018719
      py      :     0.005148
      dz2     :     0.000866  d :     0.003017
      dxz     :     0.000911
      dyz     :     0.000991
      dx2y2   :     0.000089
      dxy     :     0.000160

 19 H s       :     0.392606  s :     0.392606
      pz      :    -0.003927  p :     0.023922
      px      :     0.019740
      py      :     0.008109
      dz2     :     0.000739  d :     0.002622
      dxz     :     0.000714
      dyz     :     0.000591
      dx2y2   :     0.000179
      dxy     :     0.000399

 20 H s       :     0.566269  s :     0.566269
      pz      :     0.004840  p :     0.075705
      px      :     0.034407
      py      :     0.036457
      dz2     :     0.000350  d :     0.002289
      dxz     :     0.000365
      dyz     :     0.000512
      dx2y2   :     0.000562
      dxy     :     0.000501

 21 H s       :     0.612408  s :     0.612408
      pz      :     0.024241  p :     0.055794
      px      :     0.003658
      py      :     0.027894
      dz2     :     0.000549  d :     0.002281
      dxz     :     0.000463
      dyz     :     0.000435
      dx2y2   :     0.000434
      dxy     :     0.000400

 22 H s       :     0.506984  s :     0.506984
      pz      :     0.024237  p :     0.065034
      px      :     0.028518
      py      :     0.012279
      dz2     :     0.000416  d :     0.002175
      dxz     :     0.000403
      dyz     :     0.000387
      dx2y2   :     0.000530
      dxy     :     0.000439

 23 H s       :     0.608645  s :     0.608645
      pz      :     0.020587  p :     0.057207
      px      :     0.026801
      py      :     0.009819
      dz2     :     0.000154  d :     0.002125
      dxz     :     0.000727
      dyz     :     0.000022
      dx2y2   :     0.000486
      dxy     :     0.000737

 24 H s       :     0.621072  s :     0.621072
      pz      :     0.020037  p :     0.062345
      px      :     0.021452
      py      :     0.020857
      dz2     :     0.000666  d :     0.002199
      dxz     :     0.000376
      dyz     :     0.000444
      dx2y2   :     0.000390
      dxy     :     0.000323

 25 H s       :     0.631020  s :     0.631020
      pz      :     0.022549  p :     0.049086
      px      :     0.010816
      py      :     0.015720
      dz2     :     0.000690  d :     0.002264
      dxz     :     0.000557
      dyz     :     0.000669
      dx2y2   :     0.000221
      dxy     :     0.000128

 26 H s       :     0.848842  s :     0.848842
      pz      :     0.016787  p :     0.065132
      px      :     0.031068
      py      :     0.017278
      dz2     :     0.000719  d :     0.006169
      dxz     :     0.001222
      dyz     :     0.000736
      dx2y2   :     0.001777
      dxy     :     0.001715

 27 H s       :     0.838058  s :     0.838058
      pz      :     0.019852  p :     0.060133
      px      :     0.009162
      py      :     0.031119
      dz2     :     0.001636  d :     0.005986
      dxz     :     0.001472
      dyz     :     0.001736
      dx2y2   :     0.000675
      dxy     :     0.000466

 28 H s       :     0.858340  s :     0.858340
      pz      :     0.027179  p :     0.059101
      px      :     0.019634
      py      :     0.012288
      dz2     :     0.001673  d :     0.006094
      dxz     :     0.001368
      dyz     :     0.000944
      dx2y2   :     0.000934
      dxy     :     0.001176

 29 H s       :     0.848837  s :     0.848837
      pz      :     0.018343  p :     0.064876
      px      :     0.021841
      py      :     0.024691
      dz2     :     0.001459  d :     0.006019
      dxz     :     0.001711
      dyz     :     0.001338
      dx2y2   :     0.000904
      dxy     :     0.000607



                     *******************************
                     * LOEWDIN POPULATION ANALYSIS *
                     *******************************

----------------------
LOEWDIN ATOMIC CHARGES
----------------------
[...]
      dyz     :     0.231444
      dx2y2   :     0.258978
      dxy     :     0.235040
      f0      :     0.020537  f :     0.153938
      f+1     :     0.035645
      f-1     :     0.022504
      f+2     :     0.022051
      f-2     :     0.018675
      f+3     :     0.017769
      f-3     :     0.016759

 18 H s       :     0.652400  s :     0.652400
      pz      :     0.102152  p :     0.241641
      px      :     0.066454
      py      :     0.073035
      dz2     :     0.009399  d :     0.030319
      dxz     :     0.006880
      dyz     :     0.008741
      dx2y2   :     0.002479
      dxy     :     0.002820

 19 H s       :     0.636843  s :     0.636843
      pz      :     0.101647  p :     0.310570
      px      :     0.104484
      py      :     0.104439
      dz2     :     0.007430  d :     0.032802
      dxz     :     0.003958
      dyz     :     0.008593
      dx2y2   :     0.006870
      dxy     :     0.005951

 20 H s       :     0.671738  s :     0.671738
      pz      :     0.080217  p :     0.285146
      px      :     0.084021
      py      :     0.120909
      dz2     :     0.003637  d :     0.030172
      dxz     :     0.001252
      dyz     :     0.008747
      dx2y2   :     0.007796
      dxy     :     0.008740

 21 H s       :     0.680874  s :     0.680874
      pz      :     0.105079  p :     0.280446
      px      :     0.099585
      py      :     0.075781
      dz2     :     0.009131  d :     0.030618
      dxz     :     0.007914
      dyz     :     0.006668
      dx2y2   :     0.003843
      dxy     :     0.003062

 22 H s       :     0.666095  s :     0.666095
      pz      :     0.087004  p :     0.298736
      px      :     0.135146
      py      :     0.076586
      dz2     :     0.003375  d :     0.031373
      dxz     :     0.009981
      dyz     :     0.000945
      dx2y2   :     0.008029
      dxy     :     0.009043

 23 H s       :     0.676723  s :     0.676723
      pz      :     0.085587  p :     0.271966
      px      :     0.108079
      py      :     0.078301
      dz2     :     0.005509  d :     0.029891
      dxz     :     0.006525
      dyz     :     0.003336
      dx2y2   :     0.007760
      dxy     :     0.006761

 24 H s       :     0.688663  s :     0.688663
      pz      :     0.089501  p :     0.283003
      px      :     0.116979
      py      :     0.076523
      dz2     :     0.005260  d :     0.030540
      dxz     :     0.007540
      dyz     :     0.002482
      dx2y2   :     0.007743
      dxy     :     0.007515

 25 H s       :     0.674354  s :     0.674354
      pz      :     0.134104  p :     0.290596
      px      :     0.077695
      py      :     0.078797
      dz2     :     0.010758  d :     0.030962
      dxz     :     0.009549
      dyz     :     0.009580
      dx2y2   :     0.000730
      dxy     :     0.000344

 26 H s       :     0.594362  s :     0.594362
      pz      :     0.100673  p :     0.379668
      px      :     0.158684
      py      :     0.120311
      dz2     :     0.006428  d :     0.063846
      dxz     :     0.016219
      dyz     :     0.004235
      dx2y2   :     0.017784
      dxy     :     0.019181

 27 H s       :     0.617092  s :     0.617092
      pz      :     0.150052  p :     0.351473
      px      :     0.092183
      py      :     0.109238
      dz2     :     0.020860  d :     0.062500
      dxz     :     0.017332
      dyz     :     0.021468
      dx2y2   :     0.001210
      dxy     :     0.001630

 28 H s       :     0.605046  s :     0.605046
      pz      :     0.117256  p :     0.343468
      px      :     0.125060
      py      :     0.101151
      dz2     :     0.013517  d :     0.061617
      dxz     :     0.016150
      dyz     :     0.006762
      dx2y2   :     0.011134
      dxy     :     0.014055

 29 H s       :     0.605611  s :     0.605611
      pz      :     0.108629  p :     0.343855
      px      :     0.126449
      py      :     0.108777
      dz2     :     0.011028  d :     0.061735
      dxz     :     0.014287
      dyz     :     0.010952
      dx2y2   :     0.014681
      dxy     :     0.010787



                      *****************************
                      * MAYER POPULATION ANALYSIS *
                      *****************************

  NA   - Mulliken gross atomic population
  ZA   - Total nuclear charge
  QA   - Mulliken gross atomic charge
  VA   - Mayer's total valence
  BVA  - Mayer's bonded valence
  FA   - Mayer's free valence

  ATOM       NA         ZA         QA         VA         BVA        FA
  0 O      8.6762     8.0000    -0.6762     1.5581     1.5581     0.0000
  1 O      8.6304     8.0000    -0.6304     1.5450     1.5450    -0.0000
  2 O      8.6626     8.0000    -0.6626     1.5477     1.5477    -0.0000
  3 O      8.6445     8.0000    -0.6445     1.5668     1.5668     0.0000
  4 N      7.0697     7.0000    -0.0697     2.9460     2.9460     0.0000
  5 N      7.2778     7.0000    -0.2778     2.7503     2.7503    -0.0000
  6 N      7.0450     7.0000    -0.0450     3.0869     3.0869     0.0000
  7 N      7.0364     7.0000    -0.0364     3.1287     3.1287    -0.0000
  8 C      5.7198     6.0000     0.2802     1.7078     1.7078    -0.0000
  9 C      5.7430     6.0000     0.2570     2.1618     2.1618    -0.0000
 10 C      5.5224     6.0000     0.4776     2.2959     2.2959     0.0000
 11 C      5.5238     6.0000     0.4762     1.4014     1.4014    -0.0000
 12 C      7.8741     6.0000    -1.8741     2.4608     2.4608     0.0000
 13 C      7.4556     6.0000    -1.4556     3.0264     3.0264     0.0000
 14 C      5.4081     6.0000     0.5919     3.0393     3.0393     0.0000
 15 C      5.7719     6.0000     0.2281     2.9952     2.9952    -0.0000
 16 C      5.5275     6.0000     0.4725     3.5024     3.5024     0.0000
 17 C      5.6169     6.0000     0.3831     3.6036     3.6036     0.0000
 18 H      0.6589     1.0000     0.3411     0.9249     0.9249     0.0000
 19 H      0.4321     1.0000     0.5679     0.6848     0.6848     0.0000
 20 H      0.6675     1.0000     0.3325     0.9241     0.9241     0.0000
 21 H      0.6288     1.0000     0.3712     0.9382     0.9382     0.0000
 22 H      0.6299     1.0000     0.3701     1.0003     1.0003     0.0000
 23 H      0.6464     1.0000     0.3536     0.9594     0.9594    -0.0000
 24 H      0.7091     1.0000     0.2909     1.0087     1.0087     0.0000
 25 H      0.6390     1.0000     0.3610     0.9615     0.9615     0.0000
 26 H      0.9510     1.0000     0.0490     1.0722     1.0722    -0.0000
 27 H      0.9394     1.0000     0.0606     1.0483     1.0483    -0.0000
 28 H      0.9561     1.0000     0.0439     1.0771     1.0771     0.0000
 29 H      0.9362     1.0000     0.0638     1.0511     1.0511    -0.0000

  Mayer bond orders larger than 0.100000
B(  0-O , 14-C ) :   1.2674 B(  1-O ,  9-C ) :  -0.1140 B(  1-O , 15-C ) :   1.5170 
B(  2-O , 16-C ) :   1.5906 B(  3-O , 17-C ) :   1.5749 B(  4-N , 10-C ) :   0.5297 
B(  4-N , 16-C ) :   1.0418 B(  4-N , 26-H ) :   1.1409 B(  5-N ,  9-C ) :   0.2591 
B(  5-N , 10-C ) :   0.1444 B(  5-N , 17-C ) :   1.2190 B(  5-N , 27-H ) :   1.0610 
B(  6-N , 14-C ) :   0.9949 B(  6-N , 16-C ) :   0.9388 B(  6-N , 28-H ) :   1.1218 
B(  7-N , 15-C ) :   0.9831 B(  7-N , 17-C ) :   0.9670 B(  7-N , 29-H ) :   1.0609 
B(  8-C ,  9-C ) :   0.4725 B(  8-C , 10-C ) :   0.1574 B(  8-C , 11-C ) :   0.3550 
B(  8-C , 14-C ) :   0.8116 B(  8-C , 18-H ) :  -0.1554 B(  8-C , 21-H ) :  -0.1545 
B(  9-C , 10-C ) :   0.3852 B(  9-C , 13-C ) :   0.3015 B(  9-C , 15-C ) :   0.8621 
B( 10-C , 11-C ) :   0.4782 B( 10-C , 12-C ) :  -0.3404 B( 10-C , 14-C ) :   0.1345 
B( 10-C , 18-H ) :   1.0891 B( 10-C , 19-H ) :  -0.1070 B( 11-C , 12-C ) :   0.1419 
B( 11-C , 15-C ) :  -0.1998 B( 11-C , 17-C ) :  -0.1731 B( 11-C , 19-H ) :   0.7126 
B( 12-C , 14-C ) :  -0.2041 B( 12-C , 20-H ) :   0.9250 B( 12-C , 21-H ) :   0.9967 
B( 12-C , 22-H ) :   0.9414 B( 13-C , 23-H ) :   0.8464 B( 13-C , 24-H ) :   1.0261 
B( 13-C , 25-H ) :   0.9627 B( 18-H , 19-H ) :   0.1011 

-------
TIMINGS
-------

Total SCF time: 0 days 0 hours 1 min 49 sec 

Total time                  ....     109.526 sec
Sum of individual times     ....     109.185 sec  ( 99.7%)

SCF preparation             ....       0.826 sec  (  0.8%)
Fock matrix formation       ....     104.291 sec  ( 95.2%)
  Startup                   ....       0.139 sec  (  0.1% of F)
  Split-RI-J                ....       4.009 sec  (  3.8% of F)
  Chain of spheres X        ....      88.869 sec  ( 85.2% of F)
  XC integration            ....      10.861 sec  ( 10.4% of F)
    XC Preparation          ....       0.000 sec  (  0.0% of XC)
    Basis function eval.    ....       1.000 sec  (  9.2% of XC)
    Density eval.           ....       3.906 sec  ( 36.0% of XC)
    XC-Functional eval.     ....       0.090 sec  (  0.8% of XC)
    XC-Potential eval.      ....       4.861 sec  ( 44.8% of XC)
Diagonalization             ....       0.000 sec  (  0.0%)
Density matrix formation    ....       0.386 sec  (  0.4%)
Total Energy calculation    ....       0.171 sec  (  0.2%)
Population analysis         ....       0.342 sec  (  0.3%)
Orbital Transformation      ....       0.377 sec  (  0.3%)
Orbital Orthonormalization  ....       0.000 sec  (  0.0%)
DIIS solution               ....       0.428 sec  (  0.4%)
SOSCF solution              ....       2.364 sec  (  2.2%)
Finished LeanSCF after 109.7 sec

Maximum memory used throughout the entire LEANSCF-calculation: 140.5 MB


-------------------------------------------------------------------------------
                          DFT DISPERSION CORRECTION                            
                                                                               
                              DFTD3 V3.1  Rev 1                                
                          USING Becke-Johnson damping                          
-------------------------------------------------------------------------------
The WB97M functional is recognized
Active option DFTDOPT                   ...         4   

molecular C6(AA) [au] = 9613.150000 


            DFT-D V3
 parameters
 s6 scaling factor         :     1.0000 
 a1 scaling factor         :     0.5660 
 s8 scaling factor         :     0.3908 
 a2 scaling factor         :     3.1280 
 ad hoc parameters k1-k3   :    16.0000     1.3333    -4.0000 

 Edisp/kcal,au: -35.664167113497  -0.056834461922 
 E6   /kcal   : -28.600528035 
 E8   /kcal   :  -7.063639078 
 % E8         :  19.805983568 

-------------------------   ----------------
Dispersion correction           -0.056834462
-------------------------   ----------------


-------------------------   --------------------
FINAL SINGLE POINT ENERGY      -908.753548079160
-------------------------   --------------------

                                *** OPTIMIZATION RUN DONE ***



           ************************************************************
           *        Program running with 32 parallel MPI-processes    *
           *              working on a common directory               *
           ************************************************************

------------------------------------------------------------------------------
                              ORCA PROPERTY CALCULATIONS
------------------------------------------------------------------------------

GBWName                                 ... orca.gbw
Number of atoms                         ...     30
Number of basis functions               ...    882
Max core memory                         ...   1024 MB

Electric properties:
Dipole moment                           ... YES
Quadrupole moment                       ...  NO
Static polarizability (Dipole/Dipole)   ...  NO
Static polarizability (Dipole/Quad.)    ...  NO
Static polarizability (Quad./Quad.)     ...  NO
Static polarizability (Velocity)        ...  NO

Atomic electric properties:
Dipole moment                           ...  NO
Quadrupole moment                       ...  NO
Static polarizability                   ...  NO

Choice of electric origin               ... Center of mass
Position of electric origin             ...     0.031951     0.010828     0.120459

General magnetic properties:
Magnetizability                         ...  NO

EPR properties:
g-Tensor (aka g-matrix)                 ...  NO
Zero-Field splitting spin-orbit         ...  NO
Zero-field splitting spin-spin          ...  NO
Hyperfine couplings                     ...  NO (   0 nuclei)
Quadrupole couplings                    ...  NO (   0 nuclei)
Contact density                         ...  NO (   0 nuclei)

NMR properties:
Chemical shifts                         ...  NO (   0 nuclei)
Spin-rotation constants                 ...  NO (   0 nuclei)
Spin-spin couplings                     ...  NO (   0 nuclei,    0 pairs)

Choice of magnetic origin               ... GIAO
Position of magnetic origin             ...     0.000000     0.000000     0.000000

Properties with geometric perturbations:
SCF Hessian                             ...  NO
IR spectrum                             ...  NO
VCD spectrum                            ...  NO
X-ray spectroscopy properties:
SCF XES/XAS/RIXS spectra                ...  NO


-------------
DIPOLE MOMENT
-------------

Method             : SCF
Type of density    : Electron Density
Multiplicity       :   1
Irrep              :   0
Energy             :  -908.6967136172380606 Eh
Relativity type    : 
Basis              : AO
                                X                 Y                 Z
Electronic contribution:     -1.860774499      -9.350837035      -5.964233521
Nuclear contribution   :      1.639180914      10.810073399       8.024570035
                        -----------------------------------------
Total Dipole Moment    :     -0.221593585       1.459236364       2.060336514
                        -----------------------------------------
Magnitude (a.u.)       :      2.534454780
Magnitude (Debye)      :      6.442072091



--------------------
Rotational spectrum 
--------------------
 
Rotational constants in cm-1:             0.021083             0.011199             0.010095 
Rotational constants in MHz :           632.061337           335.722601           302.648246 

Dipole components along the rotational axes: 
x,y,z [a.u.] :    -0.231088    -2.393280     0.801419 
x,y,z [Debye]:    -0.587378    -6.083234     2.037044 

 

Dipole moment calculation done in   0.1 sec 

Maximum memory used throughout the entire PROP-calculation: 75.4 MB

--------------------------------
SUGGESTED CITATIONS FOR THIS RUN
--------------------------------

Below you find a list of papers that are relevant to this ORCA run
We neither can nor want to force you to cite these papers, but we appreciate if you do
You receive ORCA, which is the product of decades of hard work by many enthusiastic individuals, for free
The only thing we kindly ask in return is that you cite our papers,
We deeply appreciate it, if you show your appreciation for ORCA by not just citing the generic ORCA reference.

Please note that relegating all ORCA citations to the supporting information does *not* help us.
SI sections are not indexed - citations you put there will not count into any citation statistics
But we need these citations in order to attract the funding resources that allow us to do what we are doing

Therefore, if you are a happy ORCA user, please consider citing a few of the papers listed below in the main body of your paper

In addition to the list printed below, the program has created the file orca.bibtex that contains the list in bibtex format
You can import this file easily into all common literature databanks and citation aid programs


List of essential papers. We consider these as the minimum necessary citations

  1. Neese,F.
     Software update: the ORCA program system, version 5.0
     WIRES Comput. Molec. Sci., 2022 12(1)e1606
     doi.org/10.1002/wcms.1606

List of papers to cite with high priority. The work reported in these papers was absolutely
necessary for this run to complete.
Our perspective: the developers of density functionals and basis sets usually get cited in chemistry papers
Good! But without the algorithms to do something with them, the functionals or basis sets would not do anything.
Hence, in our opinion, the algorithm design and method developments papers are equally worthy of getting cited

  1. Neese,F.
     An improvement of the resolution of the identity approximation for the formation of the Coulomb matrix
     J. Comp. Chem., 2003 24(14)1740-1747
     doi.org/10.1002/jcc.10318
  2. Neese,F.; Wennmohs,F.; Hansen,A.; Becker,U.
     Efficient, approximate and parallel Hartree-Fock and hybrid DFT calculations. A 'chain-of-spheres' algorithm for the Hartree-Fock exchange
     Chem. Phys., 2009 356(1-3)98-109
     doi.org/10.1016/j.chemphys.2008.10.036
  3. Helmich-Paris,B.; de Souza,B.; Neese,F.; Izsák,R.
     An improved chain of spheres for exchange algorithm
     J. Chem. Phys., 2021 155 104109
     doi.org/doi: 10.1063/5.0058766.
  4. Neese,F.
     The SHARK Integral Generation and Digestion System
     J. Comp. Chem., 2022  1-16
     doi.org/10.1002/jcc.26942
  5. Lehtola,S.; Steigemann,C.; Oliveira,M.; Marques,M.
     Recent developments in Libxc - A comprehensive library of functionals for density functional theory
     Software X, 2018 7 
     doi.org/10.1016/j.softx.2017.11.002
  6. Grimme,S.; Antony,J.; Ehrlich,S.; Krieg,H.
     A consistent and accurate ab initio parametrization of density functional dispersion correction (DFT-D) for the 94 elements H-Pu
     J. Chem. Phys., 2010 132 154104-XXXX
     doi.org/10.1063/1.3382344
  7. Grimme,S.; Ehrlich,S.; Goerigk,L.
     Effect of the damping function in dispersion corrected density functional theory
     J. Comput. Chem., 2011 32(7)1456-1465
     doi.org/10.1002/jcc.21759

List of suggested additional citations. These are papers that are important in the 'surrounding' of 
of this run, or papers that preceded the highly important papers. If you like your results we are grateful for a citation.

  1. Izsak,R.; Neese,F.
     An overlap fitted chain of spheres exchange method
     J. Chem. Phys., 2011 135 144105
     doi.org/10.1063/1.3646921
  2. Izsak,R.; Hansen,A.; Neese,F.
     The resolution of identity and chain of spheres approximations for the LPNO-CCSD singles Fock term
     Molec. Phys., 2012 110 2413-2417
     doi.org/10.1080/00268976.2012.687466
  3. Neese,F.
     The ORCA program system
     WIRES Comput. Molec. Sci., 2012 2(1)73-78
     doi.org/10.1002/wcms.81
  4. Izsak,R.; Neese,F.; Klopper,W.
     Robust fitting techniques in the chain of spheres approximation to the Fock exchange: The role of the complementary space
     J. Chem. Phys., 2013 139 
     doi.org/10.1063/1.4819264
  5. Neese,F.
     Software update: the ORCA program system, version 4.0
     WIRES Comput. Molec. Sci., 2018 8(1)1-6
     doi.org/10.1002/wcms.1327
  6. Neese,F.; Wennmohs,F.; Becker,U.; Riplinger,C.
     The ORCA quantum chemistry program package
     J. Chem. Phys., 2020 152 Art. No. L224108
     doi.org/10.1063/5.0004608

List of optional additional citations

  1. Neese,F.
     Approximate second-order SCF convergence for spin unrestricted wavefunctions
     Chem. Phys. Lett., 2000 325(1-3)93-98
     doi.org/10.1016/s0009-2614(00)00662-x

Timings for individual modules:

Sum of individual times          ...     6522.900 sec (= 108.715 min)
Startup calculation              ...      127.977 sec (=   2.133 min)   2.0 %
SCF iterations                   ...     4410.160 sec (=  73.503 min)  67.6 %
Property calculations            ...        1.012 sec (=   0.017 min)   0.0 %
SCF Gradient evaluation          ...     1982.709 sec (=  33.045 min)  30.4 %
Geometry relaxation              ...        1.042 sec (=   0.017 min)   0.0 %
                             ****ORCA TERMINATED NORMALLY****
TOTAL RUN TIME: 0 days 1 hours 49 minutes 4 seconds 321 msec
