30
Properties=species:S:1:pos:R:3:momenta:R:3:forces:R:3 Coordinates=T from=T ORCA-job=T orca=T E=T -908.740504394156=T energy=-24726.178037394584 free_energy=-24726.178037394584 stress="1.903046321404138e-06 4.618005368994265e-07 -3.9831342955390557e-07 4.618005368994265e-07 4.4820461117612e-06 -2.479609492505507e-07 -3.9831342955390557e-07 -2.479609492505507e-07 1.6910669116374793e-06" pbc="F F F"
O        2.35145495      -0.44270264      -1.19216708      -0.25916653      -0.28586398       0.12140010      -1.10680406       0.10055107       1.38593880
O       -0.24311088       3.00284940      -2.34739919      -0.44530663      -0.20722673       1.84081865      -0.54877435      -0.71350851       0.05464164
O        0.44701003      -3.99311921       0.75896717       1.05108395      -0.47385331      -0.33987685      -0.20667947       1.36899090       0.72387755
O       -2.02025286      -1.08081973      -1.33259332       0.67497850       1.10320428      -0.87283458      -0.31397985      -0.10716560      -0.56791064
N        0.42150655      -1.99612532       1.99539940      -0.60377248       0.07748630       0.06331236       0.06177496      -0.76078000       0.56671756
N       -1.29518177      -0.06314274       0.51205596      -0.29327849      -0.14915725       0.80271567      -0.33495236      -0.32874135       0.49760257
N        1.15338495      -2.06932777      -0.22966818       1.00577512      -0.59764869       0.05759530      -0.86979918      -0.34572863       0.78736357
N       -0.87686980       0.83978387      -1.69180222      -0.62468361      -0.32420892      -0.55987140       0.11428850       1.35409113       0.05627850
C        1.34325027       0.06515809       0.95037770      -0.46872281       0.66253313      -1.41100119      -0.28874658       2.55526323      -0.69295256
C       -1.31193317       2.73049730      -0.27698713      -1.08489218      -0.73858742       1.08811709      -0.09899602      -0.36855224       1.05009331
C        0.66726888      -0.56323417       2.10421071       0.48904036       0.48091558       0.29627548      -0.95844399      -1.37777746      -1.07391068
C       -0.15633052       0.37199593       1.25881074       0.36561673      -0.31411398       0.01679808      -0.69209605       0.71327165       0.28687814
C        2.23037453       1.37170537       1.02585614       0.40690338      -0.23537707      -0.33159720       0.46394316      -1.27338577       0.13426836
C       -1.32270727       3.58001902       0.90675297       0.33215736       0.30043194       0.19707930       1.37510280       1.03275054      -1.50941857
C        1.62346909      -0.77503175      -0.22272962       0.28986082       0.01137957      -0.28049801       1.71515147      -0.49066764      -1.97676876
C       -0.81029594       2.27585815      -1.54306735      -1.44127877      -0.30584623      -0.02944327       0.71066560      -0.49170538       0.88133698
C        0.60675747      -2.77627876       0.87721969      -0.27133628       0.70004073       0.10369914       0.78297573      -0.16684420      -1.22336161
C       -1.44362674      -0.12677250      -0.87238248       0.16342028       0.74416374       0.01090599       0.07517191      -0.34091650       0.78532023
H        0.75176507      -0.16192096       3.06479448       0.13179894      -0.13539883       0.23484679       0.65087579      -0.01052810       1.14430473
H       -0.27129327       1.34846652       1.77194218       0.13469887       0.02916767      -0.37505890       0.11779476      -0.63045201      -0.58967939
H        1.99301579       2.13338175       0.23577964       0.15845684      -0.19714092       0.00231124       0.15988257      -1.03699410       0.43690275
H        2.07169583       1.86562875       1.99298962      -0.00046510      -0.12880597       0.05675554       0.08910376      -0.24138697      -0.19981438
H        3.30397271       1.01128189       0.95707775       0.03271032       0.15842176      -0.09438463      -1.04698433       0.73167232      -0.04515875
H       -2.00687695       3.29003792       1.68179480       0.03800160      -0.02746277       0.04003427      -0.37945359      -0.17906110       0.09528798
H       -0.29926928       3.71133220       1.37342025       0.00059935       0.03540419      -0.20283304      -0.68732002      -0.44019528      -0.37175394
H       -1.54130656       4.61576091       0.54776676      -0.01373514       0.06613747       0.11561793      -0.28346524      -0.35888079       0.51963950
H        0.33862202      -2.61947799       2.80961712       0.26348695       0.01865236      -0.17142561      -0.07089175       0.84295754      -0.29791092
H       -2.02006303      -0.66411224       1.00327474      -0.02247494      -0.09222234      -0.15668897       1.35897203       0.72696081      -0.69670779
H        1.19788351      -2.61326480      -1.08994550      -0.04943822      -0.26164996      -0.10457815       0.16690310       0.30605027       0.32547318
H       -0.74482502       0.51334423      -2.61987013       0.03996179       0.08662563      -0.11819112       0.04478072      -0.06928784      -0.48657734
