7
Properties=species:S:1:pos:R:3:momenta:R:3:forces:R:3 Coordinates=T from=T ORCA-job=T orca=T E=T -153.876068333117=T energy=-4182.807709611828 free_energy=-4182.807709611828 stress="9.389663959956598e-06 -3.027367176640735e-06 2.645726548189197e-06 -3.027367176640735e-06 -6.777384122818602e-06 -1.1055688171309665e-06 2.645726548189197e-06 -1.1055688171309665e-06 1.034555602531755e-05" pbc="F F F"
O        0.04047124       1.01548233      -0.26186451       1.11189487       1.63517561      -1.14833324       1.75295245       0.73923652      -0.38015859
C        0.65450664      -0.19207969       0.15951669      -0.97065401       1.04793674      -0.75388470      -2.62365533       0.65181512       3.01409425
C       -0.67493396      -0.96563049       0.10636381      -0.05140535      -2.34655309       0.87478625       1.72110586      -0.37117738       0.68966683
H        1.14736959      -0.00801134       1.17343483       0.17070715      -0.13435531       0.15155586      -1.01171856      -0.16461796      -0.68446700
H        1.52399376      -0.53682417      -0.31129028      -0.07845059       0.08624322       0.19907859       0.78053516      -0.22639549      -1.81522445
H       -0.91172829      -0.94241550      -0.97486597      -0.10428965      -0.16140541       0.42515164      -1.03313417      -0.58849034       1.02164058
H       -1.26065291      -1.02494267       1.09388414      -0.07780243      -0.12704176       0.25164559       0.41391459      -0.04037047      -1.84555161
