
                                 *****************
                                 * O   R   C   A *
                                 *****************

                                            #,                                       
                                            ###                                      
                                            ####                                     
                                            #####                                    
                                            ######                                   
                                           ########,                                 
                                     ,,################,,,,,                         
                               ,,#################################,,                 
                          ,,##########################################,,             
                       ,#########################################, ''#####,          
                    ,#############################################,,   '####,        
                  ,##################################################,,,,####,       
                ,###########''''           ''''###############################       
              ,#####''   ,,,,##########,,,,          '''####'''          '####       
            ,##' ,,,,###########################,,,                        '##       
           ' ,,###''''                  '''############,,,                           
         ,,##''                                '''############,,,,        ,,,,,,###''
      ,#''                                            '''#######################'''  
     '                                                          ''''####''''         
             ,#######,   #######,   ,#######,      ##                                
            ,#'     '#,  ##    ##  ,#'     '#,    #''#        ,####,   ,####,        
            ##       ##  ##   ,#'  ##            #'  '#       #'       #'  '#        
            ##       ##  #######   ##           ,######,      #####,   #    #        
            '#,     ,#'  ##    ##  '#,     ,#' ,#      #,     #,   #   #,  ,#        
             '#######'   ##     ##  '#######'  #'      '#     '####' # '####'        



                #########################################################
                #                        -***-                          #
                #          Department of theory and spectroscopy        #
                #                                                       #
                #                      Frank Neese                      #
                #                                                       #
                #     Directorship, Architecture, Infrastructure        #
                #                    SHARK, DRIVERS                     #
                #        Core code/Algorithms in most modules           #
                #                                                       #
                #        Max Planck Institute fuer Kohlenforschung      #
                #                Kaiser Wilhelm Platz 1                 #
                #                 D-45470 Muelheim/Ruhr                 #
                #                      Germany                          #
                #                                                       #
                #                  All rights reserved                  #
                #                        -***-                          #
                #########################################################


                         Program Version 6.0.0  -   RELEASE  -


 With contributions from (in alphabetic order):
   Daniel Aravena         : Magnetic Suceptibility
   Michael Atanasov       : Ab Initio Ligand Field Theory (pilot matlab implementation)
   Alexander A. Auer      : GIAO ZORA, VPT2 properties, NMR spectrum
   Ute Becker             : All parallelization in ORCA, NUMFREQ, NUMCALC
   Giovanni Bistoni       : ED, misc. LED, open-shell LED, HFLD
   Martin Brehm           : Molecular dynamics
   Dmytro Bykov           : pre 5.0 version of the SCF Hessian
   Marcos Casanova-Páez   : Triplet and SCS-CIS(D). UHF-(DLPNO)-IP/EA/STEOM-CCSD. UHF-CVS-IP/STEOM-CCSD
   Vijay G. Chilkuri      : MRCI spin determinant printing, contributions to CSF-ICE
   Pauline Colinet        : FMM embedding
   Dipayan Datta          : RHF DLPNO-CCSD density
   Achintya Kumar Dutta   : EOM-CC, STEOM-CC
   Nicolas Foglia         : Exact transition moments, OPA infrastructure, MCD improvements
   Dmitry Ganyushin       : Spin-Orbit,Spin-Spin,Magnetic field MRCI
   Miquel Garcia          : C-PCM and meta-GGA Hessian, CCSD/C-PCM, Gaussian charge scheme
   Tiago L. C. Gouveia    : GS-ROHF, GS-ROCIS
   Yang Guo               : DLPNO-NEVPT2, F12-NEVPT2, CIM, IAO-localization
   Andreas Hansen         : Spin unrestricted coupled pair/coupled cluster methods
   Ingolf Harden          : AUTO-CI MPn and infrastructure 
   Benjamin Helmich-Paris : MC-RPA, TRAH-(SCF,CASSCF), AVAS, COSX integrals, SCF dyn. polar.
   Lee Huntington         : MR-EOM, pCC
   Robert Izsak           : Overlap fitted RIJCOSX, COSX-SCS-MP3, EOM
   Riya Kayal             : Wick's Theorem for AUTO-CI, AUTO-CI UHF-CCSDT
   Emily Kempfer          : AUTO-CI, RHF CISDT and CCSDT
   Christian Kollmar      : KDIIS, OOCD, Brueckner-CCSD(T), CCSD density, CASPT2, CASPT2-K, improved NEVPT2
   Axel Koslowski         : Symmetry handling
   Simone Kossmann        : Meta GGA functionals, TD-DFT gradient, OOMP2, (MP2 Hessian; deprecated post 5.0)
   Lucas Lang             : DCDCAS
   Marvin Lechner         : AUTO-CI (C++ implementation), FIC-MRCC
   Spencer Leger          : CASSCF response
   Dagmar Lenk            : GEPOL surface, SMD, ORCA-2-JSON
   Dimitrios Liakos       : Extrapolation schemes; Compound Job, initial MDCI parallelization
   Dimitrios Manganas     : Further ROCIS development; embedding schemes. LFT, Crystal Embedding
   Dimitrios Pantazis     : SARC Basis sets
   Anastasios Papadopoulos: AUTO-CI, single reference methods and gradients
   Taras Petrenko         : pre 6.0 DFT Hessian and TD-DFT gradient, (ASA, deprecated), ECA, 1-Electron XAS/XES, NRVS
   Peter Pinski           : DLPNO-MP2, DLPNO-MP2 Gradient
   Christoph Reimann      : Effective Core Potentials
   Marius Retegan         : Local ZFS, SOC
   Christoph Riplinger    : Optimizer, TS searches, QM/MM, DLPNO-CCSD(T), (RO)-DLPNO pert. Triples
   Michael Roemelt        : Original ROCIS implementation
   Masaaki Saitow         : Open-shell DLPNO-CCSD energy and density
   Barbara Sandhoefer     : DKH picture change effects
   Kantharuban Sivalingam : CASSCF convergence/infrastructure, NEVPT2 and variants, FIC-MRCI
   Bernardo de Souza      : ESD, SOC TD-DFT
   Georgi Stoychev        : AutoAux, RI-MP2 NMR, DLPNO-MP2 response, X2C
   Van Anh Tran           : RI-MP2 g-tensors
   Willem Van den Heuvel  : Paramagnetic NMR
   Zikuan Wang            : NOTCH, Electric field optimization 
   Frank Wennmohs         : Technical directorship and infrastructure
   Hang Xu                : AUTO-CI-Response properties 


 We gratefully acknowledge several colleagues who have allowed us to
 interface, adapt or use parts of their codes:
   Stefan Grimme, W. Hujo, H. Kruse, P. Pracht,  : VdW corrections, initial TS optimization,
                  C. Bannwarth, S. Ehlert,         DFT functionals, gCP, sTDA/sTD-DF
                  L. Wittmann, M. Mueller
   Ed Valeev, F. Pavosevic, A. Kumar             : LibInt (2-el integral package), F12 methods
   Garnet Chan, S. Sharma, J. Yang, R. Olivares  : DMRG
   Ulf Ekstrom                                   : XCFun DFT Library
   Mihaly Kallay                                 : mrcc  (arbitrary order and MRCC methods)
   Frank Weinhold                                : gennbo (NPA and NBO analysis)
   Simon Mueller                                 : openCOSMO-RS
   Christopher J. Cramer and Donald G. Truhlar   : smd solvation model
   Lars Goerigk                                  : TD-DFT with DH, B97 family of functionals
   V. Asgeirsson, H. Jonsson                     : NEB implementation
   FAccTs GmbH                                   : IRC, NEB, NEB-TS, DLPNO-Multilevel, CI-OPT
                                                   MM, QMMM, 2- and 3-layer-ONIOM, Crystal-QMMM,
                                                   LR-CPCM, SF, NACMEs, symmetry and pop. for TD-DFT,
                                                   nearIR, NL-DFT gradient (VV10), updates on ESD,
                                                   ML-optimized integration grids, MBIS, APM,
                                                   GOAT, DOCKER, SOLVATOR, interface openCOSMO-RS
   S Lehtola, MJT Oliveira, MAL Marques          : LibXC Library
   Liviu Ungur et al                             : ANISO software


 Your calculation uses the libint2 library for the computation of 2-el integrals
 For citations please refer to: http://libint.valeyev.net

 Your ORCA version has been built with support for libXC version: 6.2.2
 For citations please refer to: https://libxc.gitlab.io

 This ORCA versions uses:
   CBLAS   interface :  Fast vector & matrix operations
   LAPACKE interface :  Fast linear algebra routines
   SCALAPACK package :  Parallel linear algebra routines
   Shared memory     :  Shared parallel matrices
   BLAS/LAPACK       :  OpenBLAS 0.3.27  USE64BITINT DYNAMIC_ARCH NO_AFFINITY Zen SINGLE_THREADED
        Core in use  :  Zen
   Copyright (c) 2011-2014, The OpenBLAS Project


Your calculation utilizes the atom-pairwise dispersion correction
with the Becke-Johnson damping scheme (D3BJ)


Warning: RI is on but no J-basis has been assigned. Assigning Def2/J (nothing to worry about!)
================================================================================

----- Orbital basis set information -----
Your calculation utilizes the basis: def2-TZVPPD
   F. Weigend and R. Ahlrichs, Phys. Chem. Chem. Phys. 7, 3297 (2005).
   D. Rappoport and F. Furche, J. Chem. Phys. 133, 134105 (2010)
   D. Rappoport, J. Chem. Phys. 155, 124102 (2021).

----- AuxJ basis set information -----
Your calculation utilizes the auxiliary basis: def2/J
   F. Weigend, Phys. Chem. Chem. Phys. 8, 1057 (2006).

================================================================================
                                        WARNINGS
                       Please study these warnings very carefully!
================================================================================

Using LibXC functional ID 531 : wB97M-V exchange-correlation functional
[ 1]  N. Mardirossian and M. Head-Gordon.,  J. Chem. Phys. 144, 214110 (2016)
Using LibXC functional ID 531 : wB97M-V exchange-correlation functional
[ 1]  N. Mardirossian and M. Head-Gordon.,  J. Chem. Phys. 144, 214110 (2016)

WARNING: B97M-V or wB97M-V functional requested.
  ===> : libXC variant has now been activated.
         Any manually given DFX/HFX/RangeSep scaling parameters are IGNORED!

Your calculation utilizes LibXC
 by S Lehtola, C Steigemann, MJT Oliveira & MAL Marques
Please cite in your paper:
 S Lehtola, C Steigemann, MJT Oliveira & MAL Marques, SoftwareX, 7, (2018), 1.
   


WARNING: your system is open-shell and RHF/RKS was chosen
  ===> : WILL SWITCH to UHF/UKS

INFO   : Checking CIS options ...

WARNING: CIS/ROCIS methods need fully converged wavefunctions
  ===> : Setting SCFConvForced true
         You can overwrite this default with %scf ConvForced false 


================================================================================
                                       INPUT FILE
================================================================================
NAME = orca.inp
|  1> ! Engrad def2-TZVPPD wB97M-D3BJ 
|  2> %pal nprocs 8 end%pal nprocs 64 end 
|  3> %tddft 
|  4>  Iroot 2 Nroots 3 
|  5> sf true 
|  6> end 
|  7> *xyz 0 3 
|  8> O   2.5307725 -0.69652373 -2.53227434
|  9> O   -2.37900624 1.03400086 -1.40318008
| 10> O   -1.33272715 -2.48602132 -0.92357959
| 11> O   -2.27597934 1.17490695 3.16262165
| 12> N   0.12077985 -1.6838111 0.61301677
| 13> N   -0.28886808 0.78504272 2.1166757
| 14> N   0.59559604 -1.51335938 -1.66155562
| 15> N   -2.33326006 1.20514421 0.89916802
| 16> C   2.20897687 -0.71333315 -0.20960494
| 17> C   -0.29714446 1.15575414 -0.3710787
| 18> C   1.10710785 -0.69941048 0.84041284
| 19> C   0.49197127 0.75567005 0.87710992
| 20> C   3.57377456 -0.1936922 0.15617567
| 21> C   0.32371611 1.77659498 -1.544473
| 22> C   1.88780006 -1.00074207 -1.53633904
| 23> C   -1.72778294 1.08673274 -0.37387561
| 24> C   -0.31639847 -1.91576861 -0.62622119
| 25> C   -1.67817286 1.05647518 2.10150044
| 26> H   1.66836485 -0.83257013 1.78027061
| 27> H   1.35452486 1.42821189 0.94712645
| 28> H   4.21142828 -0.87986022 0.70798057
| 29> H   4.19527147 0.1500092 -0.66643828
| 30> H   3.44881748 0.60194725 0.88845453
| 31> H   -0.09932592 2.79558016 -1.73162328
| 32> H   1.37759302 1.86373734 -1.35270653
| 33> H   0.15171642 1.15210309 -2.41994839
| 34> H   -0.52039411 -2.02716021 1.34195091
| 35> H   0.16668139 0.87464674 3.00024003
| 36> H   0.23196896 -1.55329256 -2.64214823
| 37> H   -3.3035107 1.03484488 0.82832172
| 38> *
| 39> 
| 40>                          ****END OF INPUT****
================================================================================

                     *******************************
                     * Energy+Gradient Calculation *
                     *******************************

---------------------------------
CARTESIAN COORDINATES (ANGSTROEM)
---------------------------------
  O      2.530772   -0.696524   -2.532274
  O     -2.379006    1.034001   -1.403180
  O     -1.332727   -2.486021   -0.923580
  O     -2.275979    1.174907    3.162622
  N      0.120780   -1.683811    0.613017
  N     -0.288868    0.785043    2.116676
  N      0.595596   -1.513359   -1.661556
  N     -2.333260    1.205144    0.899168
  C      2.208977   -0.713333   -0.209605
  C     -0.297144    1.155754   -0.371079
  C      1.107108   -0.699410    0.840413
  C      0.491971    0.755670    0.877110
  C      3.573775   -0.193692    0.156176
  C      0.323716    1.776595   -1.544473
  C      1.887800   -1.000742   -1.536339
  C     -1.727783    1.086733   -0.373876
  C     -0.316398   -1.915769   -0.626221
  C     -1.678173    1.056475    2.101500
  H      1.668365   -0.832570    1.780271
  H      1.354525    1.428212    0.947126
  H      4.211428   -0.879860    0.707981
  H      4.195271    0.150009   -0.666438
  H      3.448817    0.601947    0.888455
  H     -0.099326    2.795580   -1.731623
  H      1.377593    1.863737   -1.352707
  H      0.151716    1.152103   -2.419948
  H     -0.520394   -2.027160    1.341951
  H      0.166681    0.874647    3.000240
  H      0.231969   -1.553293   -2.642148
  H     -3.303511    1.034845    0.828322

----------------------------
CARTESIAN COORDINATES (A.U.)
----------------------------
  NO LB      ZA    FRAG     MASS         X           Y           Z
   0 O     8.0000    0    15.999    4.782467   -1.316239   -4.785305
   1 O     8.0000    0    15.999   -4.495670    1.953978   -2.651626
   2 O     8.0000    0    15.999   -2.518489   -4.697899   -1.745312
   3 O     8.0000    0    15.999   -4.300978    2.220252    5.976489
   4 N     7.0000    0    14.007    0.228241   -3.181942    1.158434
   5 N     7.0000    0    14.007   -0.545882    1.483516    3.999937
   6 N     7.0000    0    14.007    1.125513   -2.859835   -3.139885
   7 N     7.0000    0    14.007   -4.409223    2.277393    1.699181
   8 C     6.0000    0    12.011    4.174361   -1.348004   -0.396096
   9 C     6.0000    0    12.011   -0.561522    2.184059   -0.701237
  10 C     6.0000    0    12.011    2.092131   -1.321694    1.588150
  11 C     6.0000    0    12.011    0.929691    1.428009    1.657498
  12 C     6.0000    0    12.011    6.753455   -0.366025    0.295129
  13 C     6.0000    0    12.011    0.611735    3.357278   -2.918631
  14 C     6.0000    0    12.011    3.567425   -1.891128   -2.903260
  15 C     6.0000    0    12.011   -3.265037    2.053627   -0.706523
  16 C     6.0000    0    12.011   -0.597906   -3.620278   -1.183387
  17 C     6.0000    0    12.011   -3.171287    1.996449    3.971260
  18 H     1.0000    0     1.008    3.152753   -1.573330    3.364224
  19 H     1.0000    0     1.008    2.559681    2.698929    1.789810
  20 H     1.0000    0     1.008    7.958446   -1.662695    1.337889
  21 H     1.0000    0     1.008    7.927914    0.283476   -1.259386
  22 H     1.0000    0     1.008    6.517321    1.137515    1.678936
  23 H     1.0000    0     1.008   -0.187699    5.282881   -3.272294
  24 H     1.0000    0     1.008    2.603274    3.521953   -2.556245
  25 H     1.0000    0     1.008    0.286702    2.177159   -4.573040
  26 H     1.0000    0     1.008   -0.983402   -3.830778    2.535920
  27 H     1.0000    0     1.008    0.314982    1.652843    5.669632
  28 H     1.0000    0     1.008    0.438358   -2.935298   -4.992937
  29 H     1.0000    0     1.008   -6.242731    1.955573    1.565301

--------------------------------
INTERNAL COORDINATES (ANGSTROEM)
--------------------------------
 O      0   0   0     0.000000000000     0.00000000     0.00000000
 O      1   0   0     5.326865539913     0.00000000     0.00000000
 O      2   1   0     3.703413656597    57.19870778     0.00000000
 O      2   1   3     4.569137173033   101.59796000    74.83659513
 N      3   2   1     2.262156539607    86.12563974    63.84707837
 N      4   2   1     2.279168314928    63.62804437     8.87319440
 N      1   2   3     2.273824861287    41.50544821   357.04997339
 N      4   2   1     2.264380203927     2.53718540   112.54242086
 C      7   1   2     2.313266186251    61.48030415   266.07301978
 C      2   1   3     2.326844556650    44.46796671   102.36802164
 C      5   3   2     1.411947759973   143.65681863   311.27358091
 C      6   4   2     1.465297296523   148.89816013    11.45119509
 C      9   7   1     1.505488261727   154.70796150   351.02870745
 C     10   2   1     1.465525632415    92.64008704    56.15950132
 C      1   2   3     1.223866609880    54.83308991   317.33082984
 C      2   1   3     1.219155498529    72.58268345    85.92597044
 C      3   2   1     1.202719483963    79.63579382    35.88711123
 C      4   2   1     1.223673524265    30.85182813    11.10970950
 H     11   5   3     1.102757244486   114.11757487   189.15943131
 H     12   6   4     1.095998876206   110.67343469   121.09173325
 H     13   9   7     1.087160276116   115.92453082   252.72634015
 H     13   9   7     1.086776321161   116.33910886    16.01256008
 H     13   9   7     1.088525945966   108.16011614   140.48441174
 H     14  10   2     1.119071304033   111.06906643    65.85327701
 H     14  10   2     1.074720759711   107.87317843   185.33190704
 H     14  10   2     1.089050583091   109.50052023   305.23520396
 H      5   3   2     1.029726972929    87.85191791   103.34665622
 H      6   4   2     0.998118292221    88.64317701   172.07581779
 H      7   1   2     1.046604595328    87.16947179    77.23680168
 H      8   4  18     0.987627138369    95.40834319   157.98200727

---------------------------
INTERNAL COORDINATES (A.U.)
---------------------------
 O      0   0   0     0.000000000000     0.00000000     0.00000000
 O      1   0   0    10.066317022659     0.00000000     0.00000000
 O      2   1   0     6.998437571593    57.19870778     0.00000000
 O      2   1   3     8.634417925352   101.59796000    74.83659513
 N      3   2   1     4.274856331916    86.12563974    63.84707837
 N      4   2   1     4.307003928326    63.62804437     8.87319440
 N      1   2   3     4.296906264334    41.50544821   357.04997339
 N      4   2   1     4.279058448495     2.53718540   112.54242086
 C      7   1   2     4.371439566875    61.48030415   266.07301978
 C      2   1   3     4.397098968275    44.46796671   102.36802164
 C      5   3   2     2.668194581752   143.65681863   311.27358091
 C      6   4   2     2.769010595204   148.89816013    11.45119509
 C      9   7   1     2.844960512497   154.70796150   351.02870745
 C     10   2   1     2.769442087506    92.64008704    56.15950132
 C      1   2   3     2.312772717123    54.83308991   317.33082984
 C      2   1   3     2.303870006884    72.58268345    85.92597044
 C      3   2   1     2.272810440621    79.63579382    35.88711123
 C      4   2   1     2.312407838191    30.85182813    11.10970950
 H     11   5   3     2.083909184276   114.11757487   189.15943131
 H     12   6   4     2.071137719116   110.67343469   121.09173325
 H     13   9   7     2.054435185537   115.92453082   252.72634015
 H     13   9   7     2.053709615825   116.33910886    16.01256008
 H     13   9   7     2.057015927543   108.16011614   140.48441174
 H     14  10   2     2.114738288953   111.06906643    65.85327701
 H     14  10   2     2.030927906294   107.87317843   185.33190704
 H     14  10   2     2.058007348030   109.50052023   305.23520396
 H      5   3   2     1.945901971547    87.85191791   103.34665622
 H      6   4   2     1.886170221555    88.64317701   172.07581779
 H      7   1   2     1.977796055673    87.16947179    77.23680168
 H      8   4  18     1.866344813945    95.40834319   157.98200727

---------------------
BASIS SET INFORMATION
---------------------
There are 4 groups of distinct atoms

 Group   1 Type O   : 12s7p3d1f contracted to 6s4p3d1f pattern {621111/4111/111/1}
 Group   2 Type N   : 12s6p3d1f contracted to 6s3p3d1f pattern {621111/411/111/1}
 Group   3 Type C   : 12s6p3d1f contracted to 6s3p3d1f pattern {621111/411/111/1}
 Group   4 Type H   : 5s3p1d contracted to 3s3p1d pattern {311/111/1}

Atom   0O    basis set group =>   1
Atom   1O    basis set group =>   1
Atom   2O    basis set group =>   1
Atom   3O    basis set group =>   1
Atom   4N    basis set group =>   2
Atom   5N    basis set group =>   2
Atom   6N    basis set group =>   2
Atom   7N    basis set group =>   2
Atom   8C    basis set group =>   3
Atom   9C    basis set group =>   3
Atom  10C    basis set group =>   3
Atom  11C    basis set group =>   3
Atom  12C    basis set group =>   3
Atom  13C    basis set group =>   3
Atom  14C    basis set group =>   3
Atom  15C    basis set group =>   3
Atom  16C    basis set group =>   3
Atom  17C    basis set group =>   3
Atom  18H    basis set group =>   4
Atom  19H    basis set group =>   4
Atom  20H    basis set group =>   4
Atom  21H    basis set group =>   4
Atom  22H    basis set group =>   4
Atom  23H    basis set group =>   4
Atom  24H    basis set group =>   4
Atom  25H    basis set group =>   4
Atom  26H    basis set group =>   4
Atom  27H    basis set group =>   4
Atom  28H    basis set group =>   4
Atom  29H    basis set group =>   4
---------------------------------
AUXILIARY/J BASIS SET INFORMATION
---------------------------------
There are 4 groups of distinct atoms

 Group   1 Type O   : 12s5p4d2f1g contracted to 6s4p3d1f1g pattern {711111/2111/211/2/1}
 Group   2 Type N   : 12s5p4d2f1g contracted to 6s4p3d1f1g pattern {711111/2111/211/2/1}
 Group   3 Type C   : 12s5p4d2f1g contracted to 6s4p3d1f1g pattern {711111/2111/211/2/1}
 Group   4 Type H   : 5s2p1d contracted to 3s1p1d pattern {311/2/1}

Atom   0O    basis set group =>   1
Atom   1O    basis set group =>   1
Atom   2O    basis set group =>   1
Atom   3O    basis set group =>   1
Atom   4N    basis set group =>   2
Atom   5N    basis set group =>   2
Atom   6N    basis set group =>   2
Atom   7N    basis set group =>   2
Atom   8C    basis set group =>   3
Atom   9C    basis set group =>   3
Atom  10C    basis set group =>   3
Atom  11C    basis set group =>   3
Atom  12C    basis set group =>   3
Atom  13C    basis set group =>   3
Atom  14C    basis set group =>   3
Atom  15C    basis set group =>   3
Atom  16C    basis set group =>   3
Atom  17C    basis set group =>   3
Atom  18H    basis set group =>   4
Atom  19H    basis set group =>   4
Atom  20H    basis set group =>   4
Atom  21H    basis set group =>   4
Atom  22H    basis set group =>   4
Atom  23H    basis set group =>   4
Atom  24H    basis set group =>   4
Atom  25H    basis set group =>   4
Atom  26H    basis set group =>   4
Atom  27H    basis set group =>   4
Atom  28H    basis set group =>   4
Atom  29H    basis set group =>   4
[1741411826.976640] [ohm:1563908:0]        ib_iface.c:1059 UCX  ERROR ibv_create_cq(cqe=256) failed: Connection timed out
[1741411826.992175] [ohm:1563907:0]        ib_iface.c:1059 UCX  ERROR ibv_create_cq(cqe=256) failed: Connection timed out
[1741411826.992171] [ohm:1563909:0]        ib_iface.c:1059 UCX  ERROR ibv_create_cq(cqe=256) failed: Connection timed out
[1741411827.009092] [ohm:1563917:0]        ib_iface.c:1059 UCX  ERROR ibv_create_cq(cqe=256) failed: Connection timed out
[1741411827.014893] [ohm:1563953:0]        ib_iface.c:1059 UCX  ERROR ibv_create_cq(cqe=256) failed: Connection timed out
[1741411827.023169] [ohm:1563932:0]        ib_iface.c:1059 UCX  ERROR ibv_create_cq(cqe=256) failed: Connection timed out
[1741411827.024705] [ohm:1563911:0]        ib_iface.c:1059 UCX  ERROR ibv_create_cq(cqe=256) failed: Connection timed out
[1741411827.066463] [ohm:1564003:0]        ib_iface.c:1059 UCX  ERROR ibv_create_cq(cqe=256) failed: Connection timed out
[1741411827.070273] [ohm:1563955:0]        ib_iface.c:1059 UCX  ERROR ibv_create_cq(cqe=256) failed: Connection timed out
[1741411827.070729] [ohm:1563968:0]        ib_iface.c:1059 UCX  ERROR ibv_create_cq(cqe=256) failed: Connection timed out
[1741411827.073131] [ohm:1564054:0]        ib_iface.c:1059 UCX  ERROR ibv_create_cq(cqe=256) failed: Connection timed out
[1741411827.074495] [ohm:1563993:0]        ib_iface.c:1059 UCX  ERROR ibv_create_cq(cqe=256) failed: Connection timed out
[1741411827.091582] [ohm:1563923:0]        ib_iface.c:1059 UCX  ERROR ibv_create_cq(cqe=256) failed: Connection timed out
[1741411827.102232] [ohm:1564022:0]        ib_iface.c:1059 UCX  ERROR ibv_create_cq(cqe=256) failed: Connection timed out
[1741411827.105031] [ohm:1563913:0]        ib_iface.c:1059 UCX  ERROR ibv_create_cq(cqe=256) failed: Connection timed out
[1741411827.109915] [ohm:1563958:0]        ib_iface.c:1059 UCX  ERROR ibv_create_cq(cqe=256) failed: Connection timed out
[1741411827.119354] [ohm:1564014:0]        ib_iface.c:1059 UCX  ERROR ibv_create_cq(cqe=256) failed: Connection timed out
[1741411827.131375] [ohm:1564030:0]        ib_iface.c:1059 UCX  ERROR ibv_create_cq(cqe=256) failed: Connection timed out
[1741411827.136098] [ohm:1563925:0]        ib_iface.c:1059 UCX  ERROR ibv_create_cq(cqe=256) failed: Connection timed out
[1741411827.155061] [ohm:1563915:0]        ib_iface.c:1059 UCX  ERROR ibv_create_cq(cqe=256) failed: Connection timed out
[1741411827.157662] [ohm:1563906:0]        ib_iface.c:1059 UCX  ERROR ibv_create_cq(cqe=256) failed: Connection timed out
[1741411827.185000] [ohm:1563963:0]        ib_iface.c:1059 UCX  ERROR ibv_create_cq(cqe=256) failed: Connection timed out
[1741411827.198337] [ohm:1563985:0]        ib_iface.c:1059 UCX  ERROR ibv_create_cq(cqe=256) failed: Connection timed out
[1741411827.203652] [ohm:1563921:0]        ib_iface.c:1059 UCX  ERROR ibv_create_cq(cqe=256) failed: Connection timed out
[1741411827.215277] [ohm:1564008:0]        ib_iface.c:1059 UCX  ERROR ibv_create_cq(cqe=256) failed: Connection timed out
[1741411827.216032] [ohm:1563949:0]        ib_iface.c:1059 UCX  ERROR ibv_create_cq(cqe=256) failed: Connection timed out
[1741411827.217288] [ohm:1563929:0]        ib_iface.c:1059 UCX  ERROR ibv_create_cq(cqe=256) failed: Connection timed out
[1741411827.217755] [ohm:1563916:0]        ib_iface.c:1059 UCX  ERROR ibv_create_cq(cqe=256) failed: Connection timed out
[1741411827.219654] [ohm:1563938:0]        ib_iface.c:1059 UCX  ERROR ibv_create_cq(cqe=256) failed: Connection timed out
[1741411827.242273] [ohm:1563930:0]        ib_iface.c:1059 UCX  ERROR ibv_create_cq(cqe=256) failed: Connection timed out
[1741411827.249806] [ohm:1563912:0]        ib_iface.c:1059 UCX  ERROR ibv_create_cq(cqe=256) failed: Connection timed out
[1741411827.250340] [ohm:1563919:0]        ib_iface.c:1059 UCX  ERROR ibv_create_cq(cqe=256) failed: Connection timed out
[1741411827.255284] [ohm:1564009:0]        ib_iface.c:1059 UCX  ERROR ibv_create_cq(cqe=256) failed: Connection timed out
[1741411827.257374] [ohm:1563922:0]        ib_iface.c:1059 UCX  ERROR ibv_create_cq(cqe=256) failed: Connection timed out
[1741411827.265050] [ohm:1564002:0]        ib_iface.c:1059 UCX  ERROR ibv_create_cq(cqe=256) failed: Connection timed out
[1741411827.266637] [ohm:1563926:0]        ib_iface.c:1059 UCX  ERROR ibv_create_cq(cqe=256) failed: Connection timed out
[1741411827.274284] [ohm:1563927:0]        ib_iface.c:1059 UCX  ERROR ibv_create_cq(cqe=256) failed: Connection timed out
[1741411827.285016] [ohm:1563931:0]        ib_iface.c:1059 UCX  ERROR ibv_create_cq(cqe=256) failed: Connection timed out
[1741411827.288410] [ohm:1563933:0]        ib_iface.c:1059 UCX  ERROR ibv_create_cq(cqe=256) failed: Connection timed out
[1741411827.290862] [ohm:1563997:0]        ib_iface.c:1059 UCX  ERROR ibv_create_cq(cqe=256) failed: Connection timed out
[1741411827.292402] [ohm:1563969:0]        ib_iface.c:1059 UCX  ERROR ibv_create_cq(cqe=256) failed: Connection timed out
[1741411827.309242] [ohm:1563914:0]        ib_iface.c:1059 UCX  ERROR ibv_create_cq(cqe=256) failed: Connection timed out
[1741411827.309445] [ohm:1563920:0]        ib_iface.c:1059 UCX  ERROR ibv_create_cq(cqe=256) failed: Connection timed out
[1741411827.310134] [ohm:1564027:0]        ib_iface.c:1059 UCX  ERROR ibv_create_cq(cqe=256) failed: Connection timed out
[1741411827.311306] [ohm:1563910:0]        ib_iface.c:1059 UCX  ERROR ibv_create_cq(cqe=256) failed: Connection timed out
[1741411827.312271] [ohm:1563961:0]        ib_iface.c:1059 UCX  ERROR ibv_create_cq(cqe=256) failed: Connection timed out
[1741411827.312415] [ohm:1564045:0]        ib_iface.c:1059 UCX  ERROR ibv_create_cq(cqe=256) failed: Connection timed out
[1741411827.312732] [ohm:1564036:0]        ib_iface.c:1059 UCX  ERROR ibv_create_cq(cqe=256) failed: Connection timed out
[1741411827.315186] [ohm:1564012:0]        ib_iface.c:1059 UCX  ERROR ibv_create_cq(cqe=256) failed: Connection timed out
[1741411827.316625] [ohm:1563924:0]        ib_iface.c:1059 UCX  ERROR ibv_create_cq(cqe=256) failed: Connection timed out
[1741411827.316795] [ohm:1563905:0]        ib_iface.c:1059 UCX  ERROR ibv_create_cq(cqe=256) failed: Connection timed out
[1741411827.317234] [ohm:1564021:0]        ib_iface.c:1059 UCX  ERROR ibv_create_cq(cqe=256) failed: Connection timed out
[1741411827.319728] [ohm:1563973:0]        ib_iface.c:1059 UCX  ERROR ibv_create_cq(cqe=256) failed: Connection timed out
[1741411827.320682] [ohm:1563979:0]        ib_iface.c:1059 UCX  ERROR ibv_create_cq(cqe=256) failed: Connection timed out
[1741411827.320682] [ohm:1563928:0]        ib_iface.c:1059 UCX  ERROR ibv_create_cq(cqe=256) failed: Connection timed out
[1741411827.327621] [ohm:1563991:0]        ib_iface.c:1059 UCX  ERROR ibv_create_cq(cqe=256) failed: Connection timed out
[1741411827.328611] [ohm:1564039:0]        ib_iface.c:1059 UCX  ERROR ibv_create_cq(cqe=256) failed: Connection timed out
[1741411827.331253] [ohm:1564059:0]        ib_iface.c:1059 UCX  ERROR ibv_create_cq(cqe=256) failed: Connection timed out
[1741411827.331848] [ohm:1563988:0]        ib_iface.c:1059 UCX  ERROR ibv_create_cq(cqe=256) failed: Connection timed out
[1741411827.333287] [ohm:1563939:0]        ib_iface.c:1059 UCX  ERROR ibv_create_cq(cqe=256) failed: Connection timed out
[1741411827.333603] [ohm:1563918:0]        ib_iface.c:1059 UCX  ERROR ibv_create_cq(cqe=256) failed: Connection timed out
[1741411827.336860] [ohm:1564032:0]        ib_iface.c:1059 UCX  ERROR ibv_create_cq(cqe=256) failed: Connection timed out
[1741411827.337028] [ohm:1563944:0]        ib_iface.c:1059 UCX  ERROR ibv_create_cq(cqe=256) failed: Connection timed out
[1741411827.337360] [ohm:1563981:0]        ib_iface.c:1059 UCX  ERROR ibv_create_cq(cqe=256) failed: Connection timed out


           ************************************************************
           *        Program running with 64 parallel MPI-processes    *
           *              working on a common directory               *
           ************************************************************
------------------------------------------------------------------------------
                             ORCA STARTUP CALCULATIONS
                           -- RI-GTO INTEGRALS CHOSEN --
------------------------------------------------------------------------------
------------------------------------------------------------------------------
                   ___                                                        
                  /   \      - P O W E R E D   B Y -                         
                 /     \                                                     
                 |  |  |   _    _      __       _____    __    __             
                 |  |  |  | |  | |    /  \     |  _  \  |  |  /  |          
                  \  \/   | |  | |   /    \    | | | |  |  | /  /          
                 / \  \   | |__| |  /  /\  \   | |_| |  |  |/  /          
                |  |  |   |  __  | /  /__\  \  |    /   |      \           
                |  |  |   | |  | | |   __   |  |    \   |  |\   \          
                \     /   | |  | | |  |  |  |  | |\  \  |  | \   \       
                 \___/    |_|  |_| |__|  |__|  |_| \__\ |__|  \__/        
                                                                              
                      - O R C A' S   B I G   F R I E N D -                    
                                      &                                       
                       - I N T E G R A L  F E E D E R -                       
                                                                              
 v1 FN, 2020, v2 2021, v3 2022-2024                                           
------------------------------------------------------------------------------


----------------------
SHARK INTEGRAL PACKAGE
----------------------

Number of atoms                             ...     30
Number of basis functions                   ...    882
Number of shells                            ...    322
Maximum angular momentum                    ...      3
Integral batch strategy                     ... SHARK/LIBINT Hybrid
RI-J (if used) integral strategy            ... SPLIT-RIJ (Revised 2003 algorithm where possible)
Printlevel                                  ...      1
Contraction scheme used                     ... SEGMENTED contraction
Prescreening option                         ... SCHWARTZ
   Thresh                                   ... 2.500e-11
   Tcut                                     ... 2.500e-12
   Tpresel                                  ... 2.500e-12 
Coulomb Range Separation                    ... NOT USED
Exchange Range Separation                   ... Long Range
   Mu parameter                             ... 3.000e-01
   Scaling (regular/separated)              ... 1.500e-01 8.500e-01
Multipole approximations                    ... NOT USED
Finite Nucleus Model                        ... NOT USED
CABS basis                                  ... NOT available
Auxiliary Coulomb fitting basis             ... AVAILABLE
   # of basis functions in Aux-J            ...   1014
   # of shells in Aux-J                     ...    330
   Maximum angular momentum in Aux-J        ...      4
Auxiliary J/K fitting basis                 ... NOT available
Auxiliary Correlation fitting basis         ... NOT available
Auxiliary 'external' fitting basis          ... NOT available

Checking pre-screening integrals            ... done (  0.0 sec) Dimension = 322
Check shell pair data                       ... done (  0.0 sec)
Shell pair information
Shell pair cut-off parameter TPreSel        ...   2.5e-12
Total number of shell pairs                 ...     52003
Shell pairs after pre-screening             ...     44909
Total number of primitive shell pairs       ...    129718
Primitive shell pairs kept                  ...     84024
          la=0 lb=0:   8705 shell pairs
          la=1 lb=0:  11902 shell pairs
          la=1 lb=1:   4113 shell pairs
          la=2 lb=0:   8059 shell pairs
          la=2 lb=1:   5581 shell pairs
          la=2 lb=2:   1927 shell pairs
          la=3 lb=0:   2039 shell pairs
          la=3 lb=1:   1454 shell pairs
          la=3 lb=2:    996 shell pairs
          la=3 lb=3:    133 shell pairs

Calculating one electron integrals          ... done (  0.2 sec)
Calculating RI/J V-Matrix + Cholesky decomp.... done (  0.1 sec)
Calculating Nuclear repulsion               ... done (  0.0 sec) ENN=   1434.381219724285 Eh

Diagonalization of the overlap matrix:
Smallest eigenvalue                        ... 6.093e-07
Time for diagonalization                   ...    0.125 sec
Threshold for overlap eigenvalues          ... 1.000e-07
Number of eigenvalues below threshold      ... 0

IMPORTANT:
Smallest eigenvalue of S below the DiffSThresh (1.000e-06) while
Thresh>1e-12 and/or TCut>1e-13! In order to avoid SCF convergence issues,
Thresh will be set to at least 1e-12 and TCut to at least 1e-13.
This can be turned off by adding %SCF DiffSThresh -1 END to the input.

Time for construction of square roots      ...    0.137 sec
Total time needed                          ...    0.277 sec

-------------------
DFT GRID GENERATION
-------------------

General Integration Accuracy     IntAcc      ... 4.388
Radial Grid Type                 RadialGrid  ... OptM3 with GC (2021)
Angular Grid (max. ang.)         AngularGrid ... 4 (Lebedev-302)
Angular grid pruning method      GridPruning ... 4 (adaptive)
Weight generation scheme         WeightScheme... mBecke (2022)
Basis function cutoff            BFCut       ... 1.0000e-11
Integration weight cutoff        WCut        ... 1.0000e-14
Partially contracted basis set               ... off
Rotationally invariant grid construction     ... off
Angular grids for H and He will be reduced by one unit
Diffuse basis detected: some atoms will have their outermost
                        angular grid increased by 1.

Total number of grid points                  ...   151835
Total number of batches                      ...     2387
Average number of points per batch           ...       63
Average number of grid points per atom       ...     5061

--------------------
COSX GRID GENERATION
--------------------

GRIDX 1
-------
General Integration Accuracy     IntAcc      ... 3.816
Radial Grid Type                 RadialGrid  ... OptM3 with GC (2021)
Angular Grid (max. ang.)         AngularGrid ... 1 (Lebedev-50)
Angular grid pruning method      GridPruning ... 4 (adaptive)
Weight generation scheme         WeightScheme... mBecke (2022)
Basis function cutoff            BFCut       ... 1.0000e-11
Integration weight cutoff        WCut        ... 1.0000e-14
Partially contracted basis set               ... on
Rotationally invariant grid construction     ... off
Angular grids for H and He will be reduced by one unit
Diffuse basis detected: some atoms will have their outermost
                        angular grid increased by 1.

Total number of grid points                  ...    19027
Total number of batches                      ...      165
Average number of points per batch           ...      115
Average number of grid points per atom       ...      634
UseSFitting                                  ... on

GRIDX 2
-------
General Integration Accuracy     IntAcc      ... 4.020
Radial Grid Type                 RadialGrid  ... OptM3 with GC (2021)
Angular Grid (max. ang.)         AngularGrid ... 2 (Lebedev-110)
Angular grid pruning method      GridPruning ... 4 (adaptive)
Weight generation scheme         WeightScheme... mBecke (2022)
Basis function cutoff            BFCut       ... 1.0000e-11
Integration weight cutoff        WCut        ... 1.0000e-14
Partially contracted basis set               ... on
Rotationally invariant grid construction     ... off
Angular grids for H and He will be reduced by one unit
Diffuse basis detected: some atoms will have their outermost
                        angular grid increased by 1.

Total number of grid points                  ...    45834
Total number of batches                      ...      372
Average number of points per batch           ...      123
Average number of grid points per atom       ...     1528
UseSFitting                                  ... on

GRIDX 3
-------
General Integration Accuracy     IntAcc      ... 4.338
Radial Grid Type                 RadialGrid  ... OptM3 with GC (2021)
Angular Grid (max. ang.)         AngularGrid ... 3 (Lebedev-194)
Angular grid pruning method      GridPruning ... 4 (adaptive)
Weight generation scheme         WeightScheme... mBecke (2022)
Basis function cutoff            BFCut       ... 1.0000e-11
Integration weight cutoff        WCut        ... 1.0000e-14
Partially contracted basis set               ... on
Rotationally invariant grid construction     ... off
Angular grids for H and He will be reduced by one unit
Diffuse basis detected: some atoms will have their outermost
                        angular grid increased by 1.

Total number of grid points                  ...   100860
Total number of batches                      ...      805
Average number of points per batch           ...      125
Average number of grid points per atom       ...     3362
UseSFitting                                  ... on
Initializing property integral containers    ... done (  0.0 sec)

SHARK setup successfully completed in   4.1 seconds

Maximum memory used throughout the entire STARTUP-calculation: 79.9 MB
[1741411833.273424] [ohm:1564267:0]        ib_iface.c:1059 UCX  ERROR ibv_create_cq(cqe=256) failed: Connection timed out
[1741411833.296003] [ohm:1564273:0]        ib_iface.c:1059 UCX  ERROR ibv_create_cq(cqe=256) failed: Connection timed out
[1741411833.317686] [ohm:1564271:0]        ib_iface.c:1059 UCX  ERROR ibv_create_cq(cqe=256) failed: Connection timed out
[1741411833.334652] [ohm:1564266:0]        ib_iface.c:1059 UCX  ERROR ibv_create_cq(cqe=256) failed: Connection timed out
[1741411833.350725] [ohm:1564280:0]        ib_iface.c:1059 UCX  ERROR ibv_create_cq(cqe=256) failed: Connection timed out
[1741411833.374109] [ohm:1564272:0]        ib_iface.c:1059 UCX  ERROR ibv_create_cq(cqe=256) failed: Connection timed out
[1741411833.379196] [ohm:1564278:0]        ib_iface.c:1059 UCX  ERROR ibv_create_cq(cqe=256) failed: Connection timed out
[1741411833.381645] [ohm:1564268:0]        ib_iface.c:1059 UCX  ERROR ibv_create_cq(cqe=256) failed: Connection timed out
[1741411833.381664] [ohm:1564269:0]        ib_iface.c:1059 UCX  ERROR ibv_create_cq(cqe=256) failed: Connection timed out
[1741411833.384197] [ohm:1564290:0]        ib_iface.c:1059 UCX  ERROR ibv_create_cq(cqe=256) failed: Connection timed out
[1741411833.451950] [ohm:1564332:0]        ib_iface.c:1059 UCX  ERROR ibv_create_cq(cqe=256) failed: Connection timed out
[1741411833.463620] [ohm:1564291:0]        ib_iface.c:1059 UCX  ERROR ibv_create_cq(cqe=256) failed: Connection timed out
[1741411833.486751] [ohm:1564270:0]        ib_iface.c:1059 UCX  ERROR ibv_create_cq(cqe=256) failed: Connection timed out
[1741411833.487388] [ohm:1564294:0]        ib_iface.c:1059 UCX  ERROR ibv_create_cq(cqe=256) failed: Connection timed out
[1741411833.518144] [ohm:1564279:0]        ib_iface.c:1059 UCX  ERROR ibv_create_cq(cqe=256) failed: Connection timed out
[1741411833.518178] [ohm:1564363:0]        ib_iface.c:1059 UCX  ERROR ibv_create_cq(cqe=256) failed: Connection timed out
[1741411833.518245] [ohm:1564281:0]        ib_iface.c:1059 UCX  ERROR ibv_create_cq(cqe=256) failed: Connection timed out
[1741411833.520183] [ohm:1564346:0]        ib_iface.c:1059 UCX  ERROR ibv_create_cq(cqe=256) failed: Connection timed out
[1741411833.523984] [ohm:1564409:0]        ib_iface.c:1059 UCX  ERROR ibv_create_cq(cqe=256) failed: Connection timed out
[1741411833.530786] [ohm:1564293:0]        ib_iface.c:1059 UCX  ERROR ibv_create_cq(cqe=256) failed: Connection timed out
[1741411833.530928] [ohm:1564285:0]        ib_iface.c:1059 UCX  ERROR ibv_create_cq(cqe=256) failed: Connection timed out
[1741411833.531855] [ohm:1564296:0]        ib_iface.c:1059 UCX  ERROR ibv_create_cq(cqe=256) failed: Connection timed out
[1741411833.533690] [ohm:1564341:0]        ib_iface.c:1059 UCX  ERROR ibv_create_cq(cqe=256) failed: Connection timed out
[1741411833.541257] [ohm:1564324:0]        ib_iface.c:1059 UCX  ERROR ibv_create_cq(cqe=256) failed: Connection timed out
[1741411833.541405] [ohm:1564313:0]        ib_iface.c:1059 UCX  ERROR ibv_create_cq(cqe=256) failed: Connection timed out
[1741411833.541976] [ohm:1564276:0]        ib_iface.c:1059 UCX  ERROR ibv_create_cq(cqe=256) failed: Connection timed out
[1741411833.545126] [ohm:1564337:0]        ib_iface.c:1059 UCX  ERROR ibv_create_cq(cqe=256) failed: Connection timed out
[1741411833.551055] [ohm:1564366:0]        ib_iface.c:1059 UCX  ERROR ibv_create_cq(cqe=256) failed: Connection timed out
[1741411833.554271] [ohm:1564328:0]        ib_iface.c:1059 UCX  ERROR ibv_create_cq(cqe=256) failed: Connection timed out
[1741411833.554281] [ohm:1564283:0]        ib_iface.c:1059 UCX  ERROR ibv_create_cq(cqe=256) failed: Connection timed out
[1741411833.554383] [ohm:1564277:0]        ib_iface.c:1059 UCX  ERROR ibv_create_cq(cqe=256) failed: Connection timed out
[1741411833.554575] [ohm:1564391:0]        ib_iface.c:1059 UCX  ERROR ibv_create_cq(cqe=256) failed: Connection timed out
[1741411833.560529] [ohm:1564356:0]        ib_iface.c:1059 UCX  ERROR ibv_create_cq(cqe=256) failed: Connection timed out
[1741411833.563775] [ohm:1564274:0]        ib_iface.c:1059 UCX  ERROR ibv_create_cq(cqe=256) failed: Connection timed out
[1741411833.582708] [ohm:1564289:0]        ib_iface.c:1059 UCX  ERROR ibv_create_cq(cqe=256) failed: Connection timed out
[1741411833.591871] [ohm:1564284:0]        ib_iface.c:1059 UCX  ERROR ibv_create_cq(cqe=256) failed: Connection timed out
[1741411833.600096] [ohm:1564357:0]        ib_iface.c:1059 UCX  ERROR ibv_create_cq(cqe=256) failed: Connection timed out
[1741411833.602793] [ohm:1564370:0]        ib_iface.c:1059 UCX  ERROR ibv_create_cq(cqe=256) failed: Connection timed out
[1741411833.604293] [ohm:1564282:0]        ib_iface.c:1059 UCX  ERROR ibv_create_cq(cqe=256) failed: Connection timed out
[1741411833.623623] [ohm:1564379:0]        ib_iface.c:1059 UCX  ERROR ibv_create_cq(cqe=256) failed: Connection timed out
[1741411833.626739] [ohm:1564397:0]        ib_iface.c:1059 UCX  ERROR ibv_create_cq(cqe=256) failed: Connection timed out
[1741411833.636258] [ohm:1564399:0]        ib_iface.c:1059 UCX  ERROR ibv_create_cq(cqe=256) failed: Connection timed out
[1741411833.636681] [ohm:1564376:0]        ib_iface.c:1059 UCX  ERROR ibv_create_cq(cqe=256) failed: Connection timed out
[1741411833.641315] [ohm:1564288:0]        ib_iface.c:1059 UCX  ERROR ibv_create_cq(cqe=256) failed: Connection timed out
[1741411833.648439] [ohm:1564320:0]        ib_iface.c:1059 UCX  ERROR ibv_create_cq(cqe=256) failed: Connection timed out
[1741411833.649422] [ohm:1564361:0]        ib_iface.c:1059 UCX  ERROR ibv_create_cq(cqe=256) failed: Connection timed out
[1741411833.653011] [ohm:1564372:0]        ib_iface.c:1059 UCX  ERROR ibv_create_cq(cqe=256) failed: Connection timed out
[1741411833.656581] [ohm:1564335:0]        ib_iface.c:1059 UCX  ERROR ibv_create_cq(cqe=256) failed: Connection timed out
[1741411833.666280] [ohm:1564404:0]        ib_iface.c:1059 UCX  ERROR ibv_create_cq(cqe=256) failed: Connection timed out
[1741411833.671229] [ohm:1564304:0]        ib_iface.c:1059 UCX  ERROR ibv_create_cq(cqe=256) failed: Connection timed out
[1741411833.671759] [ohm:1564402:0]        ib_iface.c:1059 UCX  ERROR ibv_create_cq(cqe=256) failed: Connection timed out
[1741411833.674547] [ohm:1564287:0]        ib_iface.c:1059 UCX  ERROR ibv_create_cq(cqe=256) failed: Connection timed out
[1741411833.674820] [ohm:1564310:0]        ib_iface.c:1059 UCX  ERROR ibv_create_cq(cqe=256) failed: Connection timed out
[1741411833.676196] [ohm:1564295:0]        ib_iface.c:1059 UCX  ERROR ibv_create_cq(cqe=256) failed: Connection timed out
[1741411833.677738] [ohm:1564349:0]        ib_iface.c:1059 UCX  ERROR ibv_create_cq(cqe=256) failed: Connection timed out
[1741411833.678389] [ohm:1564292:0]        ib_iface.c:1059 UCX  ERROR ibv_create_cq(cqe=256) failed: Connection timed out
[1741411833.680308] [ohm:1564383:0]        ib_iface.c:1059 UCX  ERROR ibv_create_cq(cqe=256) failed: Connection timed out
[1741411833.681954] [ohm:1564393:0]        ib_iface.c:1059 UCX  ERROR ibv_create_cq(cqe=256) failed: Connection timed out
[1741411833.684683] [ohm:1564386:0]        ib_iface.c:1059 UCX  ERROR ibv_create_cq(cqe=256) failed: Connection timed out
[1741411833.685171] [ohm:1564275:0]        ib_iface.c:1059 UCX  ERROR ibv_create_cq(cqe=256) failed: Connection timed out
[1741411833.685196] [ohm:1564317:0]        ib_iface.c:1059 UCX  ERROR ibv_create_cq(cqe=256) failed: Connection timed out
[1741411833.685358] [ohm:1564286:0]        ib_iface.c:1059 UCX  ERROR ibv_create_cq(cqe=256) failed: Connection timed out
[1741411833.685841] [ohm:1564302:0]        ib_iface.c:1059 UCX  ERROR ibv_create_cq(cqe=256) failed: Connection timed out
[1741411833.686906] [ohm:1564299:0]        ib_iface.c:1059 UCX  ERROR ibv_create_cq(cqe=256) failed: Connection timed out


           ************************************************************
           *        Program running with 64 parallel MPI-processes    *
           *              working on a common directory               *
           ************************************************************
-------------------------------------------------------------------------------
                                 ORCA GUESS
                   Start orbitals & Density for SCF / CASSCF
-------------------------------------------------------------------------------

------------
SCF SETTINGS
------------
Hamiltonian:
 Density Functional     Method          .... DFT(GTOs)
  Functional kind                       .... Exchange-Correlation
  Functional name                       .... wB97M-V exchange-correlation functional
  Functional family                     .... Hybrid MGGA
  Functional refs                              
    [ 0] N. Mardirossian and M. Head-Gordon.,  J. Chem. Phys. 144, 214110 (2016), doi: 10.1063/1.4952647
  Fraction of HF Exchange (short range) .... 0.1500
  Fraction of HF Exchange (long range)  .... 1.0000
  Range separation parameter mu         .... 0.3000
  Functional external parameters        .... 17
    Parameter  0 _cx00      =  8.500000e-01 : u^00 coefficient for exchange
    Parameter  1 _cx01      =  1.007000e+00 : u^01 coefficient for exchange
    Parameter  2 _cx10      =  2.590000e-01 : u^10 coefficient for exchange
    Parameter  3 _css00     =  4.430000e-01 : u^00 coefficient for same-spin correlation
    Parameter  4 _css04     = -1.437000e+00 : u^04 coefficient for same-spin correlation
    Parameter  5 _css10     = -4.535000e+00 : u^10 coefficient for same-spin correlation
    Parameter  6 _css20     = -3.390000e+00 : u^20 coefficient for same-spin correlation
    Parameter  7 _css43     =  4.278000e+00 : u^43 coefficient for same-spin correlation
    Parameter  8 _cos00     =  1.000000e+00 : u^00 coefficient for opposite-spin correlation
    Parameter  9 _cos10     =  1.358000e+00 : u^10 coefficient for opposite-spin correlation
    Parameter 10 _cos20     =  2.924000e+00 : u^20 coefficient for opposite-spin correlation
    Parameter 11 _cos21     = -8.812000e+00 : u^21 coefficient for opposite-spin correlation
    Parameter 12 _cos60     = -1.390000e+00 : u^60 coefficient for opposite-spin correlation
    Parameter 13 _cos61     =  9.142000e+00 : u^61 coefficient for opposite-spin correlation
    Parameter 14 _alpha     =  1.000000e+00 : fraction of HF exchange
    Parameter 15 _beta      = -8.500000e-01 : fraction of short-range exchange
    Parameter 16 _omega     =  3.000000e-01 : range-separation constant
 Long-range corrected/Screened/Range-Separated Hybrid DFT is turned on
   Amount of maximum screened exact exchange              ....  0.850000
   Range separation parameter mu (erf(mu*r12)/r12)        ....  0.300000
 RI-approximation to the Coulomb term is turned on
   Number of AuxJ basis functions       .... 1014
   RIJ-COSX (HFX calculated with COS-X)).... on


General Settings:
 Integral files         IntName         .... orca
 Hartree-Fock type      HFTyp           .... UHF
 Total Charge           Charge          ....    0
 Multiplicity           Mult            ....    3
 Number of Electrons    NEL             ....  132
 Basis Dimension        Dim             ....  882
 Nuclear Repulsion      ENuc            ....   1434.3812197243 Eh

Convergence Acceleration:
 AO-DIIS                CNVDIIS         .... on
   Start iteration      DIISMaxIt       ....    12
   Startup error        DIISStart       ....  0.200000
   # of expansion vecs  DIISMaxEq       ....     5
   Bias factor          DIISBfac        ....   1.050
   Max. coefficient     DIISMaxC        ....  10.000
 MO-DIIS                CNVKDIIS        .... off
 Trust-Rad. Augm. Hess. CNVTRAH         .... auto
   Auto Start mean grad. ratio tolernc. ....  1.125000
   Auto Start start iteration           ....    50
   Auto Start num. interpolation iter.  ....    10
   Max. Number of Micro iterations      ....    24
   Max. Number of Macro iterations      .... Maxiter - #DIIS iter
   Number of Davidson start vectors     ....     2
   Converg. threshold    (grad. norm)   ....   1.000e-05
   Grad. Scal. Fac. for Micro threshold ....   0.100
   Minimum threshold for Micro iter.    ....   1.000e-02
   NR start threshold (gradient norm)   ....   1.000e-04
   Initial trust radius                 ....   0.400
   Minimum AH scaling param. (alpha)    ....   1.000
   Maximum AH scaling param. (alpha)    .... 1000.000
   Quad. conv. algorithm                .... NR
   White noise on init. David. guess    .... on
   Maximum white noise                  ....   0.010
   Pseudo random numbers                .... off
   Inactive MOs                         .... canonical
   Orbital update algorithm             .... Taylor
   Preconditioner                       .... Diag
   Full preconditioner red. dimension   ....   250
 SOSCF                  CNVSOSCF        .... on
   Start iteration      SOSCFMaxIt      ....   150
   Startup grad/error   SOSCFStart      ....  0.003300
   Hessian update       SOSCFHessUp     .... L-BFGS
 Level Shifting         CNVShift        .... on
   Level shift para.    LevelShift      ....    0.2500
   Turn off err/grad.   ShiftErr        ....    0.0010
 Zerner damping         CNVZerner       .... off
 Static damping         CNVDamp         .... on
   Fraction old density DampFac         ....    0.7000
   Max. Damping (<1)    DampMax         ....    0.9800
   Min. Damping (>=0)   DampMin         ....    0.0000
   Turn off err/grad.   DampErr         ....    0.1000

SCF Procedure:
 Maximum # iterations   MaxIter         ....   125
 SCF integral mode      SCFMode         .... Direct
   Integral package                     .... SHARK and LIBINT hybrid scheme
 Reset frequency        DirectResetFreq ....    20
 Integral Threshold     Thresh          ....  1.000e-12 Eh
 Primitive CutOff       TCut            ....  1.000e-13 Eh

Convergence Tolerance:
 Convergence Check Mode ConvCheckMode   .... Total+1el-Energy
 Convergence forced     ConvForced      .... 1
 Energy Change          TolE            ....  1.000e-08 Eh
 1-El. energy change                    ....  1.000e-05 Eh
 Orbital Gradient       TolG            ....  1.000e-05
 Orbital Rotation angle TolX            ....  1.000e-05
 DIIS Error             TolErr          ....  5.000e-07

------------------------------
INITIAL GUESS: MODEL POTENTIAL
------------------------------
Loading Hartree-Fock densities                     ... done
Calculating cut-offs                               ... done
Initializing the effective Hamiltonian             ... done
Setting up the integral package (SHARK)            ... done
Starting the Coulomb interaction                   ... done (   0.1 sec)
Making the grid                                    ... done (   0.2 sec)
Mapping shells                                     ... done
Starting the XC term evaluation                    ... done (   0.1 sec)
  promolecular density results
     # of electrons  =    131.994501602
     EX              =   -113.543600077
     EC              =     -4.493533895
     EX+EC           =   -118.037133972
Transforming the Hamiltonian                       ... done (   0.1 sec)
Diagonalizing the Hamiltonian                      ... done (   0.1 sec)
Back transforming the eigenvectors                 ... done (   0.1 sec)
Now organizing SCF variables                       ... done
                      ------------------
                      INITIAL GUESS DONE (   1.1 sec)
                      ------------------
             **** ENERGY FILE WAS UPDATED (orca.en.tmp) ****
Finished Guess after   3.6 sec
Maximum memory used throughout the entire GUESS-calculation: 72.3 MB
[1741411837.375796] [ohm:1564621:0]        ib_iface.c:1059 UCX  ERROR ibv_create_cq(cqe=256) failed: Connection timed out
[1741411837.377277] [ohm:1564622:0]        ib_iface.c:1059 UCX  ERROR ibv_create_cq(cqe=256) failed: Connection timed out
[1741411837.392208] [ohm:1564619:0]        ib_iface.c:1059 UCX  ERROR ibv_create_cq(cqe=256) failed: Connection timed out
[1741411837.434512] [ohm:1564624:0]        ib_iface.c:1059 UCX  ERROR ibv_create_cq(cqe=256) failed: Connection timed out
[1741411837.451485] [ohm:1564629:0]        ib_iface.c:1059 UCX  ERROR ibv_create_cq(cqe=256) failed: Connection timed out
[1741411837.451486] [ohm:1564623:0]        ib_iface.c:1059 UCX  ERROR ibv_create_cq(cqe=256) failed: Connection timed out
[1741411837.453204] [ohm:1564628:0]        ib_iface.c:1059 UCX  ERROR ibv_create_cq(cqe=256) failed: Connection timed out
[1741411837.480740] [ohm:1564625:0]        ib_iface.c:1059 UCX  ERROR ibv_create_cq(cqe=256) failed: Connection timed out
[1741411837.481835] [ohm:1564652:0]        ib_iface.c:1059 UCX  ERROR ibv_create_cq(cqe=256) failed: Connection timed out
[1741411837.484153] [ohm:1564660:0]        ib_iface.c:1059 UCX  ERROR ibv_create_cq(cqe=256) failed: Connection timed out
[1741411837.486243] [ohm:1564639:0]        ib_iface.c:1059 UCX  ERROR ibv_create_cq(cqe=256) failed: Connection timed out
[1741411837.504658] [ohm:1564647:0]        ib_iface.c:1059 UCX  ERROR ibv_create_cq(cqe=256) failed: Connection timed out
[1741411837.516675] [ohm:1564638:0]        ib_iface.c:1059 UCX  ERROR ibv_create_cq(cqe=256) failed: Connection timed out
[1741411837.529392] [ohm:1564627:0]        ib_iface.c:1059 UCX  ERROR ibv_create_cq(cqe=256) failed: Connection timed out
[1741411837.540407] [ohm:1564626:0]        ib_iface.c:1059 UCX  ERROR ibv_create_cq(cqe=256) failed: Connection timed out
[1741411837.543715] [ohm:1564643:0]        ib_iface.c:1059 UCX  ERROR ibv_create_cq(cqe=256) failed: Connection timed out
[1741411837.568458] [ohm:1564674:0]        ib_iface.c:1059 UCX  ERROR ibv_create_cq(cqe=256) failed: Connection timed out
[1741411837.595553] [ohm:1564663:0]        ib_iface.c:1059 UCX  ERROR ibv_create_cq(cqe=256) failed: Connection timed out
[1741411837.606474] [ohm:1564683:0]        ib_iface.c:1059 UCX  ERROR ibv_create_cq(cqe=256) failed: Connection timed out
[1741411837.608346] [ohm:1564669:0]        ib_iface.c:1059 UCX  ERROR ibv_create_cq(cqe=256) failed: Connection timed out
[1741411837.610295] [ohm:1564671:0]        ib_iface.c:1059 UCX  ERROR ibv_create_cq(cqe=256) failed: Connection timed out
[1741411837.616959] [ohm:1564668:0]        ib_iface.c:1059 UCX  ERROR ibv_create_cq(cqe=256) failed: Connection timed out
[1741411837.624990] [ohm:1564667:0]        ib_iface.c:1059 UCX  ERROR ibv_create_cq(cqe=256) failed: Connection timed out
[1741411837.625245] [ohm:1564656:0]        ib_iface.c:1059 UCX  ERROR ibv_create_cq(cqe=256) failed: Connection timed out
[1741411837.633255] [ohm:1564664:0]        ib_iface.c:1059 UCX  ERROR ibv_create_cq(cqe=256) failed: Connection timed out
[1741411837.641036] [ohm:1564648:0]        ib_iface.c:1059 UCX  ERROR ibv_create_cq(cqe=256) failed: Connection timed out
[1741411837.647905] [ohm:1564642:0]        ib_iface.c:1059 UCX  ERROR ibv_create_cq(cqe=256) failed: Connection timed out
[1741411837.652056] [ohm:1564722:0]        ib_iface.c:1059 UCX  ERROR ibv_create_cq(cqe=256) failed: Connection timed out
[1741411837.655403] [ohm:1564672:0]        ib_iface.c:1059 UCX  ERROR ibv_create_cq(cqe=256) failed: Connection timed out
[1741411837.657027] [ohm:1564768:0]        ib_iface.c:1059 UCX  ERROR ibv_create_cq(cqe=256) failed: Connection timed out
[1741411837.664040] [ohm:1564665:0]        ib_iface.c:1059 UCX  ERROR ibv_create_cq(cqe=256) failed: Connection timed out
[1741411837.686992] [ohm:1564675:0]        ib_iface.c:1059 UCX  ERROR ibv_create_cq(cqe=256) failed: Connection timed out
[1741411837.691574] [ohm:1564677:0]        ib_iface.c:1059 UCX  ERROR ibv_create_cq(cqe=256) failed: Connection timed out
[1741411837.695302] [ohm:1564736:0]        ib_iface.c:1059 UCX  ERROR ibv_create_cq(cqe=256) failed: Connection timed out
[1741411837.700328] [ohm:1564692:0]        ib_iface.c:1059 UCX  ERROR ibv_create_cq(cqe=256) failed: Connection timed out
[1741411837.702977] [ohm:1564658:0]        ib_iface.c:1059 UCX  ERROR ibv_create_cq(cqe=256) failed: Connection timed out
[1741411837.706251] [ohm:1564670:0]        ib_iface.c:1059 UCX  ERROR ibv_create_cq(cqe=256) failed: Connection timed out
[1741411837.706489] [ohm:1564666:0]        ib_iface.c:1059 UCX  ERROR ibv_create_cq(cqe=256) failed: Connection timed out
[1741411837.709139] [ohm:1564620:0]        ib_iface.c:1059 UCX  ERROR ibv_create_cq(cqe=256) failed: Connection timed out
[1741411837.713459] [ohm:1564739:0]        ib_iface.c:1059 UCX  ERROR ibv_create_cq(cqe=256) failed: Connection timed out
[1741411837.716144] [ohm:1564764:0]        ib_iface.c:1059 UCX  ERROR ibv_create_cq(cqe=256) failed: Connection timed out
[1741411837.716439] [ohm:1564762:0]        ib_iface.c:1059 UCX  ERROR ibv_create_cq(cqe=256) failed: Connection timed out
[1741411837.724223] [ohm:1564731:0]        ib_iface.c:1059 UCX  ERROR ibv_create_cq(cqe=256) failed: Connection timed out
[1741411837.730516] [ohm:1564696:0]        ib_iface.c:1059 UCX  ERROR ibv_create_cq(cqe=256) failed: Connection timed out
[1741411837.730687] [ohm:1564723:0]        ib_iface.c:1059 UCX  ERROR ibv_create_cq(cqe=256) failed: Connection timed out
[1741411837.732612] [ohm:1564727:0]        ib_iface.c:1059 UCX  ERROR ibv_create_cq(cqe=256) failed: Connection timed out
[1741411837.732983] [ohm:1564716:0]        ib_iface.c:1059 UCX  ERROR ibv_create_cq(cqe=256) failed: Connection timed out
[1741411837.733899] [ohm:1564673:0]        ib_iface.c:1059 UCX  ERROR ibv_create_cq(cqe=256) failed: Connection timed out
[1741411837.739325] [ohm:1564640:0]        ib_iface.c:1059 UCX  ERROR ibv_create_cq(cqe=256) failed: Connection timed out
[1741411837.739375] [ohm:1564741:0]        ib_iface.c:1059 UCX  ERROR ibv_create_cq(cqe=256) failed: Connection timed out
[1741411837.741003] [ohm:1564678:0]        ib_iface.c:1059 UCX  ERROR ibv_create_cq(cqe=256) failed: Connection timed out
[1741411837.741355] [ohm:1564704:0]        ib_iface.c:1059 UCX  ERROR ibv_create_cq(cqe=256) failed: Connection timed out
[1741411837.743131] [ohm:1564685:0]        ib_iface.c:1059 UCX  ERROR ibv_create_cq(cqe=256) failed: Connection timed out
[1741411837.747812] [ohm:1564694:0]        ib_iface.c:1059 UCX  ERROR ibv_create_cq(cqe=256) failed: Connection timed out
[1741411837.748630] [ohm:1564715:0]        ib_iface.c:1059 UCX  ERROR ibv_create_cq(cqe=256) failed: Connection timed out
[1741411837.752596] [ohm:1564745:0]        ib_iface.c:1059 UCX  ERROR ibv_create_cq(cqe=256) failed: Connection timed out
[1741411837.752805] [ohm:1564734:0]        ib_iface.c:1059 UCX  ERROR ibv_create_cq(cqe=256) failed: Connection timed out
[1741411837.754272] [ohm:1564710:0]        ib_iface.c:1059 UCX  ERROR ibv_create_cq(cqe=256) failed: Connection timed out
[1741411837.756424] [ohm:1564757:0]        ib_iface.c:1059 UCX  ERROR ibv_create_cq(cqe=256) failed: Connection timed out
[1741411837.761144] [ohm:1564749:0]        ib_iface.c:1059 UCX  ERROR ibv_create_cq(cqe=256) failed: Connection timed out
[1741411837.761239] [ohm:1564755:0]        ib_iface.c:1059 UCX  ERROR ibv_create_cq(cqe=256) failed: Connection timed out
[1741411837.762057] [ohm:1564676:0]        ib_iface.c:1059 UCX  ERROR ibv_create_cq(cqe=256) failed: Connection timed out
[1741411837.763278] [ohm:1564701:0]        ib_iface.c:1059 UCX  ERROR ibv_create_cq(cqe=256) failed: Connection timed out
[1741411837.764564] [ohm:1564708:0]        ib_iface.c:1059 UCX  ERROR ibv_create_cq(cqe=256) failed: Connection timed out


           ************************************************************
           *        Program running with 64 parallel MPI-processes    *
           *              working on a common directory               *
           ************************************************************

-------------------------------------------------------------------------------------------
                                      ORCA LEAN-SCF
                              memory conserving SCF solver
-------------------------------------------------------------------------------------------

----------------------------------------D-I-I-S--------------------------------------------
Iteration    Energy (Eh)           Delta-E    RMSDP     MaxDP     DIISErr   Damp  Time(sec)
-------------------------------------------------------------------------------------------
               ***  Starting incremental Fock matrix formation  ***
    1    -908.1272450137701071     0.00e+00  1.58e-03  2.22e-01  1.52e-01  0.700   7.8
    2    -908.3941528365064642    -2.67e-01  1.26e-03  1.40e-01  7.22e-02  0.700   6.5
                               ***Turning on AO-DIIS***
    3    -908.5115885485390663    -1.17e-01  9.04e-04  1.14e-01  2.95e-02  0.700   5.7
    4    -908.5839388925689946    -7.24e-02  2.14e-03  2.32e-01  1.96e-02  0.000   5.7
    5    -908.7466580747097851    -1.63e-01  2.82e-04  6.41e-02  6.34e-03  0.000   5.9
                              *** Initializing SOSCF ***
---------------------------------------S-O-S-C-F--------------------------------------
Iteration    Energy (Eh)           Delta-E    RMSDP     MaxDP     MaxGrad    Time(sec)
--------------------------------------------------------------------------------------
    6    -908.7479769101412330    -1.32e-03  1.25e-04  3.03e-02  3.05e-03     6.5
               *** Restarting incremental Fock matrix formation ***
    7    -908.7485868982560078    -6.10e-04  1.90e-04  2.36e-02  3.49e-03     7.4
    8    -908.7489732786391414    -3.86e-04  2.01e-04  5.01e-02  1.82e-03     6.6
    9    -908.7491194182773597    -1.46e-04  9.88e-05  1.17e-02  1.04e-03     6.6
   10    -908.7491859599315376    -6.65e-05  3.02e-05  8.58e-03  4.56e-04     6.5
   11    -908.7491975791956520    -1.16e-05  9.39e-06  1.55e-03  1.95e-04     6.3
   12    -908.7492000540166828    -2.47e-06  6.76e-06  8.65e-04  2.02e-04     6.1
   13    -908.7492014396568720    -1.39e-06  4.48e-06  6.14e-04  4.59e-05     6.0
   14    -908.7492016123821941    -1.73e-07  1.41e-06  3.20e-04  2.59e-05     5.9
   15    -908.7492016639323538    -5.16e-08  1.82e-06  4.00e-04  8.85e-06     5.7
   16    -908.7492016587941634     5.14e-09  1.45e-06  2.77e-04  4.00e-06     5.7
                 **** Energy Check signals convergence ****

               *****************************************************
               *                     SUCCESS                       *
               *           SCF CONVERGED AFTER  16 CYCLES          *
               *****************************************************

Recomputing exchange energy using gridx3       ... done (    7.852 sec)
Old exchange energy                            :    -35.036963837 Eh
New exchange energy                            :    -35.036960180 Eh
Exchange energy change after final integration :      0.000003657 Eh
Total energy after final integration           :   -908.749198002 Eh
             **** ENERGY FILE WAS UPDATED (orca.en.tmp) ****

----------------
TOTAL SCF ENERGY
----------------

Total Energy       :       -908.74919800188638 Eh          -24728.32284 eV

Components:
Nuclear Repulsion  :       1434.38121972428485 Eh           39031.49731 eV
Electronic Energy  :      -2343.13042138307901 Eh          -63759.82025 eV
One Electron Energy:      -4085.81856529707056 Eh         -111180.77548 eV
Two Electron Energy:       1742.68814391399155 Eh           47420.95523 eV

Virial components:
Potential Energy   :      -1814.45814631868325 Eh          -49373.91628 eV
Kinetic Energy     :        905.70894831679686 Eh           24645.59344 eV
Virial Ratio       :          2.00335676233600

DFT components:
N(Alpha)           :       67.000052079021 electrons
N(Beta)            :       65.000020233809 electrons
N(Total)           :      132.000072312830 electrons
E(XC)              :      -86.252438174232 Eh       

---------------
SCF CONVERGENCE
---------------

  Last Energy change         ...   -5.1382e-09  Tolerance :   1.0000e-08
  Last MAX-Density change    ...    2.7658e-04  Tolerance :   1.0000e-07
  Last RMS-Density change    ...    1.4510e-06  Tolerance :   5.0000e-09
  Last DIIS Error            ...    3.0479e-03  Tolerance :   5.0000e-07
  Last Orbital Gradient      ...    4.0026e-06  Tolerance :   1.0000e-05
  Last Orbital Rotation      ...    1.1574e-05  Tolerance :   1.0000e-05


----------------------
UHF SPIN CONTAMINATION
----------------------

Warning: in a DFT calculation there is little theoretical justification to 
         calculate <S**2> as in Hartree-Fock theory. We will do it anyways
         but you should keep in mind that the values have only limited relevance

Expectation value of <S**2>     :     2.013850
Ideal value S*(S+1) for S=1.0   :     2.000000
Deviation                       :     0.013850

----------------
ORBITAL ENERGIES
----------------
                 SPIN UP ORBITALS
  NO   OCC          E(Eh)            E(eV) 
   0   1.0000     -19.338098      -526.2164 
   1   1.0000     -19.333143      -526.0816 
   2   1.0000     -19.319240      -525.7032 
   3   1.0000     -19.318436      -525.6814 
   4   1.0000     -14.567706      -396.4074 
   5   1.0000     -14.567638      -396.4056 
   6   1.0000     -14.564868      -396.3302 
   7   1.0000     -14.557852      -396.1393 
   8   1.0000     -10.512751      -286.0665 
   9   1.0000     -10.504138      -285.8321 
  10   1.0000     -10.481154      -285.2067 
  11   1.0000     -10.473630      -285.0020 
  12   1.0000     -10.449298      -284.3398 
  13   1.0000     -10.449142      -284.3356 
  14   1.0000     -10.420067      -283.5444 
  15   1.0000     -10.418050      -283.4896 
  16   1.0000     -10.380225      -282.4603 
  17   1.0000     -10.370482      -282.1952 
  18   1.0000      -1.220658       -33.2158 
  19   1.0000      -1.214757       -33.0552 
  20   1.0000      -1.195732       -32.5375 
  21   1.0000      -1.194475       -32.5033 
  22   1.0000      -1.124461       -30.5981 
  23   1.0000      -1.094091       -29.7717 
  24   1.0000      -1.066756       -29.0279 
  25   1.0000      -1.050482       -28.5851 
  26   1.0000      -0.981922       -26.7194 
  27   1.0000      -0.960473       -26.1358 
  28   1.0000      -0.889735       -24.2109 
  29   1.0000      -0.844645       -22.9839 
  30   1.0000      -0.829563       -22.5736 
  31   1.0000      -0.804711       -21.8973 
  32   1.0000      -0.790235       -21.5034 
  33   1.0000      -0.778863       -21.1939 
  34   1.0000      -0.698382       -19.0039 
  35   1.0000      -0.696859       -18.9625 
  36   1.0000      -0.693421       -18.8689 
  37   1.0000      -0.681594       -18.5471 
  38   1.0000      -0.655277       -17.8310 
  39   1.0000      -0.638038       -17.3619 
  40   1.0000      -0.626048       -17.0356 
  41   1.0000      -0.600993       -16.3539 
  42   1.0000      -0.595295       -16.1988 
  43   1.0000      -0.585970       -15.9451 
  44   1.0000      -0.575817       -15.6688 
  45   1.0000      -0.567612       -15.4455 
  46   1.0000      -0.562392       -15.3035 
  47   1.0000      -0.560577       -15.2541 
  48   1.0000      -0.557409       -15.1679 
  49   1.0000      -0.555354       -15.1120 
  50   1.0000      -0.552499       -15.0343 
  51   1.0000      -0.539508       -14.6808 
  52   1.0000      -0.536226       -14.5915 
  53   1.0000      -0.523612       -14.2482 
  54   1.0000      -0.511597       -13.9213 
  55   1.0000      -0.504453       -13.7269 
  56   1.0000      -0.502103       -13.6629 
  57   1.0000      -0.423597       -11.5267 
  58   1.0000      -0.417806       -11.3691 
  59   1.0000      -0.410249       -11.1635 
  60   1.0000      -0.406514       -11.0618 
  61   1.0000      -0.401950       -10.9376 
  62   1.0000      -0.391964       -10.6659 
  63   1.0000      -0.390076       -10.6145 
  64   1.0000      -0.381671       -10.3858 
  65   1.0000      -0.351941        -9.5768 
  66   1.0000      -0.328124        -8.9287 
  67   0.0000       0.006450         0.1755 
  68   0.0000       0.029001         0.7891 
  69   0.0000       0.032256         0.8777 
  70   0.0000       0.035440         0.9644 
  71   0.0000       0.054024         1.4701 
  72   0.0000       0.059287         1.6133 
  73   0.0000       0.060479         1.6457 
  74   0.0000       0.061775         1.6810 
  75   0.0000       0.064332         1.7506 
  76   0.0000       0.065149         1.7728 
  77   0.0000       0.074651         2.0314 

                 SPIN DOWN ORBITALS
  NO   OCC          E(Eh)            E(eV) 
   0   1.0000     -19.334269      -526.1122 
   1   1.0000     -19.328179      -525.9465 
   2   1.0000     -19.319076      -525.6988 
   3   1.0000     -19.318345      -525.6789 
   4   1.0000     -14.567634      -396.4055 
   5   1.0000     -14.567031      -396.3891 
   6   1.0000     -14.564528      -396.3210 
   7   1.0000     -14.556782      -396.1102 
   8   1.0000     -10.512786      -286.0675 
   9   1.0000     -10.504206      -285.8340 
  10   1.0000     -10.482095      -285.2323 
  11   1.0000     -10.474690      -285.0308 
  12   1.0000     -10.449025      -284.3324 
  13   1.0000     -10.448731      -284.3244 
  14   1.0000     -10.408882      -283.2401 
  15   1.0000     -10.406515      -283.1757 
  16   1.0000     -10.380805      -282.4761 
  17   1.0000     -10.371023      -282.2099 
  18   1.0000      -1.219187       -33.1758 
  19   1.0000      -1.212320       -32.9889 
  20   1.0000      -1.190784       -32.4029 
  21   1.0000      -1.189201       -32.3598 
  22   1.0000      -1.122239       -30.5377 
  23   1.0000      -1.091969       -29.7140 
  24   1.0000      -1.065031       -28.9810 
  25   1.0000      -1.047662       -28.5083 
  26   1.0000      -0.968712       -26.3600 
  27   1.0000      -0.942977       -25.6597 
  28   1.0000      -0.884251       -24.0617 
  29   1.0000      -0.838294       -22.8112 
  30   1.0000      -0.820896       -22.3377 
  31   1.0000      -0.799653       -21.7597 
  32   1.0000      -0.789083       -21.4720 
  33   1.0000      -0.777233       -21.1496 
  34   1.0000      -0.694195       -18.8900 
  35   1.0000      -0.692764       -18.8511 
  36   1.0000      -0.687995       -18.7213 
  37   1.0000      -0.673837       -18.3360 
  38   1.0000      -0.644508       -17.5380 
  39   1.0000      -0.631798       -17.1921 
  40   1.0000      -0.621660       -16.9162 
  41   1.0000      -0.595061       -16.1924 
  42   1.0000      -0.588471       -16.0131 
  43   1.0000      -0.579473       -15.7683 
  44   1.0000      -0.566445       -15.4137 
  45   1.0000      -0.561708       -15.2849 
  46   1.0000      -0.555864       -15.1258 
  47   1.0000      -0.553341       -15.0572 
  48   1.0000      -0.552442       -15.0327 
  49   1.0000      -0.548201       -14.9173 
  50   1.0000      -0.541979       -14.7480 
  51   1.0000      -0.532216       -14.4823 
  52   1.0000      -0.529604       -14.4113 
  53   1.0000      -0.515654       -14.0317 
  54   1.0000      -0.506420       -13.7804 
  55   1.0000      -0.496356       -13.5065 
  56   1.0000      -0.493645       -13.4328 
  57   1.0000      -0.419305       -11.4099 
  58   1.0000      -0.412249       -11.2179 
  59   1.0000      -0.406239       -11.0543 
  60   1.0000      -0.395057       -10.7500 
  61   1.0000      -0.387482       -10.5439 
  62   1.0000      -0.386268       -10.5109 
  63   1.0000      -0.384876       -10.4730 
  64   1.0000      -0.375642       -10.2218 
  65   0.0000      -0.067279        -1.8307 
  66   0.0000      -0.050175        -1.3653 
  67   0.0000       0.006229         0.1695 
  68   0.0000       0.028707         0.7811 
  69   0.0000       0.032226         0.8769 
  70   0.0000       0.035365         0.9623 
  71   0.0000       0.054951         1.4953 
  72   0.0000       0.059460         1.6180 
  73   0.0000       0.061328         1.6688 
  74   0.0000       0.062317         1.6957 
  75   0.0000       0.064952         1.7674 
*Only the first 10 virtual orbitals were printed.

                    ********************************
                    * MULLIKEN POPULATION ANALYSIS *
                    ********************************

--------------------------------------------
MULLIKEN ATOMIC CHARGES AND SPIN POPULATIONS
--------------------------------------------
   0 O :   -0.676604    0.183113
   1 O :   -0.631682    0.143437
   2 O :   -0.644710    0.006203
   3 O :   -0.659602    0.003585
   4 N :   -0.238071    0.026539
   5 N :   -0.200642    0.018131
   6 N :   -0.056658    0.058655
   7 N :   -0.019661    0.021147
   8 C :    0.026202    0.434732
   9 C :    0.104136    0.431602
  10 C :    0.366740    0.079888
  11 C :    0.512627    0.204728
  12 C :   -1.323601    0.004126
  13 C :   -1.645404   -0.006504
  14 C :    0.588991    0.154183
  15 C :    0.476156    0.099539
  16 C :    0.352541    0.003547
  17 C :    0.341854   -0.001321
  18 H :    0.478104    0.000616
  19 H :    0.625433    0.028308
  20 H :    0.339279    0.026362
  21 H :    0.300495    0.010296
  22 H :    0.312695    0.009291
  23 H :    0.435441    0.033733
  24 H :    0.305626   -0.006474
  25 H :    0.276354    0.032144
  26 H :    0.081662    0.000266
  27 H :    0.041991   -0.000400
  28 H :    0.089684    0.000442
  29 H :    0.040627    0.000085
Sum of atomic charges         :    0.0000000
Sum of atomic spin populations:    2.0000000

-----------------------------------------------------
MULLIKEN REDUCED ORBITAL CHARGES AND SPIN POPULATIONS
-----------------------------------------------------
CHARGE
  0 O s       :     4.096346  s :     4.096346
      pz      :     1.470792  p :     4.549882
      px      :     1.617998
      py      :     1.461093
      dz2     :     0.004209  d :     0.028519
      dxz     :     0.007905
      dyz     :     0.010421
      dx2y2   :     0.001508
      dxy     :     0.004476
      f0      :     0.000343  f :     0.001857
      f+1     :     0.000481
      f-1     :     0.000262
      f+2     :     0.000349
      f-2     :     0.000334
      f+3     :     0.000047
[...]
[1741412115.251963] [ohm:1567058:0]        ib_iface.c:1059 UCX  ERROR ibv_create_cq(cqe=256) failed: Connection timed out
[1741412115.252961] [ohm:1567034:0]        ib_iface.c:1059 UCX  ERROR ibv_create_cq(cqe=256) failed: Connection timed out
[1741412115.256195] [ohm:1567066:0]        ib_iface.c:1059 UCX  ERROR ibv_create_cq(cqe=256) failed: Connection timed out
[1741412115.257124] [ohm:1567083:0]        ib_iface.c:1059 UCX  ERROR ibv_create_cq(cqe=256) failed: Connection timed out
[1741412115.257403] [ohm:1567102:0]        ib_iface.c:1059 UCX  ERROR ibv_create_cq(cqe=256) failed: Connection timed out
[1741412115.257397] [ohm:1567021:0]        ib_iface.c:1059 UCX  ERROR ibv_create_cq(cqe=256) failed: Connection timed out
[1741412115.257642] [ohm:1567011:0]        ib_iface.c:1059 UCX  ERROR ibv_create_cq(cqe=256) failed: Connection timed out
[1741412115.259526] [ohm:1567113:0]        ib_iface.c:1059 UCX  ERROR ibv_create_cq(cqe=256) failed: Connection timed out
[1741412115.259885] [ohm:1567022:0]        ib_iface.c:1059 UCX  ERROR ibv_create_cq(cqe=256) failed: Connection timed out
[1741412115.259964] [ohm:1567026:0]        ib_iface.c:1059 UCX  ERROR ibv_create_cq(cqe=256) failed: Connection timed out


           ************************************************************
           *        Program running with 64 parallel MPI-processes    *
           *              working on a common directory               *
           ************************************************************

------------------------------------------------------------------------------
                              ORCA PROPERTY CALCULATIONS
------------------------------------------------------------------------------

GBWName                                 ... orca.gbw
Number of atoms                         ...     30
Number of basis functions               ...    882
Max core memory                         ...   1024 MB

Electric properties:
Dipole moment                           ... YES
Quadrupole moment                       ...  NO
Static polarizability (Dipole/Dipole)   ...  NO
Static polarizability (Dipole/Quad.)    ...  NO
Static polarizability (Quad./Quad.)     ...  NO
Static polarizability (Velocity)        ...  NO

Atomic electric properties:
Dipole moment                           ...  NO
Quadrupole moment                       ...  NO
Static polarizability                   ...  NO

Choice of electric origin               ... Center of mass
Position of electric origin             ...    -0.015492    -0.090839    -0.053510

General magnetic properties:
Magnetizability                         ...  NO

EPR properties:
g-Tensor (aka g-matrix)                 ...  NO
Zero-Field splitting spin-orbit         ...  NO
Zero-field splitting spin-spin          ...  NO
Hyperfine couplings                     ...  NO (   0 nuclei)
Quadrupole couplings                    ...  NO (   0 nuclei)
Contact density                         ...  NO (   0 nuclei)

NMR properties:
Chemical shifts                         ...  NO (   0 nuclei)
Spin-rotation constants                 ...  NO (   0 nuclei)
Spin-spin couplings                     ...  NO (   0 nuclei,    0 pairs)

Choice of magnetic origin               ... GIAO
Position of magnetic origin             ...     0.000000     0.000000     0.000000

Properties with geometric perturbations:
SCF Hessian                             ...  NO
IR spectrum                             ...  NO
VCD spectrum                            ...  NO
X-ray spectroscopy properties:
SCF XES/XAS/RIXS spectra                ...  NO


-------------
DIPOLE MOMENT
-------------

Method             : SCF
Type of density    : Electron Density
Multiplicity       :   3
Irrep              :   0
Energy             :  -908.7491980018863842 Eh
Relativity type    : 
Basis              : AO
                                X                 Y                 Z
Electronic contribution:    -10.014196614      -4.279538218       0.341899769
Nuclear contribution   :     12.117993361       4.847333056       0.946179382
                        -----------------------------------------
Total Dipole Moment    :      2.103796747       0.567794838       1.288079151
                        -----------------------------------------
Magnitude (a.u.)       :      2.531303939
Magnitude (Debye)      :      6.434063290



--------------------
Rotational spectrum 
--------------------
 
Rotational constants in cm-1:             0.022522             0.012153             0.011152 
Rotational constants in MHz :           675.179419           364.351685           334.335489 

Dipole components along the rotational axes: 
x,y,z [a.u.] :     0.691487     2.403956     0.387735 
x,y,z [Debye]:     1.757621     6.110372     0.985544 

 

-------------
DIPOLE MOMENT
-------------

Method             : TDA/CIS
Type of density    : Electron Density
Level              : Relaxed density
State              :   2
Multiplicity       :   3
Irrep              :   0
Energy             :     0.0000000000000000 Eh
Relativity type    : 
Basis              : AO
                                X                 Y                 Z
Electronic contribution:     -9.943496606      -4.251645781       0.386338043
Nuclear contribution   :     12.117993361       4.847333056       0.946179382
                        -----------------------------------------
Total Dipole Moment    :      2.174496755       0.595687274       1.332517425
                        -----------------------------------------
Magnitude (a.u.)       :      2.618946764
Magnitude (Debye)      :      6.656833647



--------------------
Rotational spectrum 
--------------------
 
Rotational constants in cm-1:             0.022522             0.012153             0.011152 
Rotational constants in MHz :           675.179419           364.351685           334.335489 

Dipole components along the rotational axes: 
x,y,z [a.u.] :     0.710753     2.487374     0.408266 
x,y,z [Debye]:     1.806590     6.322403     1.037730 

 

Dipole moment calculation done in   0.2 sec 

Maximum memory used throughout the entire PROP-calculation: 81.5 MB
[1741412117.680986] [ohm:1567337:0]        ib_iface.c:1059 UCX  ERROR ibv_create_cq(cqe=256) failed: Connection timed out
[1741412117.690343] [ohm:1567342:0]        ib_iface.c:1059 UCX  ERROR ibv_create_cq(cqe=256) failed: Connection timed out
[1741412117.696109] [ohm:1567332:0]        ib_iface.c:1059 UCX  ERROR ibv_create_cq(cqe=256) failed: Connection timed out
[1741412117.696988] [ohm:1567334:0]        ib_iface.c:1059 UCX  ERROR ibv_create_cq(cqe=256) failed: Connection timed out
[1741412117.697778] [ohm:1567349:0]        ib_iface.c:1059 UCX  ERROR ibv_create_cq(cqe=256) failed: Connection timed out
[1741412117.699783] [ohm:1567338:0]        ib_iface.c:1059 UCX  ERROR ibv_create_cq(cqe=256) failed: Connection timed out
[1741412117.706106] [ohm:1567345:0]        ib_iface.c:1059 UCX  ERROR ibv_create_cq(cqe=256) failed: Connection timed out
[1741412117.722870] [ohm:1567348:0]        ib_iface.c:1059 UCX  ERROR ibv_create_cq(cqe=256) failed: Connection timed out
[1741412117.724354] [ohm:1567344:0]        ib_iface.c:1059 UCX  ERROR ibv_create_cq(cqe=256) failed: Connection timed out
[1741412117.725890] [ohm:1567357:0]        ib_iface.c:1059 UCX  ERROR ibv_create_cq(cqe=256) failed: Connection timed out
[1741412117.733331] [ohm:1567343:0]        ib_iface.c:1059 UCX  ERROR ibv_create_cq(cqe=256) failed: Connection timed out
[1741412117.734627] [ohm:1567340:0]        ib_iface.c:1059 UCX  ERROR ibv_create_cq(cqe=256) failed: Connection timed out
[1741412117.734765] [ohm:1567347:0]        ib_iface.c:1059 UCX  ERROR ibv_create_cq(cqe=256) failed: Connection timed out
[1741412117.800805] [ohm:1567336:0]        ib_iface.c:1059 UCX  ERROR ibv_create_cq(cqe=256) failed: Connection timed out
[1741412117.808068] [ohm:1567341:0]        ib_iface.c:1059 UCX  ERROR ibv_create_cq(cqe=256) failed: Connection timed out
[1741412117.809032] [ohm:1567434:0]        ib_iface.c:1059 UCX  ERROR ibv_create_cq(cqe=256) failed: Connection timed out
[1741412117.812173] [ohm:1567436:0]        ib_iface.c:1059 UCX  ERROR ibv_create_cq(cqe=256) failed: Connection timed out
[1741412117.814352] [ohm:1567346:0]        ib_iface.c:1059 UCX  ERROR ibv_create_cq(cqe=256) failed: Connection timed out
[1741412117.818210] [ohm:1567364:0]        ib_iface.c:1059 UCX  ERROR ibv_create_cq(cqe=256) failed: Connection timed out
[1741412117.820746] [ohm:1567386:0]        ib_iface.c:1059 UCX  ERROR ibv_create_cq(cqe=256) failed: Connection timed out
[1741412117.834810] [ohm:1567351:0]        ib_iface.c:1059 UCX  ERROR ibv_create_cq(cqe=256) failed: Connection timed out
[1741412117.844013] [ohm:1567378:0]        ib_iface.c:1059 UCX  ERROR ibv_create_cq(cqe=256) failed: Connection timed out
[1741412117.856493] [ohm:1567395:0]        ib_iface.c:1059 UCX  ERROR ibv_create_cq(cqe=256) failed: Connection timed out
[1741412117.867670] [ohm:1567353:0]        ib_iface.c:1059 UCX  ERROR ibv_create_cq(cqe=256) failed: Connection timed out
[1741412117.873363] [ohm:1567411:0]        ib_iface.c:1059 UCX  ERROR ibv_create_cq(cqe=256) failed: Connection timed out
[1741412117.884411] [ohm:1567448:0]        ib_iface.c:1059 UCX  ERROR ibv_create_cq(cqe=256) failed: Connection timed out
[1741412117.884640] [ohm:1567383:0]        ib_iface.c:1059 UCX  ERROR ibv_create_cq(cqe=256) failed: Connection timed out
[1741412117.886170] [ohm:1567359:0]        ib_iface.c:1059 UCX  ERROR ibv_create_cq(cqe=256) failed: Connection timed out
[1741412117.890448] [ohm:1567372:0]        ib_iface.c:1059 UCX  ERROR ibv_create_cq(cqe=256) failed: Connection timed out
[1741412117.914126] [ohm:1567406:0]        ib_iface.c:1059 UCX  ERROR ibv_create_cq(cqe=256) failed: Connection timed out
[1741412117.923906] [ohm:1567426:0]        ib_iface.c:1059 UCX  ERROR ibv_create_cq(cqe=256) failed: Connection timed out
[1741412117.926672] [ohm:1567482:0]        ib_iface.c:1059 UCX  ERROR ibv_create_cq(cqe=256) failed: Connection timed out
[1741412117.927187] [ohm:1567474:0]        ib_iface.c:1059 UCX  ERROR ibv_create_cq(cqe=256) failed: Connection timed out
[1741412117.930408] [ohm:1567404:0]        ib_iface.c:1059 UCX  ERROR ibv_create_cq(cqe=256) failed: Connection timed out
[1741412117.933881] [ohm:1567350:0]        ib_iface.c:1059 UCX  ERROR ibv_create_cq(cqe=256) failed: Connection timed out
[1741412117.936918] [ohm:1567363:0]        ib_iface.c:1059 UCX  ERROR ibv_create_cq(cqe=256) failed: Connection timed out
[1741412117.957492] [ohm:1567374:0]        ib_iface.c:1059 UCX  ERROR ibv_create_cq(cqe=256) failed: Connection timed out
[1741412117.962128] [ohm:1567460:0]        ib_iface.c:1059 UCX  ERROR ibv_create_cq(cqe=256) failed: Connection timed out
[1741412117.966556] [ohm:1567382:0]        ib_iface.c:1059 UCX  ERROR ibv_create_cq(cqe=256) failed: Connection timed out
[1741412117.983600] [ohm:1567445:0]        ib_iface.c:1059 UCX  ERROR ibv_create_cq(cqe=256) failed: Connection timed out
[1741412117.987872] [ohm:1567454:0]        ib_iface.c:1059 UCX  ERROR ibv_create_cq(cqe=256) failed: Connection timed out
[1741412117.987902] [ohm:1567465:0]        ib_iface.c:1059 UCX  ERROR ibv_create_cq(cqe=256) failed: Connection timed out
[1741412117.990505] [ohm:1567469:0]        ib_iface.c:1059 UCX  ERROR ibv_create_cq(cqe=256) failed: Connection timed out
[1741412117.994741] [ohm:1567354:0]        ib_iface.c:1059 UCX  ERROR ibv_create_cq(cqe=256) failed: Connection timed out
[1741412117.994833] [ohm:1567398:0]        ib_iface.c:1059 UCX  ERROR ibv_create_cq(cqe=256) failed: Connection timed out
[1741412117.995513] [ohm:1567458:0]        ib_iface.c:1059 UCX  ERROR ibv_create_cq(cqe=256) failed: Connection timed out
[1741412117.998190] [ohm:1567352:0]        ib_iface.c:1059 UCX  ERROR ibv_create_cq(cqe=256) failed: Connection timed out
[1741412117.998703] [ohm:1567358:0]        ib_iface.c:1059 UCX  ERROR ibv_create_cq(cqe=256) failed: Connection timed out
[1741412118.002917] [ohm:1567440:0]        ib_iface.c:1059 UCX  ERROR ibv_create_cq(cqe=256) failed: Connection timed out
[1741412118.004834] [ohm:1567333:0]        ib_iface.c:1059 UCX  ERROR ibv_create_cq(cqe=256) failed: Connection timed out
[1741412118.005334] [ohm:1567423:0]        ib_iface.c:1059 UCX  ERROR ibv_create_cq(cqe=256) failed: Connection timed out
[1741412118.006451] [ohm:1567432:0]        ib_iface.c:1059 UCX  ERROR ibv_create_cq(cqe=256) failed: Connection timed out
[1741412118.006460] [ohm:1567442:0]        ib_iface.c:1059 UCX  ERROR ibv_create_cq(cqe=256) failed: Connection timed out
[1741412118.009482] [ohm:1567335:0]        ib_iface.c:1059 UCX  ERROR ibv_create_cq(cqe=256) failed: Connection timed out
[1741412118.011226] [ohm:1567463:0]        ib_iface.c:1059 UCX  ERROR ibv_create_cq(cqe=256) failed: Connection timed out
[1741412118.012971] [ohm:1567389:0]        ib_iface.c:1059 UCX  ERROR ibv_create_cq(cqe=256) failed: Connection timed out
[1741412118.014962] [ohm:1567339:0]        ib_iface.c:1059 UCX  ERROR ibv_create_cq(cqe=256) failed: Connection timed out
[1741412118.016784] [ohm:1567355:0]        ib_iface.c:1059 UCX  ERROR ibv_create_cq(cqe=256) failed: Connection timed out
[1741412118.017645] [ohm:1567427:0]        ib_iface.c:1059 UCX  ERROR ibv_create_cq(cqe=256) failed: Connection timed out
[1741412118.018936] [ohm:1567420:0]        ib_iface.c:1059 UCX  ERROR ibv_create_cq(cqe=256) failed: Connection timed out
[1741412118.020311] [ohm:1567477:0]        ib_iface.c:1059 UCX  ERROR ibv_create_cq(cqe=256) failed: Connection timed out
[1741412118.020745] [ohm:1567403:0]        ib_iface.c:1059 UCX  ERROR ibv_create_cq(cqe=256) failed: Connection timed out
[1741412118.021291] [ohm:1567360:0]        ib_iface.c:1059 UCX  ERROR ibv_create_cq(cqe=256) failed: Connection timed out
[1741412118.022645] [ohm:1567414:0]        ib_iface.c:1059 UCX  ERROR ibv_create_cq(cqe=256) failed: Connection timed out

--------------------------------
SUGGESTED CITATIONS FOR THIS RUN
--------------------------------

Below you find a list of papers that are relevant to this ORCA run
We neither can nor want to force you to cite these papers, but we appreciate if you do
You receive ORCA, which is the product of decades of hard work by many enthusiastic individuals, for free
The only thing we kindly ask in return is that you cite our papers,
We deeply appreciate it, if you show your appreciation for ORCA by not just citing the generic ORCA reference.

Please note that relegating all ORCA citations to the supporting information does *not* help us.
SI sections are not indexed - citations you put there will not count into any citation statistics
But we need these citations in order to attract the funding resources that allow us to do what we are doing

Therefore, if you are a happy ORCA user, please consider citing a few of the papers listed below in the main body of your paper

In addition to the list printed below, the program has created the file orca.bibtex that contains the list in bibtex format
You can import this file easily into all common literature databanks and citation aid programs


List of essential papers. We consider these as the minimum necessary citations

  1. Neese,F.
     Software update: the ORCA program system, version 5.0
     WIRES Comput. Molec. Sci., 2022 12(1)e1606
     doi.org/10.1002/wcms.1606

List of papers to cite with high priority. The work reported in these papers was absolutely
necessary for this run to complete.
Our perspective: the developers of density functionals and basis sets usually get cited in chemistry papers
Good! But without the algorithms to do something with them, the functionals or basis sets would not do anything.
Hence, in our opinion, the algorithm design and method developments papers are equally worthy of getting cited

  1. Neese,F.; Olbrich,G.
     Efficient use of the resolution of the identity approximation in time-dependent density functional calculations with hybrid density functionals
     Chem. Phys. Lett., 2002 362 170-178
     doi.org/10.1016/s0009-2614(02)01053-9
  2. Neese,F.
     An improvement of the resolution of the identity approximation for the formation of the Coulomb matrix
     J. Comp. Chem., 2003 24(14)1740-1747
     doi.org/10.1002/jcc.10318
  3. Neese,F.; Wennmohs,F.; Hansen,A.; Becker,U.
     Efficient, approximate and parallel Hartree-Fock and hybrid DFT calculations. A 'chain-of-spheres' algorithm for the Hartree-Fock exchange
     Chem. Phys., 2009 356(1-3)98-109
     doi.org/10.1016/j.chemphys.2008.10.036
  4. Petrenko,T.; Kossmann,S.; Neese,F.
     Efficient time-dependent density functional theory approximations for hybrid density functionals: Analytical gradients and parallelization
     J. Chem. Phys., 2011 134 054116
     doi.org/10.1063/1.3533441
  5. Helmich-Paris,B.; de Souza,B.; Neese,F.; Izsák,R.
     An improved chain of spheres for exchange algorithm
     J. Chem. Phys., 2021 155 104109
     doi.org/doi: 10.1063/5.0058766.
  6. Neese,F.
     The SHARK Integral Generation and Digestion System
     J. Comp. Chem., 2022  1-16
     doi.org/10.1002/jcc.26942
  7. Lehtola,S.; Steigemann,C.; Oliveira,M.; Marques,M.
     Recent developments in Libxc - A comprehensive library of functionals for density functional theory
     Software X, 2018 7 
     doi.org/10.1016/j.softx.2017.11.002
  8. Grimme,S.; Antony,J.; Ehrlich,S.; Krieg,H.
     A consistent and accurate ab initio parametrization of density functional dispersion correction (DFT-D) for the 94 elements H-Pu
     J. Chem. Phys., 2010 132 154104-XXXX
     doi.org/10.1063/1.3382344
  9. Grimme,S.; Ehrlich,S.; Goerigk,L.
     Effect of the damping function in dispersion corrected density functional theory
     J. Comput. Chem., 2011 32(7)1456-1465
     doi.org/10.1002/jcc.21759

List of suggested additional citations. These are papers that are important in the 'surrounding' of 
of this run, or papers that preceded the highly important papers. If you like your results we are grateful for a citation.

  1. Izsak,R.; Neese,F.
     An overlap fitted chain of spheres exchange method
     J. Chem. Phys., 2011 135 144105
     doi.org/10.1063/1.3646921
  2. Izsak,R.; Hansen,A.; Neese,F.
     The resolution of identity and chain of spheres approximations for the LPNO-CCSD singles Fock term
     Molec. Phys., 2012 110 2413-2417
     doi.org/10.1080/00268976.2012.687466
  3. Neese,F.
     The ORCA program system
     WIRES Comput. Molec. Sci., 2012 2(1)73-78
     doi.org/10.1002/wcms.81
  4. Izsak,R.; Neese,F.; Klopper,W.
     Robust fitting techniques in the chain of spheres approximation to the Fock exchange: The role of the complementary space
     J. Chem. Phys., 2013 139 
     doi.org/10.1063/1.4819264
  5. Neese,F.
     Software update: the ORCA program system, version 4.0
     WIRES Comput. Molec. Sci., 2018 8(1)1-6
     doi.org/10.1002/wcms.1327
  6. Neese,F.; Wennmohs,F.; Becker,U.; Riplinger,C.
     The ORCA quantum chemistry program package
     J. Chem. Phys., 2020 152 Art. No. L224108
     doi.org/10.1063/5.0004608

List of optional additional citations

  1. Neese,F.
     Approximate second-order SCF convergence for spin unrestricted wavefunctions
     Chem. Phys. Lett., 2000 325(1-3)93-98
     doi.org/10.1016/s0009-2614(00)00662-x

Timings for individual modules:

Sum of individual times          ...      290.747 sec (=   4.846 min)
Startup calculation              ...        6.340 sec (=   0.106 min)   2.2 %
SCF iterations                   ...      118.611 sec (=   1.977 min)  40.8 %
Property integrals               ...        4.144 sec (=   0.069 min)   1.4 %
Property calculations            ...        2.920 sec (=   0.049 min)   1.0 %
CIS module                       ...      158.733 sec (=   2.646 min)  54.6 %
                             ****ORCA TERMINATED NORMALLY****
TOTAL RUN TIME: 0 days 0 hours 4 minutes 52 seconds 787 msec
