
                                 *****************
                                 * O   R   C   A *
                                 *****************

                                            #,                                       
                                            ###                                      
                                            ####                                     
                                            #####                                    
                                            ######                                   
                                           ########,                                 
                                     ,,################,,,,,                         
                               ,,#################################,,                 
                          ,,##########################################,,             
                       ,#########################################, ''#####,          
                    ,#############################################,,   '####,        
                  ,##################################################,,,,####,       
                ,###########''''           ''''###############################       
              ,#####''   ,,,,##########,,,,          '''####'''          '####       
            ,##' ,,,,###########################,,,                        '##       
           ' ,,###''''                  '''############,,,                           
         ,,##''                                '''############,,,,        ,,,,,,###''
      ,#''                                            '''#######################'''  
     '                                                          ''''####''''         
             ,#######,   #######,   ,#######,      ##                                
            ,#'     '#,  ##    ##  ,#'     '#,    #''#        ,####,   ,####,        
            ##       ##  ##   ,#'  ##            #'  '#       #'       #'  '#        
            ##       ##  #######   ##           ,######,      #####,   #    #        
            '#,     ,#'  ##    ##  '#,     ,#' ,#      #,     #,   #   #,  ,#        
             '#######'   ##     ##  '#######'  #'      '#     '####' # '####'        



                #########################################################
                #                        -***-                          #
                #          Department of theory and spectroscopy        #
                #                                                       #
                #                      Frank Neese                      #
                #                                                       #
                #     Directorship, Architecture, Infrastructure        #
                #                    SHARK, DRIVERS                     #
                #        Core code/Algorithms in most modules           #
                #                                                       #
                #        Max Planck Institute fuer Kohlenforschung      #
                #                Kaiser Wilhelm Platz 1                 #
                #                 D-45470 Muelheim/Ruhr                 #
                #                      Germany                          #
                #                                                       #
                #                  All rights reserved                  #
                #                        -***-                          #
                #########################################################


                         Program Version 6.0.0  -   RELEASE  -


 With contributions from (in alphabetic order):
   Daniel Aravena         : Magnetic Suceptibility
   Michael Atanasov       : Ab Initio Ligand Field Theory (pilot matlab implementation)
   Alexander A. Auer      : GIAO ZORA, VPT2 properties, NMR spectrum
   Ute Becker             : All parallelization in ORCA, NUMFREQ, NUMCALC
   Giovanni Bistoni       : ED, misc. LED, open-shell LED, HFLD
   Martin Brehm           : Molecular dynamics
   Dmytro Bykov           : pre 5.0 version of the SCF Hessian
   Marcos Casanova-Páez   : Triplet and SCS-CIS(D). UHF-(DLPNO)-IP/EA/STEOM-CCSD. UHF-CVS-IP/STEOM-CCSD
   Vijay G. Chilkuri      : MRCI spin determinant printing, contributions to CSF-ICE
   Pauline Colinet        : FMM embedding
   Dipayan Datta          : RHF DLPNO-CCSD density
   Achintya Kumar Dutta   : EOM-CC, STEOM-CC
   Nicolas Foglia         : Exact transition moments, OPA infrastructure, MCD improvements
   Dmitry Ganyushin       : Spin-Orbit,Spin-Spin,Magnetic field MRCI
   Miquel Garcia          : C-PCM and meta-GGA Hessian, CCSD/C-PCM, Gaussian charge scheme
   Tiago L. C. Gouveia    : GS-ROHF, GS-ROCIS
   Yang Guo               : DLPNO-NEVPT2, F12-NEVPT2, CIM, IAO-localization
   Andreas Hansen         : Spin unrestricted coupled pair/coupled cluster methods
   Ingolf Harden          : AUTO-CI MPn and infrastructure 
   Benjamin Helmich-Paris : MC-RPA, TRAH-(SCF,CASSCF), AVAS, COSX integrals, SCF dyn. polar.
   Lee Huntington         : MR-EOM, pCC
   Robert Izsak           : Overlap fitted RIJCOSX, COSX-SCS-MP3, EOM
   Riya Kayal             : Wick's Theorem for AUTO-CI, AUTO-CI UHF-CCSDT
   Emily Kempfer          : AUTO-CI, RHF CISDT and CCSDT
   Christian Kollmar      : KDIIS, OOCD, Brueckner-CCSD(T), CCSD density, CASPT2, CASPT2-K, improved NEVPT2
   Axel Koslowski         : Symmetry handling
   Simone Kossmann        : Meta GGA functionals, TD-DFT gradient, OOMP2, (MP2 Hessian; deprecated post 5.0)
   Lucas Lang             : DCDCAS
   Marvin Lechner         : AUTO-CI (C++ implementation), FIC-MRCC
   Spencer Leger          : CASSCF response
   Dagmar Lenk            : GEPOL surface, SMD, ORCA-2-JSON
   Dimitrios Liakos       : Extrapolation schemes; Compound Job, initial MDCI parallelization
   Dimitrios Manganas     : Further ROCIS development; embedding schemes. LFT, Crystal Embedding
   Dimitrios Pantazis     : SARC Basis sets
   Anastasios Papadopoulos: AUTO-CI, single reference methods and gradients
   Taras Petrenko         : pre 6.0 DFT Hessian and TD-DFT gradient, (ASA, deprecated), ECA, 1-Electron XAS/XES, NRVS
   Peter Pinski           : DLPNO-MP2, DLPNO-MP2 Gradient
   Christoph Reimann      : Effective Core Potentials
   Marius Retegan         : Local ZFS, SOC
   Christoph Riplinger    : Optimizer, TS searches, QM/MM, DLPNO-CCSD(T), (RO)-DLPNO pert. Triples
   Michael Roemelt        : Original ROCIS implementation
   Masaaki Saitow         : Open-shell DLPNO-CCSD energy and density
   Barbara Sandhoefer     : DKH picture change effects
   Kantharuban Sivalingam : CASSCF convergence/infrastructure, NEVPT2 and variants, FIC-MRCI
   Bernardo de Souza      : ESD, SOC TD-DFT
   Georgi Stoychev        : AutoAux, RI-MP2 NMR, DLPNO-MP2 response, X2C
   Van Anh Tran           : RI-MP2 g-tensors
   Willem Van den Heuvel  : Paramagnetic NMR
   Zikuan Wang            : NOTCH, Electric field optimization 
   Frank Wennmohs         : Technical directorship and infrastructure
   Hang Xu                : AUTO-CI-Response properties 


 We gratefully acknowledge several colleagues who have allowed us to
 interface, adapt or use parts of their codes:
   Stefan Grimme, W. Hujo, H. Kruse, P. Pracht,  : VdW corrections, initial TS optimization,
                  C. Bannwarth, S. Ehlert,         DFT functionals, gCP, sTDA/sTD-DF
                  L. Wittmann, M. Mueller
   Ed Valeev, F. Pavosevic, A. Kumar             : LibInt (2-el integral package), F12 methods
   Garnet Chan, S. Sharma, J. Yang, R. Olivares  : DMRG
   Ulf Ekstrom                                   : XCFun DFT Library
   Mihaly Kallay                                 : mrcc  (arbitrary order and MRCC methods)
   Frank Weinhold                                : gennbo (NPA and NBO analysis)
   Simon Mueller                                 : openCOSMO-RS
   Christopher J. Cramer and Donald G. Truhlar   : smd solvation model
   Lars Goerigk                                  : TD-DFT with DH, B97 family of functionals
   V. Asgeirsson, H. Jonsson                     : NEB implementation
   FAccTs GmbH                                   : IRC, NEB, NEB-TS, DLPNO-Multilevel, CI-OPT
                                                   MM, QMMM, 2- and 3-layer-ONIOM, Crystal-QMMM,
                                                   LR-CPCM, SF, NACMEs, symmetry and pop. for TD-DFT,
                                                   nearIR, NL-DFT gradient (VV10), updates on ESD,
                                                   ML-optimized integration grids, MBIS, APM,
                                                   GOAT, DOCKER, SOLVATOR, interface openCOSMO-RS
   S Lehtola, MJT Oliveira, MAL Marques          : LibXC Library
   Liviu Ungur et al                             : ANISO software


 Your calculation uses the libint2 library for the computation of 2-el integrals
 For citations please refer to: http://libint.valeyev.net

 Your ORCA version has been built with support for libXC version: 6.2.2
 For citations please refer to: https://libxc.gitlab.io

 This ORCA versions uses:
   CBLAS   interface :  Fast vector & matrix operations
   LAPACKE interface :  Fast linear algebra routines
   SCALAPACK package :  Parallel linear algebra routines
   Shared memory     :  Shared parallel matrices
   BLAS/LAPACK       :  OpenBLAS 0.3.27  USE64BITINT DYNAMIC_ARCH NO_AFFINITY Zen SINGLE_THREADED
        Core in use  :  Zen
   Copyright (c) 2011-2014, The OpenBLAS Project


Your calculation utilizes the atom-pairwise dispersion correction
with the Becke-Johnson damping scheme (D3BJ)


Warning: RI is on but no J-basis has been assigned. Assigning Def2/J (nothing to worry about!)
================================================================================

----- Orbital basis set information -----
Your calculation utilizes the basis: def2-TZVPPD
   F. Weigend and R. Ahlrichs, Phys. Chem. Chem. Phys. 7, 3297 (2005).
   D. Rappoport and F. Furche, J. Chem. Phys. 133, 134105 (2010)
   D. Rappoport, J. Chem. Phys. 155, 124102 (2021).

----- AuxJ basis set information -----
Your calculation utilizes the auxiliary basis: def2/J
   F. Weigend, Phys. Chem. Chem. Phys. 8, 1057 (2006).

================================================================================
                                        WARNINGS
                       Please study these warnings very carefully!
================================================================================

Using LibXC functional ID 531 : wB97M-V exchange-correlation functional
[ 1]  N. Mardirossian and M. Head-Gordon.,  J. Chem. Phys. 144, 214110 (2016)
Using LibXC functional ID 531 : wB97M-V exchange-correlation functional
[ 1]  N. Mardirossian and M. Head-Gordon.,  J. Chem. Phys. 144, 214110 (2016)

WARNING: B97M-V or wB97M-V functional requested.
  ===> : libXC variant has now been activated.
         Any manually given DFX/HFX/RangeSep scaling parameters are IGNORED!

Your calculation utilizes LibXC
 by S Lehtola, C Steigemann, MJT Oliveira & MAL Marques
Please cite in your paper:
 S Lehtola, C Steigemann, MJT Oliveira & MAL Marques, SoftwareX, 7, (2018), 1.
   


WARNING: your system is open-shell and RHF/RKS was chosen
  ===> : WILL SWITCH to UHF/UKS

INFO   : Checking CIS options ...

WARNING: CIS/ROCIS methods need fully converged wavefunctions
  ===> : Setting SCFConvForced true
         You can overwrite this default with %scf ConvForced false 


================================================================================
                                       INPUT FILE
================================================================================
NAME = orca.inp
|  1> ! Engrad wB97M-D3BJ def2-TZVPPD 
|  2> %pal nprocs 8 end%pal nprocs 16 end 
|  3> %tddft nroots 2 Iroot 1
|  4>  sf true 
|  5> end 
|  6> *xyz 0 3 
|  7> O   0.08703698023762 0.82119148164923 -4.900663452e-05
|  8> C   0.72545925786061 -0.41335718904236 7.386647772e-05
|  9> C   -0.71014753615707 -0.46151098505285 -0.00010047772158
| 10> H   1.26312971663317 -0.66570195551132 0.90947203131602
| 11> H   1.26300139964005 -0.66599183092023 -0.90934859935627
| 12> H   -1.24561678596121 -0.62973397057627 -0.92197354424539
| 13> H   -1.24540305615724 -0.62971940529628 0.92192573016402
| 14> *
| 15> 
| 16>                          ****END OF INPUT****
================================================================================

                     *******************************
                     * Energy+Gradient Calculation *
                     *******************************

---------------------------------
CARTESIAN COORDINATES (ANGSTROEM)
---------------------------------
  O      0.087037    0.821191   -0.000049
  C      0.725459   -0.413357    0.000074
  C     -0.710148   -0.461511   -0.000100
  H      1.263130   -0.665702    0.909472
  H      1.263001   -0.665992   -0.909349
  H     -1.245617   -0.629734   -0.921974
  H     -1.245403   -0.629719    0.921926

----------------------------
CARTESIAN COORDINATES (A.U.)
----------------------------
  NO LB      ZA    FRAG     MASS         X           Y           Z
   0 O     8.0000    0    15.999    0.164476    1.551827   -0.000093
   1 C     6.0000    0    12.011    1.370919   -0.781132    0.000140
   2 C     6.0000    0    12.011   -1.341984   -0.872129   -0.000190
   3 H     1.0000    0     1.008    2.386969   -1.257994    1.718653
   4 H     1.0000    0     1.008    2.386727   -1.258542   -1.718420
   5 H     1.0000    0     1.008   -2.353875   -1.190025   -1.742278
   6 H     1.0000    0     1.008   -2.353471   -1.189997    1.742187

--------------------------------
INTERNAL COORDINATES (ANGSTROEM)
--------------------------------
 O      0   0   0     0.000000000000     0.00000000     0.00000000
 C      1   0   0     1.389853747691     0.00000000     0.00000000
 C      2   1   0     1.436414176168    64.57627579     0.00000000
 H      2   1   3     1.086173294467   115.71024119   248.30559405
 H      2   1   3     1.086197513268   115.71183590   111.66804894
 H      3   2   1     1.079294325532   120.07803003    99.25082726
 H      3   2   1     1.079316854478   120.05047783   260.74781905

---------------------------
INTERNAL COORDINATES (A.U.)
---------------------------
 O      0   0   0     0.000000000000     0.00000000     0.00000000
 C      1   0   0     2.626442949339     0.00000000     0.00000000
 C      2   1   0     2.714429407839    64.57627579     0.00000000
 H      2   1   3     2.052570060521   115.71024119   248.30559405
 H      2   1   3     2.052615827422   115.71183590   111.66804894
 H      3   2   1     2.039570693151   120.07803003    99.25082726
 H      3   2   1     2.039613266688   120.05047783   260.74781905

---------------------
BASIS SET INFORMATION
---------------------
There are 3 groups of distinct atoms

 Group   1 Type O   : 12s7p3d1f contracted to 6s4p3d1f pattern {621111/4111/111/1}
 Group   2 Type C   : 12s6p3d1f contracted to 6s3p3d1f pattern {621111/411/111/1}
 Group   3 Type H   : 5s3p1d contracted to 3s3p1d pattern {311/111/1}

Atom   0O    basis set group =>   1
Atom   1C    basis set group =>   2
Atom   2C    basis set group =>   2
Atom   3H    basis set group =>   3
Atom   4H    basis set group =>   3
Atom   5H    basis set group =>   3
Atom   6H    basis set group =>   3
---------------------------------
AUXILIARY/J BASIS SET INFORMATION
---------------------------------
There are 3 groups of distinct atoms

 Group   1 Type O   : 12s5p4d2f1g contracted to 6s4p3d1f1g pattern {711111/2111/211/2/1}
 Group   2 Type C   : 12s5p4d2f1g contracted to 6s4p3d1f1g pattern {711111/2111/211/2/1}
 Group   3 Type H   : 5s2p1d contracted to 3s1p1d pattern {311/2/1}

Atom   0O    basis set group =>   1
Atom   1C    basis set group =>   2
Atom   2C    basis set group =>   2
Atom   3H    basis set group =>   3
Atom   4H    basis set group =>   3
Atom   5H    basis set group =>   3
Atom   6H    basis set group =>   3
[1739829873.382774] [ohm:3824587:0]        ib_iface.c:1059 UCX  ERROR ibv_create_cq(cqe=256) failed: Connection timed out
[1739829873.382812] [ohm:3824589:0]        ib_iface.c:1059 UCX  ERROR ibv_create_cq(cqe=256) failed: Connection timed out
[1739829873.383790] [ohm:3824591:0]        ib_iface.c:1059 UCX  ERROR ibv_create_cq(cqe=256) failed: Connection timed out
[1739829873.384868] [ohm:3824588:0]        ib_iface.c:1059 UCX  ERROR ibv_create_cq(cqe=256) failed: Connection timed out
[1739829873.384881] [ohm:3824590:0]        ib_iface.c:1059 UCX  ERROR ibv_create_cq(cqe=256) failed: Connection timed out
[1739829873.385122] [ohm:3824586:0]        ib_iface.c:1059 UCX  ERROR ibv_create_cq(cqe=256) failed: Connection timed out
[1739829873.395692] [ohm:3824596:0]        ib_iface.c:1059 UCX  ERROR ibv_create_cq(cqe=256) failed: Connection timed out
[1739829873.406096] [ohm:3824593:0]        ib_iface.c:1059 UCX  ERROR ibv_create_cq(cqe=256) failed: Connection timed out
[1739829873.406440] [ohm:3824592:0]        ib_iface.c:1059 UCX  ERROR ibv_create_cq(cqe=256) failed: Connection timed out
[1739829873.406920] [ohm:3824598:0]        ib_iface.c:1059 UCX  ERROR ibv_create_cq(cqe=256) failed: Connection timed out
[1739829873.408017] [ohm:3824603:0]        ib_iface.c:1059 UCX  ERROR ibv_create_cq(cqe=256) failed: Connection timed out
[1739829873.408330] [ohm:3824608:0]        ib_iface.c:1059 UCX  ERROR ibv_create_cq(cqe=256) failed: Connection timed out
[1739829873.408338] [ohm:3824599:0]        ib_iface.c:1059 UCX  ERROR ibv_create_cq(cqe=256) failed: Connection timed out
[1739829873.409335] [ohm:3824594:0]        ib_iface.c:1059 UCX  ERROR ibv_create_cq(cqe=256) failed: Connection timed out
[1739829873.431389] [ohm:3824612:0]        ib_iface.c:1059 UCX  ERROR ibv_create_cq(cqe=256) failed: Connection timed out
[1739829873.433570] [ohm:3824614:0]        ib_iface.c:1059 UCX  ERROR ibv_create_cq(cqe=256) failed: Connection timed out


           ************************************************************
           *        Program running with 16 parallel MPI-processes    *
           *              working on a common directory               *
           ************************************************************
------------------------------------------------------------------------------
                             ORCA STARTUP CALCULATIONS
                           -- RI-GTO INTEGRALS CHOSEN --
------------------------------------------------------------------------------
------------------------------------------------------------------------------
                   ___                                                        
                  /   \      - P O W E R E D   B Y -                         
                 /     \                                                     
                 |  |  |   _    _      __       _____    __    __             
                 |  |  |  | |  | |    /  \     |  _  \  |  |  /  |          
                  \  \/   | |  | |   /    \    | | | |  |  | /  /          
                 / \  \   | |__| |  /  /\  \   | |_| |  |  |/  /          
                |  |  |   |  __  | /  /__\  \  |    /   |      \           
                |  |  |   | |  | | |   __   |  |    \   |  |\   \          
                \     /   | |  | | |  |  |  |  | |\  \  |  | \   \       
                 \___/    |_|  |_| |__|  |__|  |_| \__\ |__|  \__/        
                                                                              
                      - O R C A' S   B I G   F R I E N D -                    
                                      &                                       
                       - I N T E G R A L  F E E D E R -                       
                                                                              
 v1 FN, 2020, v2 2021, v3 2022-2024                                           
------------------------------------------------------------------------------


----------------------
SHARK INTEGRAL PACKAGE
----------------------

Number of atoms                             ...      7
Number of basis functions                   ...    182
Number of shells                            ...     68
Maximum angular momentum                    ...      3
Integral batch strategy                     ... SHARK/LIBINT Hybrid
RI-J (if used) integral strategy            ... SPLIT-RIJ (Revised 2003 algorithm where possible)
Printlevel                                  ...      1
Contraction scheme used                     ... SEGMENTED contraction
Prescreening option                         ... SCHWARTZ
   Thresh                                   ... 2.500e-11
   Tcut                                     ... 2.500e-12
   Tpresel                                  ... 2.500e-12 
Coulomb Range Separation                    ... NOT USED
Exchange Range Separation                   ... Long Range
   Mu parameter                             ... 3.000e-01
   Scaling (regular/separated)              ... 1.500e-01 8.500e-01
Multipole approximations                    ... NOT USED
Finite Nucleus Model                        ... NOT USED
CABS basis                                  ... NOT available
Auxiliary Coulomb fitting basis             ... AVAILABLE
   # of basis functions in Aux-J            ...    191
   # of shells in Aux-J                     ...     65
   Maximum angular momentum in Aux-J        ...      4
Auxiliary J/K fitting basis                 ... NOT available
Auxiliary Correlation fitting basis         ... NOT available
Auxiliary 'external' fitting basis          ... NOT available

Checking pre-screening integrals            ... done (  0.0 sec) Dimension = 68
Check shell pair data                       ... done (  0.0 sec)
Shell pair information
Shell pair cut-off parameter TPreSel        ...   2.5e-12
Total number of shell pairs                 ...      2346
Shell pairs after pre-screening             ...      2341
Total number of primitive shell pairs       ...      5434
Primitive shell pairs kept                  ...      4919
          la=0 lb=0:    460 shell pairs
          la=1 lb=0:    660 shell pairs
          la=1 lb=1:    253 shell pairs
          la=2 lb=0:    390 shell pairs
          la=2 lb=1:    286 shell pairs
          la=2 lb=2:     91 shell pairs
          la=3 lb=0:     90 shell pairs
          la=3 lb=1:     66 shell pairs
          la=3 lb=2:     39 shell pairs
          la=3 lb=3:      6 shell pairs

Calculating one electron integrals          ... done (  0.0 sec)
Calculating RI/J V-Matrix + Cholesky decomp.... done (  0.0 sec)
Calculating Nuclear repulsion               ... done (  0.0 sec) ENN=     75.160496912307 Eh

Diagonalization of the overlap matrix:
Smallest eigenvalue                        ... 9.289e-06
Time for diagonalization                   ...    0.003 sec
Threshold for overlap eigenvalues          ... 1.000e-07
Number of eigenvalues below threshold      ... 0
Time for construction of square roots      ...    0.001 sec
Total time needed                          ...    0.005 sec

-------------------
DFT GRID GENERATION
-------------------

General Integration Accuracy     IntAcc      ... 4.388
Radial Grid Type                 RadialGrid  ... OptM3 with GC (2021)
Angular Grid (max. ang.)         AngularGrid ... 4 (Lebedev-302)
Angular grid pruning method      GridPruning ... 4 (adaptive)
Weight generation scheme         WeightScheme... mBecke (2022)
Basis function cutoff            BFCut       ... 1.0000e-11
Integration weight cutoff        WCut        ... 1.0000e-14
Partially contracted basis set               ... off
Rotationally invariant grid construction     ... off
Angular grids for H and He will be reduced by one unit
Diffuse basis detected: some atoms will have their outermost
                        angular grid increased by 1.

Total number of grid points                  ...    33067
Total number of batches                      ...      521
Average number of points per batch           ...       63
Average number of grid points per atom       ...     4724

--------------------
COSX GRID GENERATION
--------------------

GRIDX 1
-------
General Integration Accuracy     IntAcc      ... 3.816
Radial Grid Type                 RadialGrid  ... OptM3 with GC (2021)
Angular Grid (max. ang.)         AngularGrid ... 1 (Lebedev-50)
Angular grid pruning method      GridPruning ... 4 (adaptive)
Weight generation scheme         WeightScheme... mBecke (2022)
Basis function cutoff            BFCut       ... 1.0000e-11
Integration weight cutoff        WCut        ... 1.0000e-14
Partially contracted basis set               ... on
Rotationally invariant grid construction     ... off
Angular grids for H and He will be reduced by one unit
Diffuse basis detected: some atoms will have their outermost
                        angular grid increased by 1.

Total number of grid points                  ...     4165
Total number of batches                      ...       37
Average number of points per batch           ...      112
Average number of grid points per atom       ...      595
UseSFitting                                  ... on

GRIDX 2
-------
General Integration Accuracy     IntAcc      ... 4.020
Radial Grid Type                 RadialGrid  ... OptM3 with GC (2021)
Angular Grid (max. ang.)         AngularGrid ... 2 (Lebedev-110)
Angular grid pruning method      GridPruning ... 4 (adaptive)
Weight generation scheme         WeightScheme... mBecke (2022)
Basis function cutoff            BFCut       ... 1.0000e-11
Integration weight cutoff        WCut        ... 1.0000e-14
Partially contracted basis set               ... on
Rotationally invariant grid construction     ... off
Angular grids for H and He will be reduced by one unit
Diffuse basis detected: some atoms will have their outermost
                        angular grid increased by 1.

Total number of grid points                  ...    10260
Total number of batches                      ...       84
Average number of points per batch           ...      122
Average number of grid points per atom       ...     1466
UseSFitting                                  ... on

GRIDX 3
-------
General Integration Accuracy     IntAcc      ... 4.338
Radial Grid Type                 RadialGrid  ... OptM3 with GC (2021)
Angular Grid (max. ang.)         AngularGrid ... 3 (Lebedev-194)
Angular grid pruning method      GridPruning ... 4 (adaptive)
Weight generation scheme         WeightScheme... mBecke (2022)
Basis function cutoff            BFCut       ... 1.0000e-11
Integration weight cutoff        WCut        ... 1.0000e-14
Partially contracted basis set               ... on
Rotationally invariant grid construction     ... off
Angular grids for H and He will be reduced by one unit
Diffuse basis detected: some atoms will have their outermost
                        angular grid increased by 1.

Total number of grid points                  ...    23016
Total number of batches                      ...      182
Average number of points per batch           ...      126
Average number of grid points per atom       ...     3288
UseSFitting                                  ... on
Initializing property integral containers    ... done (  0.0 sec)

SHARK setup successfully completed in   0.3 seconds

Maximum memory used throughout the entire STARTUP-calculation: 13.8 MB
[1739829874.406001] [ohm:3824679:0]        ib_iface.c:1059 UCX  ERROR ibv_create_cq(cqe=256) failed: Connection timed out
[1739829874.406065] [ohm:3824683:0]        ib_iface.c:1059 UCX  ERROR ibv_create_cq(cqe=256) failed: Connection timed out
[1739829874.406429] [ohm:3824681:0]        ib_iface.c:1059 UCX  ERROR ibv_create_cq(cqe=256) failed: Connection timed out
[1739829874.424228] [ohm:3824678:0]        ib_iface.c:1059 UCX  ERROR ibv_create_cq(cqe=256) failed: Connection timed out
[1739829874.424228] [ohm:3824680:0]        ib_iface.c:1059 UCX  ERROR ibv_create_cq(cqe=256) failed: Connection timed out
[1739829874.424523] [ohm:3824682:0]        ib_iface.c:1059 UCX  ERROR ibv_create_cq(cqe=256) failed: Connection timed out
[1739829874.429905] [ohm:3824685:0]        ib_iface.c:1059 UCX  ERROR ibv_create_cq(cqe=256) failed: Connection timed out
[1739829874.429908] [ohm:3824688:0]        ib_iface.c:1059 UCX  ERROR ibv_create_cq(cqe=256) failed: Connection timed out
[1739829874.432030] [ohm:3824684:0]        ib_iface.c:1059 UCX  ERROR ibv_create_cq(cqe=256) failed: Connection timed out
[1739829874.432026] [ohm:3824686:0]        ib_iface.c:1059 UCX  ERROR ibv_create_cq(cqe=256) failed: Connection timed out
[1739829874.439025] [ohm:3824691:0]        ib_iface.c:1059 UCX  ERROR ibv_create_cq(cqe=256) failed: Connection timed out
[1739829874.441113] [ohm:3824699:0]        ib_iface.c:1059 UCX  ERROR ibv_create_cq(cqe=256) failed: Connection timed out
[1739829874.441401] [ohm:3824690:0]        ib_iface.c:1059 UCX  ERROR ibv_create_cq(cqe=256) failed: Connection timed out
[1739829874.446380] [ohm:3824693:0]        ib_iface.c:1059 UCX  ERROR ibv_create_cq(cqe=256) failed: Connection timed out
[1739829874.459233] [ohm:3824703:0]        ib_iface.c:1059 UCX  ERROR ibv_create_cq(cqe=256) failed: Connection timed out
[1739829874.462789] [ohm:3824707:0]        ib_iface.c:1059 UCX  ERROR ibv_create_cq(cqe=256) failed: Connection timed out


           ************************************************************
           *        Program running with 16 parallel MPI-processes    *
           *              working on a common directory               *
           ************************************************************
-------------------------------------------------------------------------------
                                 ORCA GUESS
                   Start orbitals & Density for SCF / CASSCF
-------------------------------------------------------------------------------

------------
SCF SETTINGS
------------
Hamiltonian:
 Density Functional     Method          .... DFT(GTOs)
  Functional kind                       .... Exchange-Correlation
  Functional name                       .... wB97M-V exchange-correlation functional
  Functional family                     .... Hybrid MGGA
  Functional refs                              
    [ 0] N. Mardirossian and M. Head-Gordon.,  J. Chem. Phys. 144, 214110 (2016), doi: 10.1063/1.4952647
  Fraction of HF Exchange (short range) .... 0.1500
  Fraction of HF Exchange (long range)  .... 1.0000
  Range separation parameter mu         .... 0.3000
  Functional external parameters        .... 17
    Parameter  0 _cx00      =  8.500000e-01 : u^00 coefficient for exchange
    Parameter  1 _cx01      =  1.007000e+00 : u^01 coefficient for exchange
    Parameter  2 _cx10      =  2.590000e-01 : u^10 coefficient for exchange
    Parameter  3 _css00     =  4.430000e-01 : u^00 coefficient for same-spin correlation
    Parameter  4 _css04     = -1.437000e+00 : u^04 coefficient for same-spin correlation
    Parameter  5 _css10     = -4.535000e+00 : u^10 coefficient for same-spin correlation
    Parameter  6 _css20     = -3.390000e+00 : u^20 coefficient for same-spin correlation
    Parameter  7 _css43     =  4.278000e+00 : u^43 coefficient for same-spin correlation
    Parameter  8 _cos00     =  1.000000e+00 : u^00 coefficient for opposite-spin correlation
    Parameter  9 _cos10     =  1.358000e+00 : u^10 coefficient for opposite-spin correlation
    Parameter 10 _cos20     =  2.924000e+00 : u^20 coefficient for opposite-spin correlation
    Parameter 11 _cos21     = -8.812000e+00 : u^21 coefficient for opposite-spin correlation
    Parameter 12 _cos60     = -1.390000e+00 : u^60 coefficient for opposite-spin correlation
    Parameter 13 _cos61     =  9.142000e+00 : u^61 coefficient for opposite-spin correlation
    Parameter 14 _alpha     =  1.000000e+00 : fraction of HF exchange
    Parameter 15 _beta      = -8.500000e-01 : fraction of short-range exchange
    Parameter 16 _omega     =  3.000000e-01 : range-separation constant
 Long-range corrected/Screened/Range-Separated Hybrid DFT is turned on
   Amount of maximum screened exact exchange              ....  0.850000
   Range separation parameter mu (erf(mu*r12)/r12)        ....  0.300000
 RI-approximation to the Coulomb term is turned on
   Number of AuxJ basis functions       .... 191
   RIJ-COSX (HFX calculated with COS-X)).... on


General Settings:
 Integral files         IntName         .... orca
 Hartree-Fock type      HFTyp           .... UHF
 Total Charge           Charge          ....    0
 Multiplicity           Mult            ....    3
 Number of Electrons    NEL             ....   24
 Basis Dimension        Dim             ....  182
 Nuclear Repulsion      ENuc            ....     75.1604969123 Eh

Convergence Acceleration:
 AO-DIIS                CNVDIIS         .... on
   Start iteration      DIISMaxIt       ....    12
   Startup error        DIISStart       ....  0.200000
   # of expansion vecs  DIISMaxEq       ....     5
   Bias factor          DIISBfac        ....   1.050
   Max. coefficient     DIISMaxC        ....  10.000
 MO-DIIS                CNVKDIIS        .... off
 Trust-Rad. Augm. Hess. CNVTRAH         .... auto
   Auto Start mean grad. ratio tolernc. ....  1.125000
   Auto Start start iteration           ....    50
   Auto Start num. interpolation iter.  ....    10
   Max. Number of Micro iterations      ....    24
   Max. Number of Macro iterations      .... Maxiter - #DIIS iter
   Number of Davidson start vectors     ....     2
   Converg. threshold    (grad. norm)   ....   1.000e-05
   Grad. Scal. Fac. for Micro threshold ....   0.100
   Minimum threshold for Micro iter.    ....   1.000e-02
   NR start threshold (gradient norm)   ....   1.000e-04
   Initial trust radius                 ....   0.400
   Minimum AH scaling param. (alpha)    ....   1.000
   Maximum AH scaling param. (alpha)    .... 1000.000
   Quad. conv. algorithm                .... NR
   White noise on init. David. guess    .... on
   Maximum white noise                  ....   0.010
   Pseudo random numbers                .... off
   Inactive MOs                         .... canonical
   Orbital update algorithm             .... Taylor
   Preconditioner                       .... Diag
   Full preconditioner red. dimension   ....   250
 SOSCF                  CNVSOSCF        .... on
   Start iteration      SOSCFMaxIt      ....   150
   Startup grad/error   SOSCFStart      ....  0.003300
   Hessian update       SOSCFHessUp     .... L-BFGS
 Level Shifting         CNVShift        .... on
   Level shift para.    LevelShift      ....    0.2500
   Turn off err/grad.   ShiftErr        ....    0.0010
 Zerner damping         CNVZerner       .... off
 Static damping         CNVDamp         .... on
   Fraction old density DampFac         ....    0.7000
   Max. Damping (<1)    DampMax         ....    0.9800
   Min. Damping (>=0)   DampMin         ....    0.0000
   Turn off err/grad.   DampErr         ....    0.1000

SCF Procedure:
 Maximum # iterations   MaxIter         ....   125
 SCF integral mode      SCFMode         .... Direct
   Integral package                     .... SHARK and LIBINT hybrid scheme
 Reset frequency        DirectResetFreq ....    20
 Integral Threshold     Thresh          ....  2.500e-11 Eh
 Primitive CutOff       TCut            ....  2.500e-12 Eh

Convergence Tolerance:
 Convergence Check Mode ConvCheckMode   .... Total+1el-Energy
 Convergence forced     ConvForced      .... 1
 Energy Change          TolE            ....  1.000e-08 Eh
 1-El. energy change                    ....  1.000e-05 Eh
 Orbital Gradient       TolG            ....  1.000e-05
 Orbital Rotation angle TolX            ....  1.000e-05
 DIIS Error             TolErr          ....  5.000e-07

------------------------------
INITIAL GUESS: MODEL POTENTIAL
------------------------------
Loading Hartree-Fock densities                     ... done
Calculating cut-offs                               ... done
Initializing the effective Hamiltonian             ... done
Setting up the integral package (SHARK)            ... done
Starting the Coulomb interaction                   ... done (   0.0 sec)
Making the grid                                    ... done (   0.0 sec)
Mapping shells                                     ... done
Starting the XC term evaluation                    ... done (   0.0 sec)
  promolecular density results
     # of electrons  =     23.997139275
     EX              =    -19.543335259
     EC              =     -0.782242646
     EX+EC           =    -20.325577905
Transforming the Hamiltonian                       ... done (   0.0 sec)
Diagonalizing the Hamiltonian                      ... done (   0.0 sec)
Back transforming the eigenvectors                 ... done (   0.0 sec)
Now organizing SCF variables                       ... done
                      ------------------
                      INITIAL GUESS DONE (   0.1 sec)
                      ------------------
             **** ENERGY FILE WAS UPDATED (orca.en.tmp) ****
Finished Guess after   0.5 sec
Maximum memory used throughout the entire GUESS-calculation: 9.7 MB
[1739829875.208329] [ohm:3824762:0]        ib_iface.c:1059 UCX  ERROR ibv_create_cq(cqe=256) failed: Connection timed out
[1739829875.208330] [ohm:3824764:0]        ib_iface.c:1059 UCX  ERROR ibv_create_cq(cqe=256) failed: Connection timed out
[1739829875.216097] [ohm:3824765:0]        ib_iface.c:1059 UCX  ERROR ibv_create_cq(cqe=256) failed: Connection timed out
[1739829875.216235] [ohm:3824763:0]        ib_iface.c:1059 UCX  ERROR ibv_create_cq(cqe=256) failed: Connection timed out
[1739829875.217719] [ohm:3824766:0]        ib_iface.c:1059 UCX  ERROR ibv_create_cq(cqe=256) failed: Connection timed out
[1739829875.221368] [ohm:3824783:0]        ib_iface.c:1059 UCX  ERROR ibv_create_cq(cqe=256) failed: Connection timed out
[1739829875.221391] [ohm:3824774:0]        ib_iface.c:1059 UCX  ERROR ibv_create_cq(cqe=256) failed: Connection timed out
[1739829875.221618] [ohm:3824768:0]        ib_iface.c:1059 UCX  ERROR ibv_create_cq(cqe=256) failed: Connection timed out
[1739829875.222743] [ohm:3824771:0]        ib_iface.c:1059 UCX  ERROR ibv_create_cq(cqe=256) failed: Connection timed out
[1739829875.224086] [ohm:3824761:0]        ib_iface.c:1059 UCX  ERROR ibv_create_cq(cqe=256) failed: Connection timed out
[1739829875.224449] [ohm:3824767:0]        ib_iface.c:1059 UCX  ERROR ibv_create_cq(cqe=256) failed: Connection timed out
[1739829875.225262] [ohm:3824773:0]        ib_iface.c:1059 UCX  ERROR ibv_create_cq(cqe=256) failed: Connection timed out
[1739829875.225491] [ohm:3824769:0]        ib_iface.c:1059 UCX  ERROR ibv_create_cq(cqe=256) failed: Connection timed out
[1739829875.237772] [ohm:3824790:0]        ib_iface.c:1059 UCX  ERROR ibv_create_cq(cqe=256) failed: Connection timed out
[1739829875.238086] [ohm:3824778:0]        ib_iface.c:1059 UCX  ERROR ibv_create_cq(cqe=256) failed: Connection timed out
[1739829875.238327] [ohm:3824787:0]        ib_iface.c:1059 UCX  ERROR ibv_create_cq(cqe=256) failed: Connection timed out


           ************************************************************
           *        Program running with 16 parallel MPI-processes    *
           *              working on a common directory               *
           ************************************************************

-------------------------------------------------------------------------------------------
                                      ORCA LEAN-SCF
                              memory conserving SCF solver
-------------------------------------------------------------------------------------------

----------------------------------------D-I-I-S--------------------------------------------
Iteration    Energy (Eh)           Delta-E    RMSDP     MaxDP     DIISErr   Damp  Time(sec)
-------------------------------------------------------------------------------------------
               ***  Starting incremental Fock matrix formation  ***
    1    -153.5401221561800753     0.00e+00  1.59e-03  1.50e-01  1.01e-01  0.700   0.4
    2    -153.5750394642803940    -3.49e-02  2.08e-03  2.43e-01  6.00e-02  0.700   0.3
                               ***Turning on AO-DIIS***
    3    -153.5935631656051896    -1.85e-02  1.82e-03  2.29e-01  3.05e-02  0.700   0.3
    4    -153.6048380287220994    -1.13e-02  5.24e-03  6.81e-01  2.05e-02  0.000   0.3
    5    -153.6306844579175959    -2.58e-02  1.75e-03  2.35e-01  8.22e-03  0.000   0.3
    6    -153.6314218198291428    -7.37e-04  1.63e-03  2.12e-01  5.88e-03  0.000   0.3
                              *** Initializing SOSCF ***
---------------------------------------S-O-S-C-F--------------------------------------
Iteration    Energy (Eh)           Delta-E    RMSDP     MaxDP     MaxGrad    Time(sec)
--------------------------------------------------------------------------------------
    7    -153.6319999927555955    -5.78e-04  1.09e-03  1.28e-01  3.15e-03     0.3
               *** Restarting incremental Fock matrix formation ***
    8    -153.6323610158271435    -3.61e-04  8.31e-04  6.54e-02  3.21e-03     0.4
    9    -153.6326140287234239    -2.53e-04  3.17e-03  2.13e-01  2.31e-03     0.3
   10    -153.6329633888805688    -3.49e-04  4.91e-04  2.94e-02  1.43e-03     0.4
   11    -153.6330194783841421    -5.61e-05  1.60e-04  1.12e-02  1.28e-03     0.4
   12    -153.6330293439660863    -9.87e-06  1.68e-04  1.55e-02  4.18e-04     0.3
   13    -153.6330330031610174    -3.66e-06  1.86e-04  1.26e-02  1.41e-04     0.4
   14    -153.6330341202840941    -1.12e-06  9.77e-05  5.90e-03  1.10e-04     0.3
   15    -153.6330344728737032    -3.53e-07  1.69e-04  1.23e-02  7.43e-05     0.3
   16    -153.6330347891598080    -3.16e-07  8.92e-05  7.68e-03  5.78e-05     0.3
   17    -153.6330348903355798    -1.01e-07  5.45e-05  5.25e-03  5.05e-05     0.3
   18    -153.6330349347146580    -4.44e-08  1.12e-05  7.23e-04  1.71e-05     0.3
   19    -153.6330349424648034    -7.75e-09  5.25e-06  3.67e-04  5.92e-06     0.3
                 **** Energy Check signals convergence ****

               *****************************************************
               *                     SUCCESS                       *
               *           SCF CONVERGED AFTER  19 CYCLES          *
               *****************************************************

Recomputing exchange energy using gridx3       ... done (    0.442 sec)
Old exchange energy                            :     -6.175227311 Eh
New exchange energy                            :     -6.175219881 Eh
Exchange energy change after final integration :      0.000007430 Eh
Total energy after final integration           :   -153.633027512 Eh
             **** ENERGY FILE WAS UPDATED (orca.en.tmp) ****

----------------
TOTAL SCF ENERGY
----------------

Total Energy       :       -153.63302751223051 Eh           -4180.56721 eV

Components:
Nuclear Repulsion  :         75.16049691230732 Eh            2045.22110 eV
Electronic Energy  :       -228.79353185477214 Eh           -6225.78851 eV
One Electron Energy:       -355.61991309639734 Eh           -9676.90980 eV
Two Electron Energy:        126.82638124162521 Eh            3451.12129 eV

Virial components:
Potential Energy   :       -307.33279868516740 Eh           -8362.95062 eV
Kinetic Energy     :        153.69977117293689 Eh            4182.38340 eV
Virial Ratio       :          1.99956575302489

DFT components:
N(Alpha)           :       12.999512627645 electrons
N(Beta)            :       11.000002673510 electrons
N(Total)           :       23.999515301155 electrons
E(XC)              :      -14.726808031886 Eh       

---------------
SCF CONVERGENCE
---------------

  Last Energy change         ...    7.7501e-09  Tolerance :   1.0000e-08
  Last MAX-Density change    ...    3.6700e-04  Tolerance :   1.0000e-07
  Last RMS-Density change    ...    5.2456e-06  Tolerance :   5.0000e-09
  Last DIIS Error            ...    3.1468e-03  Tolerance :   5.0000e-07
  Last Orbital Gradient      ...    5.9204e-06  Tolerance :   1.0000e-05
  Last Orbital Rotation      ...    3.4124e-05  Tolerance :   1.0000e-05


----------------------
UHF SPIN CONTAMINATION
----------------------

Warning: in a DFT calculation there is little theoretical justification to 
         calculate <S**2> as in Hartree-Fock theory. We will do it anyways
         but you should keep in mind that the values have only limited relevance

Expectation value of <S**2>     :     2.005525
Ideal value S*(S+1) for S=1.0   :     2.000000
Deviation                       :     0.005525

----------------
ORBITAL ENERGIES
----------------
                 SPIN UP ORBITALS
  NO   OCC          E(Eh)            E(eV) 
   0   1.0000     -19.481773      -530.1260 
   1   1.0000     -10.429543      -283.8023 
   2   1.0000     -10.380954      -282.4801 
   3   1.0000      -1.307439       -35.5772 
   4   1.0000      -0.868997       -23.6466 
   5   1.0000      -0.789133       -21.4734 
   6   1.0000      -0.696538       -18.9538 
   7   1.0000      -0.658877       -17.9290 
   8   1.0000      -0.581490       -15.8231 
   9   1.0000      -0.514934       -14.0121 
  10   1.0000      -0.505921       -13.7668 
  11   1.0000      -0.478408       -13.0181 
  12   1.0000      -0.136560        -3.7160 
  13   0.0000       0.035257         0.9594 
  14   0.0000       0.059362         1.6153 
  15   0.0000       0.069492         1.8910 
  16   0.0000       0.086849         2.3633 
  17   0.0000       0.107390         2.9222 
  18   0.0000       0.128421         3.4945 
  19   0.0000       0.135371         3.6836 
  20   0.0000       0.141994         3.8639 
  21   0.0000       0.154424         4.2021 
  22   0.0000       0.194347         5.2885 
  23   0.0000       0.197854         5.3839 

                 SPIN DOWN ORBITALS
  NO   OCC          E(Eh)            E(eV) 
   0   1.0000     -19.449266      -529.2414 
   1   1.0000     -10.429521      -283.8017 
   2   1.0000     -10.373870      -282.2874 
   3   1.0000      -1.241485       -33.7825 
   4   1.0000      -0.836040       -22.7498 
   5   1.0000      -0.771249       -20.9867 
   6   1.0000      -0.639544       -17.4029 
   7   1.0000      -0.627718       -17.0811 
   8   1.0000      -0.543444       -14.7879 
   9   1.0000      -0.491746       -13.3811 
  10   1.0000      -0.451609       -12.2889 
  11   0.0000      -0.126114        -3.4317 
  12   0.0000       0.032895         0.8951 
  13   0.0000       0.056360         1.5336 
  14   0.0000       0.064209         1.7472 
  15   0.0000       0.067116         1.8263 
  16   0.0000       0.107590         2.9277 
  17   0.0000       0.113902         3.0994 
  18   0.0000       0.126009         3.4289 
  19   0.0000       0.146587         3.9888 
  20   0.0000       0.152355         4.1458 
  21   0.0000       0.161998         4.4082 
*Only the first 10 virtual orbitals were printed.

                    ********************************
                    * MULLIKEN POPULATION ANALYSIS *
                    ********************************

--------------------------------------------
MULLIKEN ATOMIC CHARGES AND SPIN POPULATIONS
--------------------------------------------
   0 O :   -0.299240    1.305118
   1 C :    0.139302   -0.171932
   2 C :   -0.454150    0.504053
   3 H :    0.161395    0.069611
   4 H :    0.161398    0.069640
   5 H :    0.145653    0.111741
   6 H :    0.145641    0.111769
Sum of atomic charges         :    0.0000000
Sum of atomic spin populations:    2.0000000

-----------------------------------------------------
MULLIKEN REDUCED ORBITAL CHARGES AND SPIN POPULATIONS
-----------------------------------------------------
CHARGE
  0 O s       :     4.096866  s :     4.096866
      pz      :     1.083124  p :     4.155332
      px      :     1.564177
      py      :     1.508032
      dz2     :     0.005842  d :     0.045268
      dxz     :     0.000149
      dyz     :     0.009369
      dx2y2   :     0.013162
      dxy     :     0.016747
      f0      :     0.000186  f :     0.001773
      f+1     :     0.000080
      f-1     :     0.000285
      f+2     :     0.000086
      f-2     :     0.000183
      f+3     :     0.000420
      f-3     :     0.000532

  1 C s       :     3.249905  s :     3.249905
      pz      :     1.090699  p :     2.524091
      px      :     0.916097
      py      :     0.517295
      dz2     :     0.027181  d :     0.075183
      dxz     :    -0.007084
      dyz     :     0.011573
      dx2y2   :     0.028807
      dxy     :     0.014706
      f0      :     0.001199  f :     0.011518
      f+1     :     0.000855
      f-1     :     0.000839
      f+2     :     0.000937
      f-2     :     0.001215
      f+3     :     0.003319
      f-3     :     0.003155

  2 C s       :     3.503600  s :     3.503600
      pz      :     1.175711  p :     2.848119
      px      :     0.827616
      py      :     0.844792
      dz2     :     0.021591  d :     0.092989
      dxz     :    -0.024056
      dyz     :     0.001628
      dx2y2   :     0.054883
      dxy     :     0.038944
      f0      :     0.000887  f :     0.009442
      f+1     :     0.000756
      f-1     :     0.000987
      f+2     :     0.000834
      f-2     :     0.000865
      f+3     :     0.003014
      f-3     :     0.002098

  3 H s       :     0.775136  s :     0.775136
      pz      :     0.015685  p :     0.060914
      px      :     0.016919
      py      :     0.028310
      dz2     :     0.000765  d :     0.002555
      dxz     :     0.000626
      dyz     :     0.000517
      dx2y2   :     0.000327
      dxy     :     0.000320

  4 H s       :     0.775132  s :     0.775132
      pz      :     0.015673  p :     0.060915
      px      :     0.016921
      py      :     0.028321
      dz2     :     0.000765  d :     0.002555
      dxz     :     0.000626
      dyz     :     0.000517
      dx2y2   :     0.000327
      dxy     :     0.000320

  5 H s       :     0.718764  s :     0.718764
      pz      :     0.019784  p :     0.133108
      px      :     0.012075
      py      :     0.101249
      dz2     :     0.000702  d :     0.002475
      dxz     :     0.000535
      dyz     :     0.000675
      dx2y2   :     0.000261
      dxy     :     0.000303

  6 H s       :     0.718763  s :     0.718763
      pz      :     0.019773  p :     0.133120
      px      :     0.012084
      py      :     0.101264
      dz2     :     0.000702  d :     0.002476
      dxz     :     0.000535
      dyz     :     0.000675
      dx2y2   :     0.000260
      dxy     :     0.000302


SPIN
  0 O s       :     0.177722  s :     0.177722
      pz      :     0.852016  p :     1.119186
      px      :     0.067689
      py      :     0.199481
      dz2     :     0.001257  d :     0.008399
      dxz     :    -0.000630
      dyz     :    -0.005500
      dx2y2   :     0.007600
      dxy     :     0.005672
      f0      :    -0.000069  f :    -0.000189
      f+1     :    -0.000061
      f-1     :    -0.000113
      f+2     :    -0.000002
      f-2     :     0.000005
      f+3     :     0.000035
      f-3     :     0.000016

  1 C s       :    -0.012951  s :    -0.012951
      pz      :     0.003455  p :    -0.187316
      px      :    -0.003434
      py      :    -0.187337
      dz2     :     0.029025  d :     0.025488
      dxz     :    -0.000333
      dyz     :     0.010733
      dx2y2   :     0.000936
      dxy     :    -0.014873
      f0      :     0.000505  f :     0.002847
      f+1     :     0.000010
      f-1     :     0.000013
      f+2     :     0.000594
      f-2     :     0.000504
      f+3     :     0.001280
      f-3     :    -0.000058

  2 C s       :     0.091772  s :     0.091772
      pz      :     0.034389  p :     0.353522
      px      :     0.036594
      py      :     0.282539
      dz2     :     0.012774  d :     0.056706
      dxz     :    -0.001215
      dyz     :     0.000824
      dx2y2   :     0.030346
      dxy     :     0.013977
      f0      :     0.000216  f :     0.002053
      f+1     :    -0.000076
      f-1     :     0.000546
      f+2     :     0.000252
      f-2     :     0.000352
      f+3     :     0.000801
      f-3     :    -0.000037

  3 H s       :     0.046676  s :     0.046676
      pz      :     0.000619  p :     0.022971
      px      :     0.001436
      py      :     0.020915
      dz2     :    -0.000007  d :    -0.000036
      dxz     :     0.000007
      dyz     :    -0.000039
      dx2y2   :     0.000010
      dxy     :    -0.000007

  4 H s       :     0.046699  s :     0.046699
      pz      :     0.000616  p :     0.022976
      px      :     0.001438
      py      :     0.020922
      dz2     :    -0.000007  d :    -0.000035
      dxz     :     0.000007
      dyz     :    -0.000039
      dx2y2   :     0.000010
      dxy     :    -0.000007

  5 H s       :     0.014770  s :     0.014770
      pz      :     0.003849  p :     0.096582
      px      :     0.000464
      py      :     0.092269
      dz2     :     0.000009  d :     0.000389
      dxz     :     0.000004
      dyz     :     0.000290
      dx2y2   :     0.000010
      dxy     :     0.000077

  6 H s       :     0.014787  s :     0.014787
      pz      :     0.003847  p :     0.096592
      px      :     0.000467
      py      :     0.092278
      dz2     :     0.000009  d :     0.000389
      dxz     :     0.000004
      dyz     :     0.000290
      dx2y2   :     0.000010
      dxy     :     0.000077



                     *******************************
                     * LOEWDIN POPULATION ANALYSIS *
                     *******************************

-------------------------------------------
LOEWDIN ATOMIC CHARGES AND SPIN POPULATIONS
-------------------------------------------
   0 O :    0.112546    1.104573
   1 C :   -0.019116    0.130348
   2 C :   -0.005425    0.407550
   3 H :    0.018599    0.050809
   4 H :    0.018607    0.050828
   5 H :   -0.062612    0.127950
   6 H :   -0.062599    0.127942

----------------------------------------------------
LOEWDIN REDUCED ORBITAL CHARGES AND SPIN POPULATIONS
----------------------------------------------------
CHARGE
  0 O s       :     3.441396  s :     3.441396
      pz      :     1.004751  p :     4.015465
      px      :     1.462174
      py      :     1.548540
      dz2     :     0.036884  d :     0.423997
      dxz     :     0.051086
      dyz     :     0.081680
      dx2y2   :     0.117459
      dxy     :     0.136888
      f0      :     0.000673  f :     0.006596
      f+1     :     0.000236
      f-1     :     0.001043
      f+2     :     0.000203
      f-2     :     0.000897
      f+3     :     0.001137
      f-3     :     0.002406

  1 C s       :     2.648836  s :     2.648836
      pz      :     0.913059  p :     2.553652
      px      :     0.928855
      py      :     0.711738
      dz2     :     0.098369  d :     0.729954
      dxz     :     0.202388
      dyz     :     0.060127
      dx2y2   :     0.200682
      dxy     :     0.168388
      f0      :     0.007844  f :     0.086673
      f+1     :     0.007819
      f-1     :     0.009381
      f+2     :     0.007078
      f-2     :     0.006099
      f+3     :     0.023280
      f-3     :     0.025172

  2 C s       :     2.669658  s :     2.669658
      pz      :     0.924990  p :     2.574559
      px      :     0.877130
      py      :     0.772439
      dz2     :     0.106769  d :     0.689976
      dxz     :     0.184896
      dyz     :     0.035757
      dx2y2   :     0.196012
      dxy     :     0.166543
      f0      :     0.005981  f :     0.071232
      f+1     :     0.007648
      f-1     :     0.008721
      f+2     :     0.005499
      f-2     :     0.003496
      f+3     :     0.023175
      f-3     :     0.016712

  3 H s       :     0.682336  s :     0.682336
      pz      :     0.114561  p :     0.269095
      px      :     0.081355
      py      :     0.073178
      dz2     :     0.009324  d :     0.029971
      dxz     :     0.008663
      dyz     :     0.005924
      dx2y2   :     0.003415
      dxy     :     0.002645

  4 H s       :     0.682319  s :     0.682319
      pz      :     0.114555  p :     0.269105
      px      :     0.081360
      py      :     0.073189
      dz2     :     0.009322  d :     0.029970
      dxz     :     0.008662
      dyz     :     0.005926
      dx2y2   :     0.003416
      dxy     :     0.002644

  5 H s       :     0.687648  s :     0.687648
      pz      :     0.115320  p :     0.344167
      px      :     0.076996
      py      :     0.151852
      dz2     :     0.009156  d :     0.030796
      dxz     :     0.008667
      dyz     :     0.007497
      dx2y2   :     0.002846
      dxy     :     0.002630

  6 H s       :     0.687639  s :     0.687639
      pz      :     0.115328  p :     0.344165
      px      :     0.076998
      py      :     0.151839
      dz2     :     0.009158  d :     0.030795
      dxz     :     0.008667
      dyz     :     0.007498
      dx2y2   :     0.002844
      dxy     :     0.002628


SPIN
  0 O s       :     0.094309  s :     0.094309
      pz      :     0.754413  p :     0.974914
      px      :     0.068103
      py      :     0.152398
      dz2     :     0.006405  d :     0.034686
      dxz     :    -0.001478
      dyz     :     0.013793
      dx2y2   :     0.001133
      dxy     :     0.014834
      f0      :     0.000154  f :     0.000664
      f+1     :     0.000061
      f-1     :     0.000242
      f+2     :     0.000026
      f-2     :    -0.000000
      f+3     :     0.000174
      f-3     :     0.000008

  1 C s       :     0.001530  s :     0.001530
      pz      :     0.011971  p :     0.019995
      px      :     0.008273
      py      :    -0.000250
      dz2     :     0.007570  d :     0.089112
      dxz     :     0.012744
      dyz     :     0.055773
      dx2y2   :     0.003951
      dxy     :     0.009074
      f0      :     0.003202  f :     0.019710
      f+1     :     0.000423
      f-1     :     0.000652
      f+2     :     0.004536
      f-2     :     0.002808
      f+3     :     0.008242
      f-3     :    -0.000153

  2 C s       :     0.020027  s :     0.020027
      pz      :     0.020612  p :     0.250298
      px      :     0.010516
      py      :     0.219170
      dz2     :     0.012536  d :     0.121422
      dxz     :     0.005455
      dyz     :     0.031450
      dx2y2   :     0.035178
      dxy     :     0.036803
      f0      :     0.001403  f :     0.015802
      f+1     :     0.000372
      f-1     :     0.001900
      f+2     :     0.002093
      f-2     :     0.001716
      f+3     :     0.008497
      f-3     :    -0.000178

  3 H s       :     0.025355  s :     0.025355
      pz      :     0.000951  p :     0.025752
      px      :     0.000149
      py      :     0.024652
      dz2     :    -0.000032  d :    -0.000299
      dxz     :     0.000057
      dyz     :    -0.000288
      dx2y2   :     0.000095
      dxy     :    -0.000131

  4 H s       :     0.025369  s :     0.025369
      pz      :     0.000951  p :     0.025758
      px      :     0.000150
      py      :     0.024657
      dz2     :    -0.000032  d :    -0.000299
      dxz     :     0.000057
      dyz     :    -0.000288
      dx2y2   :     0.000095
      dxy     :    -0.000131

  5 H s       :     0.011630  s :     0.011630
      pz      :     0.002121  p :     0.112206
      px      :     0.000957
      py      :     0.109128
      dz2     :     0.000202  d :     0.004115
      dxz     :     0.000257
      dyz     :     0.003013
      dx2y2   :     0.000046
      dxy     :     0.000597

  6 H s       :     0.011636  s :     0.011636
      pz      :     0.002121  p :     0.112192
      px      :     0.000957
      py      :     0.109115
      dz2     :     0.000202  d :     0.004114
      dxz     :     0.000257
      dyz     :     0.003013
      dx2y2   :     0.000046
      dxy     :     0.000596



                      *****************************
                      * MAYER POPULATION ANALYSIS *
                      *****************************

  NA   - Mulliken gross atomic population
  ZA   - Total nuclear charge
  QA   - Mulliken gross atomic charge
  VA   - Mayer's total valence
  BVA  - Mayer's bonded valence
  FA   - Mayer's free valence

  ATOM       NA         ZA         QA         VA         BVA        FA
  0 O      8.2992     8.0000    -0.2992     2.5671     1.6419     0.9252
  1 C      5.8607     6.0000     0.1393     3.0873     3.0714     0.0160
  2 C      6.4541     6.0000    -0.4541     3.5299     3.3781     0.1518
  3 H      0.8386     1.0000     0.1614     1.0762     1.0740     0.0021
  4 H      0.8386     1.0000     0.1614     1.0761     1.0740     0.0021
  5 H      0.8543     1.0000     0.1457     1.1770     1.1650     0.0120
  6 H      0.8544     1.0000     0.1456     1.1770     1.1650     0.0120

  Mayer bond orders larger than 0.100000
B(  0-O ,  1-C ) :   0.6840 B(  0-O ,  2-C ) :   0.6557 B(  0-O ,  5-H ) :   0.1028 
B(  0-O ,  6-H ) :   0.1028 B(  1-C ,  2-C ) :   0.5903 B(  1-C ,  3-H ) :   0.9849 
B(  1-C ,  4-H ) :   0.9849 B(  2-C ,  5-H ) :   1.0759 B(  2-C ,  6-H ) :   1.0759 


-------
TIMINGS
-------

Total SCF time: 0 days 0 hours 0 min 7 sec 

Total time                  ....       7.253 sec
Sum of individual times     ....       7.236 sec  ( 99.8%)

SCF preparation             ....       0.419 sec  (  5.8%)
Fock matrix formation       ....       6.143 sec  ( 84.7%)
  Startup                   ....       0.037 sec  (  0.6% of F)
  Split-RI-J                ....       0.259 sec  (  4.2% of F)
  Chain of spheres X        ....       3.990 sec  ( 65.0% of F)
  XC integration            ....       1.727 sec  ( 28.1% of F)
    XC Preparation          ....       0.000 sec  (  0.0% of XC)
    Basis function eval.    ....       0.112 sec  (  6.5% of XC)
    Density eval.           ....       0.496 sec  ( 28.7% of XC)
    XC-Functional eval.     ....       0.049 sec  (  2.8% of XC)
    XC-Potential eval.      ....       0.787 sec  ( 45.6% of XC)
Diagonalization             ....       0.000 sec  (  0.0%)
Density matrix formation    ....       0.089 sec  (  1.2%)
Total Energy calculation    ....       0.062 sec  (  0.9%)
Population analysis         ....       0.020 sec  (  0.3%)
Orbital Transformation      ....       0.044 sec  (  0.6%)
Orbital Orthonormalization  ....       0.000 sec  (  0.0%)
DIIS solution               ....       0.257 sec  (  3.5%)
SOSCF solution              ....       0.198 sec  (  2.7%)
Finished LeanSCF after   7.3 sec

Maximum memory used throughout the entire LEANSCF-calculation: 14.8 MB
[1739829882.789168] [ohm:3824905:0]        ib_iface.c:1059 UCX  ERROR ibv_create_cq(cqe=256) failed: Connection timed out
[1739829882.789245] [ohm:3824889:0]        ib_iface.c:1059 UCX  ERROR ibv_create_cq(cqe=256) failed: Connection timed out
[1739829882.789228] [ohm:3824891:0]        ib_iface.c:1059 UCX  ERROR ibv_create_cq(cqe=256) failed: Connection timed out
[1739829882.789637] [ohm:3824893:0]        ib_iface.c:1059 UCX  ERROR ibv_create_cq(cqe=256) failed: Connection timed out
[1739829882.802735] [ohm:3824887:0]        ib_iface.c:1059 UCX  ERROR ibv_create_cq(cqe=256) failed: Connection timed out
[1739829882.802727] [ohm:3824897:0]        ib_iface.c:1059 UCX  ERROR ibv_create_cq(cqe=256) failed: Connection timed out
[1739829882.802934] [ohm:3824912:0]        ib_iface.c:1059 UCX  ERROR ibv_create_cq(cqe=256) failed: Connection timed out
[1739829882.802944] [ohm:3824885:0]        ib_iface.c:1059 UCX  ERROR ibv_create_cq(cqe=256) failed: Connection timed out
[1739829882.803193] [ohm:3824886:0]        ib_iface.c:1059 UCX  ERROR ibv_create_cq(cqe=256) failed: Connection timed out
[1739829882.803211] [ohm:3824890:0]        ib_iface.c:1059 UCX  ERROR ibv_create_cq(cqe=256) failed: Connection timed out
[1739829882.803364] [ohm:3824895:0]        ib_iface.c:1059 UCX  ERROR ibv_create_cq(cqe=256) failed: Connection timed out
[1739829882.803364] [ohm:3824909:0]        ib_iface.c:1059 UCX  ERROR ibv_create_cq(cqe=256) failed: Connection timed out
[1739829882.803364] [ohm:3824888:0]        ib_iface.c:1059 UCX  ERROR ibv_create_cq(cqe=256) failed: Connection timed out
[1739829882.803720] [ohm:3824884:0]        ib_iface.c:1059 UCX  ERROR ibv_create_cq(cqe=256) failed: Connection timed out
[1739829882.803758] [ohm:3824892:0]        ib_iface.c:1059 UCX  ERROR ibv_create_cq(cqe=256) failed: Connection timed out
[1739829882.803871] [ohm:3824899:0]        ib_iface.c:1059 UCX  ERROR ibv_create_cq(cqe=256) failed: Connection timed out


           ************************************************************
           *        Program running with 16 parallel MPI-processes    *
           *              working on a common directory               *
           ************************************************************

------------------------------------------------------------------------------
                         ORCA PROPERTY INTEGRAL CALCULATIONS
------------------------------------------------------------------------------

GBWName                                   ... orca.gbw
Number of atoms                           ...      7
Number of basis functions                 ...    182
Max core memory                           ...   1024 MB

Dipole integrals                          ... YES
Quadrupole integrals                      ...  NO
Linear momentum integrals                 ... YES
Angular momentum integrals                ... YES
Higher moments length integrals           ...  NO
Higher moments velocity integrals         ...  NO
Kinetic energy integrals                  ...  NO
GIAO right hand sides                     ...  NO
GIAO dipole derivative integrals          ...  NO
SOC integrals                             ...  NO
EPR diamagnetic integrals (GIAO)          ...  NO
EPR gauge integrals                       ...  NO
Field gradient integrals                  ...  NO (   0 nuclei)
Spin-dipole/Fermi contact integrals       ...  NO (   0 nuclei)
Contact density integrals                 ...  NO (   0 nuclei)
Nucleus-orbit integrals                   ...  NO (   0 nuclei)
Geometric perturbations                   ...  NO (   7 nuclei)

Choice of electric origin   ... Center of mass
Position of electric origin ... (  0.0691,  0.0008, -0.0000) 
Choice of magnetic origin   ... GIAO
Position of magnetic origin ... (  0.0000,  0.0000,  0.0000) 

Calculating integrals                     ... Electric Dipole (Length)     done (  0.0 sec)
Calculating integrals                     ... Linear Momentum              done (  0.0 sec)
Calculating integrals                     ... Angular Momentum  (ElOri)    done (  0.0 sec)

Property integrals calculated in   0.0 sec

Maximum memory used throughout the entire PROPINT-calculation: 10.4 MB
[1739829883.468298] [ohm:3824974:0]        ib_iface.c:1059 UCX  ERROR ibv_create_cq(cqe=256) failed: Connection timed out
[1739829883.468293] [ohm:3824968:0]        ib_iface.c:1059 UCX  ERROR ibv_create_cq(cqe=256) failed: Connection timed out
[1739829883.468416] [ohm:3824972:0]        ib_iface.c:1059 UCX  ERROR ibv_create_cq(cqe=256) failed: Connection timed out
[1739829883.468433] [ohm:3824970:0]        ib_iface.c:1059 UCX  ERROR ibv_create_cq(cqe=256) failed: Connection timed out
[1739829883.472935] [ohm:3824971:0]        ib_iface.c:1059 UCX  ERROR ibv_create_cq(cqe=256) failed: Connection timed out
[1739829883.473124] [ohm:3824967:0]        ib_iface.c:1059 UCX  ERROR ibv_create_cq(cqe=256) failed: Connection timed out
[1739829883.473120] [ohm:3824969:0]        ib_iface.c:1059 UCX  ERROR ibv_create_cq(cqe=256) failed: Connection timed out
[1739829883.481850] [ohm:3824977:0]        ib_iface.c:1059 UCX  ERROR ibv_create_cq(cqe=256) failed: Connection timed out
[1739829883.487893] [ohm:3824973:0]        ib_iface.c:1059 UCX  ERROR ibv_create_cq(cqe=256) failed: Connection timed out
[1739829883.487962] [ohm:3824975:0]        ib_iface.c:1059 UCX  ERROR ibv_create_cq(cqe=256) failed: Connection timed out
[1739829883.494032] [ohm:3824979:0]        ib_iface.c:1059 UCX  ERROR ibv_create_cq(cqe=256) failed: Connection timed out
[1739829883.495581] [ohm:3824993:0]        ib_iface.c:1059 UCX  ERROR ibv_create_cq(cqe=256) failed: Connection timed out
[1739829883.495581] [ohm:3824981:0]        ib_iface.c:1059 UCX  ERROR ibv_create_cq(cqe=256) failed: Connection timed out
[1739829883.501732] [ohm:3824985:0]        ib_iface.c:1059 UCX  ERROR ibv_create_cq(cqe=256) failed: Connection timed out
[1739829883.504902] [ohm:3824994:0]        ib_iface.c:1059 UCX  ERROR ibv_create_cq(cqe=256) failed: Connection timed out
[1739829883.505441] [ohm:3824999:0]        ib_iface.c:1059 UCX  ERROR ibv_create_cq(cqe=256) failed: Connection timed out


           ************************************************************
           *        Program running with 16 parallel MPI-processes    *
           *              working on a common directory               *
           ************************************************************
------------------------------------------------------------------------------
                        ORCA TD-DFT/TDA CALCULATION
------------------------------------------------------------------------------

Input orbitals are from        ... orca.gbw
CI-vector output               ... orca.cis
Solver                         ... FN-2001
Tamm-Dancoff approximation     ... operative
CIS-Integral strategy          ... AO-integrals
Integral handling              ... AO integral Direct
Max. core memory used          ... 512 MB
Reference state                ... UHF
Follow IRoot                   ... off
Number of operators            ... 2
Orbital ranges used for CIS calculation:
 Operator 0:  Orbitals   3... 12  to  11...181

-------------------
XC-INTEGRATION GRID
-------------------

General Integration Accuracy     IntAcc      ... 3.467
Radial Grid Type                 RadialGrid  ... OptM3 with GC (2021)
Angular Grid (max. ang.)         AngularGrid ... 1 (Lebedev-50)
Angular grid pruning method      GridPruning ... 4 (adaptive)
Weight generation scheme         WeightScheme... mBecke (2022)
Basis function cutoff            BFCut       ... 1.0000e-11
Integration weight cutoff        WCut        ... 1.0000e-14
Partially contracted basis set               ... off
Rotationally invariant grid construction     ... off
Angular grids for H and He will be reduced by one unit
Diffuse basis detected: some atoms will have their outermost
                        angular grid increased by 1.

Total number of grid points                  ...     4735
Total number of batches                      ...       76
Average number of points per batch           ...       62
Average number of grid points per atom       ...      676

---------------------
COSX-INTEGRATION GRID
---------------------

General Integration Accuracy     IntAcc      ... 3.067
Radial Grid Type                 RadialGrid  ... OptM3 with GC (2021)
Angular Grid (max. ang.)         AngularGrid ... 1 (Lebedev-50)
Angular grid pruning method      GridPruning ... 4 (adaptive)
Weight generation scheme         WeightScheme... mBecke (2022)
Basis function cutoff            BFCut       ... 1.0000e-11
Integration weight cutoff        WCut        ... 1.0000e-14
Partially contracted basis set               ... on
Rotationally invariant grid construction     ... off
Angular grids for H and He will be reduced by one unit
Diffuse basis detected: some atoms will have their outermost
                        angular grid increased by 1.

Total number of grid points                  ...     2153
Total number of batches                      ...       22
Average number of points per batch           ...       97
Average number of grid points per atom       ...      308

---------------
TD-DFT XC SETUP
---------------

DFT calculation                         ... on
Name of the grid file                   ... orca.grid_cis.tmp
RI-approximation                        ... on
Aux-basis dimension                     ... 0
Functional (TD-DFT)
  Functional kind                       .... Exchange-Correlation
  Functional name                       .... wB97M-V exchange-correlation functional
  Functional family                     .... Hybrid MGGA
  Functional refs                              
    [ 0] N. Mardirossian and M. Head-Gordon.,  J. Chem. Phys. 144, 214110 (2016), doi: 10.1063/1.4952647
  Fraction of HF Exchange (short range) .... 0.1500
  Fraction of HF Exchange (long range)  .... 1.0000
  Range separation parameter mu         .... 0.3000
  Functional external parameters        .... 17
    Parameter  0 _cx00      =  8.500000e-01 : u^00 coefficient for exchange
    Parameter  1 _cx01      =  1.007000e+00 : u^01 coefficient for exchange
    Parameter  2 _cx10      =  2.590000e-01 : u^10 coefficient for exchange
    Parameter  3 _css00     =  4.430000e-01 : u^00 coefficient for same-spin correlation
    Parameter  4 _css04     = -1.437000e+00 : u^04 coefficient for same-spin correlation
    Parameter  5 _css10     = -4.535000e+00 : u^10 coefficient for same-spin correlation
    Parameter  6 _css20     = -3.390000e+00 : u^20 coefficient for same-spin correlation
    Parameter  7 _css43     =  4.278000e+00 : u^43 coefficient for same-spin correlation
    Parameter  8 _cos00     =  1.000000e+00 : u^00 coefficient for opposite-spin correlation
    Parameter  9 _cos10     =  1.358000e+00 : u^10 coefficient for opposite-spin correlation
    Parameter 10 _cos20     =  2.924000e+00 : u^20 coefficient for opposite-spin correlation
    Parameter 11 _cos21     = -8.812000e+00 : u^21 coefficient for opposite-spin correlation
    Parameter 12 _cos60     = -1.390000e+00 : u^60 coefficient for opposite-spin correlation
    Parameter 13 _cos61     =  9.142000e+00 : u^61 coefficient for opposite-spin correlation
    Parameter 14 _alpha     =  1.000000e+00 : fraction of HF exchange
    Parameter 15 _beta      = -8.500000e-01 : fraction of short-range exchange
    Parameter 16 _omega     =  3.000000e-01 : range-separation constant
Hybrid DFT                              ... on
   Exchange mixing (TD-DFT)             ...  0.150
   GGA exch. scaling (TD-DFT)           ...  0.000
   GGA corr. scaling (TD-DFT)           ...  1.000
Range-Separated Exchange                ... on
   Range Range separation parameter mu  .... 0.300
   Max. amount of RS exchange (TD-DFT)  ...  0.850

Building densities             ... done
Calculating rho(r) on the grid ... done
Building xc-kernel on the grid ... done
                    *** TD-DFT CALCULATION INITIALIZED ***

------------------------
DAVIDSON-DIAGONALIZATION
------------------------

Dimension of the eigenvalue problem            ...   1710
Number of roots to be determined               ...      2
Maximum size of the expansion space            ...     20
Maximum number of iterations                   ...    100
Convergence tolerance for the residual         ...    2.500e-07
Convergence tolerance for the energies         ...    2.500e-07
Orthogonality tolerance                        ...    1.000e-14
Level Shift                                    ...    0.000e+00
Constructing the preconditioner                ... o.k.
Building the initial guess                     ... o.k.
Number of trial vectors determined             ...     20


                       ****Iteration    0****
   Time for iteration     :  TOTAL=0.2 TRAFO=0.0 RIJ=0.0 COSX=0.2
   Size of expansion space: 6
   Lowest Energy          :    -0.230776437092
   Maximum Energy change  :     0.230776437092 (vector 0)
   Maximum residual norm  :     0.001879842659

                       ****Iteration    1****
   Time for iteration     :  TOTAL=0.1 TRAFO=0.0 RIJ=0.0 COSX=0.1
   Size of expansion space: 8
   Lowest Energy          :    -0.233623450140
   Maximum Energy change  :     0.008551443171 (vector 1)
   Maximum residual norm  :     0.000331775631

                       ****Iteration    2****
   Time for iteration     :  TOTAL=0.1 TRAFO=0.0 COSX=0.1
   Size of expansion space: 10
   Lowest Energy          :    -0.233650740576
   Maximum Energy change  :     0.003011809439 (vector 1)
   Maximum residual norm  :     0.000247289932

                       ****Iteration    3****
   Time for iteration     :  TOTAL=0.1 TRAFO=0.0 COSX=0.1
   Size of expansion space: 12
   Lowest Energy          :    -0.233651211935
   Maximum Energy change  :     0.001011386472 (vector 1)
   Maximum residual norm  :     0.000084276856

                       ****Iteration    4****
   Time for iteration     :  TOTAL=0.1 TRAFO=0.0 COSX=0.1
   Size of expansion space: 14
   Lowest Energy          :    -0.233651218785
   Maximum Energy change  :     0.000401340118 (vector 1)
   Maximum residual norm  :     0.000041951711

                       ****Iteration    5****
   Time for iteration     :  TOTAL=0.1 TRAFO=0.0 COSX=0.1
   Size of expansion space: 16
   Lowest Energy          :    -0.233651218861
   Maximum Energy change  :     0.000093700003 (vector 1)
   Maximum residual norm  :     0.000018952846

                       ****Iteration    6****
   Time for iteration     :  TOTAL=0.1 TRAFO=0.0 RIJ=0.0 COSX=0.1
   Size of expansion space: 18
   Lowest Energy          :    -0.233651218862
   Maximum Energy change  :     0.000104330763 (vector 1)
   Maximum residual norm  :     0.000052311967

                       ****Iteration    7****
   Time for iteration     :  TOTAL=0.1 TRAFO=0.0 RIJ=0.0 COSX=0.1
   Size of expansion space: 20
   Lowest Energy          :    -0.233651218862
   Maximum Energy change  :     0.000239330883 (vector 1)
   Maximum residual norm  :     0.000091944203
   Rebuilding the expansion space

                       ****Iteration    8****
   Time for iteration     :  TOTAL=0.2 TRAFO=0.0 COSX=0.1
   Size of expansion space: 4
   Lowest Energy          :    -0.233654650612
   Maximum Energy change  :     0.000120288197 (vector 1)
   Maximum residual norm  :     0.000047348850

                       ****Iteration    9****
   Time for iteration     :  TOTAL=0.1 TRAFO=0.0 RIJ=0.0 COSX=0.1
   Size of expansion space: 6
   Lowest Energy          :    -0.233654650612
   Maximum Energy change  :     0.000067178083 (vector 1)
   Maximum residual norm  :     0.000020734199

                       ****Iteration   10****
   Time for iteration     :  TOTAL=0.1 TRAFO=0.0 COSX=0.1
   Size of expansion space: 7
   Lowest Energy          :    -0.233654650612
   Maximum Energy change  :     0.000036320771 (vector 1)
   Maximum residual norm  :     0.000011419207

                       ****Iteration   11****
   Time for iteration     :  TOTAL=0.1 TRAFO=0.0 RIJ=0.0 COSX=0.1
   Size of expansion space: 8
   Lowest Energy          :    -0.233654650612
   Maximum Energy change  :     0.000032040570 (vector 1)
   Maximum residual norm  :     0.000019273252

                       ****Iteration   12****
   Time for iteration     :  TOTAL=0.1 TRAFO=0.0 COSX=0.1
   Size of expansion space: 9
   Lowest Energy          :    -0.233654650612
   Maximum Energy change  :     0.000077308464 (vector 1)
   Maximum residual norm  :     0.000068143364

                       ****Iteration   13****
   Time for iteration     :  TOTAL=0.1 TRAFO=0.0 COSX=0.1
   Size of expansion space: 10
   Lowest Energy          :    -0.233654650612
   Maximum Energy change  :     0.000054310229 (vector 1)
   Maximum residual norm  :     0.000022539323

                       ****Iteration   14****
   Time for iteration     :  TOTAL=0.1 TRAFO=0.0 COSX=0.1
   Size of expansion space: 11
   Lowest Energy          :    -0.233654650612
   Maximum Energy change  :     0.000012519314 (vector 1)
   Maximum residual norm  :     0.000017602369

                       ****Iteration   15****
[...]
      f+1     :     0.000035
      f-1     :     0.000048
      f+2     :     0.000240
      f-2     :    -0.000002
      f+3     :    -0.000380
      f-3     :    -0.000027
  2 C s       :    -0.014815  s :    -0.014815
      pz      :     0.004003  p :    -0.006308
      px      :     0.000521
      py      :    -0.010832
      dz2     :     0.002675  d :    -0.006553
      dxz     :    -0.003810
      dyz     :    -0.006971
      dx2y2   :    -0.000451
      dxy     :     0.002005
      f0      :    -0.000108  f :     0.000423
      f+1     :    -0.000055
      f-1     :     0.000062
      f+2     :     0.000204
      f-2     :     0.000012
      f+3     :     0.000261
      f-3     :     0.000046
  3 H s       :     0.002797  s :     0.002797
      pz      :     0.000691  p :     0.000184
      px      :    -0.000061
      py      :    -0.000446
      dz2     :     0.000043  d :     0.000068
      dxz     :     0.000040
      dyz     :    -0.000017
      dx2y2   :     0.000032
      dxy     :    -0.000031
  4 H s       :     0.002799  s :     0.002799
      pz      :     0.000690  p :     0.000180
      px      :    -0.000061
      py      :    -0.000449
      dz2     :     0.000043  d :     0.000068
      dxz     :     0.000040
      dyz     :    -0.000017
      dx2y2   :     0.000032
      dxy     :    -0.000031
  5 H s       :    -0.000055  s :    -0.000055
      pz      :     0.000912  p :    -0.008936
      px      :    -0.001208
      py      :    -0.008641
      dz2     :     0.000068  d :    -0.000054
      dxz     :     0.000029
      dyz     :    -0.000092
      dx2y2   :    -0.000002
      dxy     :    -0.000057
  6 H s       :    -0.000056  s :    -0.000056
      pz      :     0.000912  p :    -0.008937
      px      :    -0.001208
      py      :    -0.008642
      dz2     :     0.000068  d :    -0.000054
      dxz     :     0.000029
      dyz     :    -0.000092
      dx2y2   :    -0.000002
      dxy     :    -0.000057


                      *****************************
                      * MAYER POPULATION ANALYSIS *
                      *****************************

  NA   - Mulliken gross atomic population
  ZA   - Total nuclear charge
  QA   - Mulliken gross atomic charge
  VA   - Mayer's total valence
  BVA  - Mayer's bonded valence
  FA   - Mayer's free valence

  ATOM       NA         ZA         QA         VA         BVA        FA
  0 O      8.3629     8.0000    -0.3629     1.5781     1.7457    -0.1676
  1 C      6.1019     6.0000    -0.1019     3.5180     3.5266    -0.0086
  2 C      6.4550     6.0000    -0.4550     3.3953     3.4409    -0.0456
  3 H      0.8160     1.0000     0.1840     1.0891     1.0694     0.0198
  4 H      0.8161     1.0000     0.1839     1.0893     1.0694     0.0199
  5 H      0.7241     1.0000     0.2759     0.9173     0.9417    -0.0245
  6 H      0.7241     1.0000     0.2759     0.9173     0.9418    -0.0245

  Mayer bond orders larger than 0.100000
B(  0-O ,  1-C ) :   0.8416 B(  0-O ,  2-C ) :   0.8867 B(  1-C ,  2-C ) :   0.6881 
B(  1-C ,  3-H ) :   1.0172 B(  1-C ,  4-H ) :   1.0173 B(  2-C ,  5-H ) :   0.9440 
B(  2-C ,  6-H ) :   0.9441 


-------
TIMINGS
-------

Total TD-DFT gradient time  ....        5.878 sec

Fock matrix formation       ....       1.218 sec  ( 20.7%)
  Coulomb formation         ....       0.950 sec  ( 78.0% of F)
  XC integration            ....       0.268 sec  ( 22.0% of F)
Z-vector equation           ....       1.975 sec  ( 33.6%)
Densities                   ....       0.000 sec  (  0.0%)
One electron gradient       ....       0.010 sec  (  0.2%)
RI-J Coulomb gradient       ....       0.096 sec  (  1.6%)
COSX gradient               ....       0.449 sec  (  7.6%)
XC gradient                 ....       1.895 sec  ( 32.2%)

Maximum memory used throughout the entire CIS-calculation: 35.8 MB
=> NOW LEAVING ORCA_CIS


-------------------------------------------------------------------------------
                          DFT DISPERSION CORRECTION                            
                                                                               
                              DFTD3 V3.1  Rev 1                                
                          USING Becke-Johnson damping                          
-------------------------------------------------------------------------------
The WB97M functional is recognized
Active option DFTDOPT                   ...         4   

molecular C6(AA) [au] = 350.861280 


            DFT-D V3
 parameters
 s6 scaling factor         :     1.0000 
 a1 scaling factor         :     0.5660 
 s8 scaling factor         :     0.3908 
 a2 scaling factor         :     3.1280 
 ad hoc parameters k1-k3   :    16.0000     1.3333    -4.0000 

 Edisp/kcal,au: -3.284899307670  -0.005234819701 
 E6   /kcal   :  -2.649435430 
 E8   /kcal   :  -0.635463877 
 % E8         :  19.345003233 

-------------------------   ----------------
Dispersion correction           -0.005234820
-------------------------   ----------------


-------------------------   --------------------
FINAL SINGLE POINT ENERGY      -153.871916982544
-------------------------   --------------------

[1739829892.633351] [ohm:3825106:0]        ib_iface.c:1059 UCX  ERROR ibv_create_cq(cqe=256) failed: Connection timed out
[1739829892.633350] [ohm:3825108:0]        ib_iface.c:1059 UCX  ERROR ibv_create_cq(cqe=256) failed: Connection timed out
[1739829892.633364] [ohm:3825110:0]        ib_iface.c:1059 UCX  ERROR ibv_create_cq(cqe=256) failed: Connection timed out
[1739829892.633461] [ohm:3825104:0]        ib_iface.c:1059 UCX  ERROR ibv_create_cq(cqe=256) failed: Connection timed out
[1739829892.633493] [ohm:3825113:0]        ib_iface.c:1059 UCX  ERROR ibv_create_cq(cqe=256) failed: Connection timed out
[1739829892.657895] [ohm:3825103:0]        ib_iface.c:1059 UCX  ERROR ibv_create_cq(cqe=256) failed: Connection timed out
[1739829892.657906] [ohm:3825107:0]        ib_iface.c:1059 UCX  ERROR ibv_create_cq(cqe=256) failed: Connection timed out
[1739829892.657955] [ohm:3825105:0]        ib_iface.c:1059 UCX  ERROR ibv_create_cq(cqe=256) failed: Connection timed out
[1739829892.657982] [ohm:3825109:0]        ib_iface.c:1059 UCX  ERROR ibv_create_cq(cqe=256) failed: Connection timed out
[1739829892.666754] [ohm:3825111:0]        ib_iface.c:1059 UCX  ERROR ibv_create_cq(cqe=256) failed: Connection timed out
[1739829892.669216] [ohm:3825115:0]        ib_iface.c:1059 UCX  ERROR ibv_create_cq(cqe=256) failed: Connection timed out
[1739829892.669459] [ohm:3825118:0]        ib_iface.c:1059 UCX  ERROR ibv_create_cq(cqe=256) failed: Connection timed out
[1739829892.671181] [ohm:3825116:0]        ib_iface.c:1059 UCX  ERROR ibv_create_cq(cqe=256) failed: Connection timed out
[1739829892.677320] [ohm:3825122:0]        ib_iface.c:1059 UCX  ERROR ibv_create_cq(cqe=256) failed: Connection timed out
[1739829892.693511] [ohm:3825131:0]        ib_iface.c:1059 UCX  ERROR ibv_create_cq(cqe=256) failed: Connection timed out
[1739829892.694073] [ohm:3825127:0]        ib_iface.c:1059 UCX  ERROR ibv_create_cq(cqe=256) failed: Connection timed out


           ************************************************************
           *        Program running with 16 parallel MPI-processes    *
           *              working on a common directory               *
           ************************************************************

------------------------------------------------------------------------------
                              ORCA PROPERTY CALCULATIONS
------------------------------------------------------------------------------

GBWName                                 ... orca.gbw
Number of atoms                         ...      7
Number of basis functions               ...    182
Max core memory                         ...   1024 MB

Electric properties:
Dipole moment                           ... YES
Quadrupole moment                       ...  NO
Static polarizability (Dipole/Dipole)   ...  NO
Static polarizability (Dipole/Quad.)    ...  NO
Static polarizability (Quad./Quad.)     ...  NO
Static polarizability (Velocity)        ...  NO

Atomic electric properties:
Dipole moment                           ...  NO
Quadrupole moment                       ...  NO
Static polarizability                   ...  NO

Choice of electric origin               ... Center of mass
Position of electric origin             ...     0.069141     0.000786    -0.000044

General magnetic properties:
Magnetizability                         ...  NO

EPR properties:
g-Tensor (aka g-matrix)                 ...  NO
Zero-Field splitting spin-orbit         ...  NO
Zero-field splitting spin-spin          ...  NO
Hyperfine couplings                     ...  NO (   0 nuclei)
Quadrupole couplings                    ...  NO (   0 nuclei)
Contact density                         ...  NO (   0 nuclei)

NMR properties:
Chemical shifts                         ...  NO (   0 nuclei)
Spin-rotation constants                 ...  NO (   0 nuclei)
Spin-spin couplings                     ...  NO (   0 nuclei,    0 pairs)

Choice of magnetic origin               ... GIAO
Position of magnetic origin             ...     0.000000     0.000000     0.000000

Properties with geometric perturbations:
SCF Hessian                             ...  NO
IR spectrum                             ...  NO
VCD spectrum                            ...  NO
X-ray spectroscopy properties:
SCF XES/XAS/RIXS spectra                ...  NO


-------------
DIPOLE MOMENT
-------------

Method             : SCF
Type of density    : Electron Density
Multiplicity       :   3
Irrep              :   0
Energy             :  -153.6330275122305125 Eh
Relativity type    : 
Basis              : AO
                                X                 Y                 Z
Electronic contribution:      0.803799174       2.434355535      -0.000099696
Nuclear contribution   :     -0.103616870      -2.420375462       0.000158089
                        -----------------------------------------
Total Dipole Moment    :      0.700182303       0.013980073       0.000058392
                        -----------------------------------------
Magnitude (a.u.)       :      0.700321857
Magnitude (Debye)      :      1.780076696



--------------------
Rotational spectrum 
--------------------
 
Rotational constants in cm-1:             0.855063             0.735378             0.469872 
Rotational constants in MHz :         25634.156161         22046.066952         14086.393672 

Dipole components along the rotational axes: 
x,y,z [a.u.] :    -0.618645    -0.328221    -0.000034 
x,y,z [Debye]:    -1.572471    -0.834271    -0.000087 

 

-------------
DIPOLE MOMENT
-------------

Method             : TDA/CIS
Type of density    : Electron Density
Level              : Relaxed density
State              :   1
Multiplicity       :   3
Irrep              :   0
Energy             :     0.0000000000000000 Eh
Relativity type    : 
Basis              : AO
                                X                 Y                 Z
Electronic contribution:     -0.089119273       1.044162422      -0.000138300
Nuclear contribution   :     -0.103616870      -2.420375462       0.000158089
                        -----------------------------------------
Total Dipole Moment    :     -0.192736143      -1.376213040       0.000019789
                        -----------------------------------------
Magnitude (a.u.)       :      1.389643678
Magnitude (Debye)      :      3.532193522



--------------------
Rotational spectrum 
--------------------
 
Rotational constants in cm-1:             0.855063             0.735378             0.469872 
Rotational constants in MHz :         25634.156161         22046.066952         14086.393672 

Dipole components along the rotational axes: 
x,y,z [a.u.] :     0.837553    -1.108880     0.000004 
x,y,z [Debye]:     2.128890    -2.818549     0.000011 

 

Dipole moment calculation done in   0.0 sec 

Maximum memory used throughout the entire PROP-calculation: 7.6 MB
[1739829893.352231] [ohm:3825187:0]        ib_iface.c:1059 UCX  ERROR ibv_create_cq(cqe=256) failed: Connection timed out
[1739829893.352329] [ohm:3825191:0]        ib_iface.c:1059 UCX  ERROR ibv_create_cq(cqe=256) failed: Connection timed out
[1739829893.369079] [ohm:3825188:0]        ib_iface.c:1059 UCX  ERROR ibv_create_cq(cqe=256) failed: Connection timed out
[1739829893.369300] [ohm:3825190:0]        ib_iface.c:1059 UCX  ERROR ibv_create_cq(cqe=256) failed: Connection timed out
[1739829893.369295] [ohm:3825186:0]        ib_iface.c:1059 UCX  ERROR ibv_create_cq(cqe=256) failed: Connection timed out
[1739829893.369720] [ohm:3825189:0]        ib_iface.c:1059 UCX  ERROR ibv_create_cq(cqe=256) failed: Connection timed out
[1739829893.369730] [ohm:3825193:0]        ib_iface.c:1059 UCX  ERROR ibv_create_cq(cqe=256) failed: Connection timed out
[1739829893.372842] [ohm:3825192:0]        ib_iface.c:1059 UCX  ERROR ibv_create_cq(cqe=256) failed: Connection timed out
[1739829893.375280] [ohm:3825196:0]        ib_iface.c:1059 UCX  ERROR ibv_create_cq(cqe=256) failed: Connection timed out
[1739829893.379354] [ohm:3825194:0]        ib_iface.c:1059 UCX  ERROR ibv_create_cq(cqe=256) failed: Connection timed out
[1739829893.384660] [ohm:3825198:0]        ib_iface.c:1059 UCX  ERROR ibv_create_cq(cqe=256) failed: Connection timed out
[1739829893.384660] [ohm:3825213:0]        ib_iface.c:1059 UCX  ERROR ibv_create_cq(cqe=256) failed: Connection timed out
[1739829893.385280] [ohm:3825203:0]        ib_iface.c:1059 UCX  ERROR ibv_create_cq(cqe=256) failed: Connection timed out
[1739829893.385381] [ohm:3825199:0]        ib_iface.c:1059 UCX  ERROR ibv_create_cq(cqe=256) failed: Connection timed out
[1739829893.385508] [ohm:3825216:0]        ib_iface.c:1059 UCX  ERROR ibv_create_cq(cqe=256) failed: Connection timed out
[1739829893.385946] [ohm:3825211:0]        ib_iface.c:1059 UCX  ERROR ibv_create_cq(cqe=256) failed: Connection timed out

--------------------------------
SUGGESTED CITATIONS FOR THIS RUN
--------------------------------

Below you find a list of papers that are relevant to this ORCA run
We neither can nor want to force you to cite these papers, but we appreciate if you do
You receive ORCA, which is the product of decades of hard work by many enthusiastic individuals, for free
The only thing we kindly ask in return is that you cite our papers,
We deeply appreciate it, if you show your appreciation for ORCA by not just citing the generic ORCA reference.

Please note that relegating all ORCA citations to the supporting information does *not* help us.
SI sections are not indexed - citations you put there will not count into any citation statistics
But we need these citations in order to attract the funding resources that allow us to do what we are doing

Therefore, if you are a happy ORCA user, please consider citing a few of the papers listed below in the main body of your paper

In addition to the list printed below, the program has created the file orca.bibtex that contains the list in bibtex format
You can import this file easily into all common literature databanks and citation aid programs


List of essential papers. We consider these as the minimum necessary citations

  1. Neese,F.
     Software update: the ORCA program system, version 5.0
     WIRES Comput. Molec. Sci., 2022 12(1)e1606
     doi.org/10.1002/wcms.1606

List of papers to cite with high priority. The work reported in these papers was absolutely
necessary for this run to complete.
Our perspective: the developers of density functionals and basis sets usually get cited in chemistry papers
Good! But without the algorithms to do something with them, the functionals or basis sets would not do anything.
Hence, in our opinion, the algorithm design and method developments papers are equally worthy of getting cited

  1. Neese,F.; Olbrich,G.
     Efficient use of the resolution of the identity approximation in time-dependent density functional calculations with hybrid density functionals
     Chem. Phys. Lett., 2002 362 170-178
     doi.org/10.1016/s0009-2614(02)01053-9
  2. Neese,F.
     An improvement of the resolution of the identity approximation for the formation of the Coulomb matrix
     J. Comp. Chem., 2003 24(14)1740-1747
     doi.org/10.1002/jcc.10318
  3. Neese,F.; Wennmohs,F.; Hansen,A.; Becker,U.
     Efficient, approximate and parallel Hartree-Fock and hybrid DFT calculations. A 'chain-of-spheres' algorithm for the Hartree-Fock exchange
     Chem. Phys., 2009 356(1-3)98-109
     doi.org/10.1016/j.chemphys.2008.10.036
  4. Petrenko,T.; Kossmann,S.; Neese,F.
     Efficient time-dependent density functional theory approximations for hybrid density functionals: Analytical gradients and parallelization
     J. Chem. Phys., 2011 134 054116
     doi.org/10.1063/1.3533441
  5. Helmich-Paris,B.; de Souza,B.; Neese,F.; Izsák,R.
     An improved chain of spheres for exchange algorithm
     J. Chem. Phys., 2021 155 104109
     doi.org/doi: 10.1063/5.0058766.
  6. Neese,F.
     The SHARK Integral Generation and Digestion System
     J. Comp. Chem., 2022  1-16
     doi.org/10.1002/jcc.26942
  7. Lehtola,S.; Steigemann,C.; Oliveira,M.; Marques,M.
     Recent developments in Libxc - A comprehensive library of functionals for density functional theory
     Software X, 2018 7 
     doi.org/10.1016/j.softx.2017.11.002
  8. Grimme,S.; Antony,J.; Ehrlich,S.; Krieg,H.
     A consistent and accurate ab initio parametrization of density functional dispersion correction (DFT-D) for the 94 elements H-Pu
     J. Chem. Phys., 2010 132 154104-XXXX
     doi.org/10.1063/1.3382344
  9. Grimme,S.; Ehrlich,S.; Goerigk,L.
     Effect of the damping function in dispersion corrected density functional theory
     J. Comput. Chem., 2011 32(7)1456-1465
     doi.org/10.1002/jcc.21759

List of suggested additional citations. These are papers that are important in the 'surrounding' of 
of this run, or papers that preceded the highly important papers. If you like your results we are grateful for a citation.

  1. Izsak,R.; Neese,F.
     An overlap fitted chain of spheres exchange method
     J. Chem. Phys., 2011 135 144105
     doi.org/10.1063/1.3646921
  2. Izsak,R.; Hansen,A.; Neese,F.
     The resolution of identity and chain of spheres approximations for the LPNO-CCSD singles Fock term
     Molec. Phys., 2012 110 2413-2417
     doi.org/10.1080/00268976.2012.687466
  3. Neese,F.
     The ORCA program system
     WIRES Comput. Molec. Sci., 2012 2(1)73-78
     doi.org/10.1002/wcms.81
  4. Izsak,R.; Neese,F.; Klopper,W.
     Robust fitting techniques in the chain of spheres approximation to the Fock exchange: The role of the complementary space
     J. Chem. Phys., 2013 139 
     doi.org/10.1063/1.4819264
  5. Neese,F.
     Software update: the ORCA program system, version 4.0
     WIRES Comput. Molec. Sci., 2018 8(1)1-6
     doi.org/10.1002/wcms.1327
  6. Neese,F.; Wennmohs,F.; Becker,U.; Riplinger,C.
     The ORCA quantum chemistry program package
     J. Chem. Phys., 2020 152 Art. No. L224108
     doi.org/10.1063/5.0004608

List of optional additional citations

  1. Neese,F.
     Approximate second-order SCF convergence for spin unrestricted wavefunctions
     Chem. Phys. Lett., 2000 325(1-3)93-98
     doi.org/10.1016/s0009-2614(00)00662-x

Timings for individual modules:

Sum of individual times          ...       19.936 sec (=   0.332 min)
Startup calculation              ...        1.015 sec (=   0.017 min)   5.1 %
SCF iterations                   ...        8.356 sec (=   0.139 min)  41.9 %
Property integrals               ...        0.716 sec (=   0.012 min)   3.6 %
Property calculations            ...        0.718 sec (=   0.012 min)   3.6 %
CIS module                       ...        9.130 sec (=   0.152 min)  45.8 %
                             ****ORCA TERMINATED NORMALLY****
TOTAL RUN TIME: 0 days 0 hours 0 minutes 20 seconds 672 msec
