
                                 *****************
                                 * O   R   C   A *
                                 *****************

                                            #,                                       
                                            ###                                      
                                            ####                                     
                                            #####                                    
                                            ######                                   
                                           ########,                                 
                                     ,,################,,,,,                         
                               ,,#################################,,                 
                          ,,##########################################,,             
                       ,#########################################, ''#####,          
                    ,#############################################,,   '####,        
                  ,##################################################,,,,####,       
                ,###########''''           ''''###############################       
              ,#####''   ,,,,##########,,,,          '''####'''          '####       
            ,##' ,,,,###########################,,,                        '##       
           ' ,,###''''                  '''############,,,                           
         ,,##''                                '''############,,,,        ,,,,,,###''
      ,#''                                            '''#######################'''  
     '                                                          ''''####''''         
             ,#######,   #######,   ,#######,      ##                                
            ,#'     '#,  ##    ##  ,#'     '#,    #''#        ,####,   ,####,        
            ##       ##  ##   ,#'  ##            #'  '#       #'       #'  '#        
            ##       ##  #######   ##           ,######,      #####,   #    #        
            '#,     ,#'  ##    ##  '#,     ,#' ,#      #,     #,   #   #,  ,#        
             '#######'   ##     ##  '#######'  #'      '#     '####' # '####'        



                #########################################################
                #                        -***-                          #
                #          Department of theory and spectroscopy        #
                #                                                       #
                #                      Frank Neese                      #
                #                                                       #
                #     Directorship, Architecture, Infrastructure        #
                #                    SHARK, DRIVERS                     #
                #        Core code/Algorithms in most modules           #
                #                                                       #
                #        Max Planck Institute fuer Kohlenforschung      #
                #                Kaiser Wilhelm Platz 1                 #
                #                 D-45470 Muelheim/Ruhr                 #
                #                      Germany                          #
                #                                                       #
                #                  All rights reserved                  #
                #                        -***-                          #
                #########################################################


                         Program Version 6.0.0  -   RELEASE  -


 With contributions from (in alphabetic order):
   Daniel Aravena         : Magnetic Suceptibility
   Michael Atanasov       : Ab Initio Ligand Field Theory (pilot matlab implementation)
   Alexander A. Auer      : GIAO ZORA, VPT2 properties, NMR spectrum
   Ute Becker             : All parallelization in ORCA, NUMFREQ, NUMCALC
   Giovanni Bistoni       : ED, misc. LED, open-shell LED, HFLD
   Martin Brehm           : Molecular dynamics
   Dmytro Bykov           : pre 5.0 version of the SCF Hessian
   Marcos Casanova-Páez   : Triplet and SCS-CIS(D). UHF-(DLPNO)-IP/EA/STEOM-CCSD. UHF-CVS-IP/STEOM-CCSD
   Vijay G. Chilkuri      : MRCI spin determinant printing, contributions to CSF-ICE
   Pauline Colinet        : FMM embedding
   Dipayan Datta          : RHF DLPNO-CCSD density
   Achintya Kumar Dutta   : EOM-CC, STEOM-CC
   Nicolas Foglia         : Exact transition moments, OPA infrastructure, MCD improvements
   Dmitry Ganyushin       : Spin-Orbit,Spin-Spin,Magnetic field MRCI
   Miquel Garcia          : C-PCM and meta-GGA Hessian, CCSD/C-PCM, Gaussian charge scheme
   Tiago L. C. Gouveia    : GS-ROHF, GS-ROCIS
   Yang Guo               : DLPNO-NEVPT2, F12-NEVPT2, CIM, IAO-localization
   Andreas Hansen         : Spin unrestricted coupled pair/coupled cluster methods
   Ingolf Harden          : AUTO-CI MPn and infrastructure 
   Benjamin Helmich-Paris : MC-RPA, TRAH-(SCF,CASSCF), AVAS, COSX integrals, SCF dyn. polar.
   Lee Huntington         : MR-EOM, pCC
   Robert Izsak           : Overlap fitted RIJCOSX, COSX-SCS-MP3, EOM
   Riya Kayal             : Wick's Theorem for AUTO-CI, AUTO-CI UHF-CCSDT
   Emily Kempfer          : AUTO-CI, RHF CISDT and CCSDT
   Christian Kollmar      : KDIIS, OOCD, Brueckner-CCSD(T), CCSD density, CASPT2, CASPT2-K, improved NEVPT2
   Axel Koslowski         : Symmetry handling
   Simone Kossmann        : Meta GGA functionals, TD-DFT gradient, OOMP2, (MP2 Hessian; deprecated post 5.0)
   Lucas Lang             : DCDCAS
   Marvin Lechner         : AUTO-CI (C++ implementation), FIC-MRCC
   Spencer Leger          : CASSCF response
   Dagmar Lenk            : GEPOL surface, SMD, ORCA-2-JSON
   Dimitrios Liakos       : Extrapolation schemes; Compound Job, initial MDCI parallelization
   Dimitrios Manganas     : Further ROCIS development; embedding schemes. LFT, Crystal Embedding
   Dimitrios Pantazis     : SARC Basis sets
   Anastasios Papadopoulos: AUTO-CI, single reference methods and gradients
   Taras Petrenko         : pre 6.0 DFT Hessian and TD-DFT gradient, (ASA, deprecated), ECA, 1-Electron XAS/XES, NRVS
   Peter Pinski           : DLPNO-MP2, DLPNO-MP2 Gradient
   Christoph Reimann      : Effective Core Potentials
   Marius Retegan         : Local ZFS, SOC
   Christoph Riplinger    : Optimizer, TS searches, QM/MM, DLPNO-CCSD(T), (RO)-DLPNO pert. Triples
   Michael Roemelt        : Original ROCIS implementation
   Masaaki Saitow         : Open-shell DLPNO-CCSD energy and density
   Barbara Sandhoefer     : DKH picture change effects
   Kantharuban Sivalingam : CASSCF convergence/infrastructure, NEVPT2 and variants, FIC-MRCI
   Bernardo de Souza      : ESD, SOC TD-DFT
   Georgi Stoychev        : AutoAux, RI-MP2 NMR, DLPNO-MP2 response, X2C
   Van Anh Tran           : RI-MP2 g-tensors
   Willem Van den Heuvel  : Paramagnetic NMR
   Zikuan Wang            : NOTCH, Electric field optimization 
   Frank Wennmohs         : Technical directorship and infrastructure
   Hang Xu                : AUTO-CI-Response properties 


 We gratefully acknowledge several colleagues who have allowed us to
 interface, adapt or use parts of their codes:
   Stefan Grimme, W. Hujo, H. Kruse, P. Pracht,  : VdW corrections, initial TS optimization,
                  C. Bannwarth, S. Ehlert,         DFT functionals, gCP, sTDA/sTD-DF
                  L. Wittmann, M. Mueller
   Ed Valeev, F. Pavosevic, A. Kumar             : LibInt (2-el integral package), F12 methods
   Garnet Chan, S. Sharma, J. Yang, R. Olivares  : DMRG
   Ulf Ekstrom                                   : XCFun DFT Library
   Mihaly Kallay                                 : mrcc  (arbitrary order and MRCC methods)
   Frank Weinhold                                : gennbo (NPA and NBO analysis)
   Simon Mueller                                 : openCOSMO-RS
   Christopher J. Cramer and Donald G. Truhlar   : smd solvation model
   Lars Goerigk                                  : TD-DFT with DH, B97 family of functionals
   V. Asgeirsson, H. Jonsson                     : NEB implementation
   FAccTs GmbH                                   : IRC, NEB, NEB-TS, DLPNO-Multilevel, CI-OPT
                                                   MM, QMMM, 2- and 3-layer-ONIOM, Crystal-QMMM,
                                                   LR-CPCM, SF, NACMEs, symmetry and pop. for TD-DFT,
                                                   nearIR, NL-DFT gradient (VV10), updates on ESD,
                                                   ML-optimized integration grids, MBIS, APM,
                                                   GOAT, DOCKER, SOLVATOR, interface openCOSMO-RS
   S Lehtola, MJT Oliveira, MAL Marques          : LibXC Library
   Liviu Ungur et al                             : ANISO software


 Your calculation uses the libint2 library for the computation of 2-el integrals
 For citations please refer to: http://libint.valeyev.net

 Your ORCA version has been built with support for libXC version: 6.2.2
 For citations please refer to: https://libxc.gitlab.io

 This ORCA versions uses:
   CBLAS   interface :  Fast vector & matrix operations
   LAPACKE interface :  Fast linear algebra routines
   SCALAPACK package :  Parallel linear algebra routines
   Shared memory     :  Shared parallel matrices
   BLAS/LAPACK       :  OpenBLAS 0.3.27  USE64BITINT DYNAMIC_ARCH NO_AFFINITY Zen SINGLE_THREADED
        Core in use  :  Zen
   Copyright (c) 2011-2014, The OpenBLAS Project


Your calculation utilizes the atom-pairwise dispersion correction
with the Becke-Johnson damping scheme (D3BJ)


Warning: RI is on but no J-basis has been assigned. Assigning Def2/J (nothing to worry about!)
================================================================================

----- Orbital basis set information -----
Your calculation utilizes the basis: def2-TZVPPD
   F. Weigend and R. Ahlrichs, Phys. Chem. Chem. Phys. 7, 3297 (2005).
   D. Rappoport and F. Furche, J. Chem. Phys. 133, 134105 (2010)
   D. Rappoport, J. Chem. Phys. 155, 124102 (2021).

----- AuxJ basis set information -----
Your calculation utilizes the auxiliary basis: def2/J
   F. Weigend, Phys. Chem. Chem. Phys. 8, 1057 (2006).

================================================================================
                                        WARNINGS
                       Please study these warnings very carefully!
================================================================================

Using LibXC functional ID 531 : wB97M-V exchange-correlation functional
[ 1]  N. Mardirossian and M. Head-Gordon.,  J. Chem. Phys. 144, 214110 (2016)
Using LibXC functional ID 531 : wB97M-V exchange-correlation functional
[ 1]  N. Mardirossian and M. Head-Gordon.,  J. Chem. Phys. 144, 214110 (2016)

WARNING: B97M-V or wB97M-V functional requested.
  ===> : libXC variant has now been activated.
         Any manually given DFX/HFX/RangeSep scaling parameters are IGNORED!

Your calculation utilizes LibXC
 by S Lehtola, C Steigemann, MJT Oliveira & MAL Marques
Please cite in your paper:
 S Lehtola, C Steigemann, MJT Oliveira & MAL Marques, SoftwareX, 7, (2018), 1.
   


WARNING: your system is open-shell and RHF/RKS was chosen
  ===> : WILL SWITCH to UHF/UKS

INFO   : Checking CIS options ...

WARNING: CIS/ROCIS methods need fully converged wavefunctions
  ===> : Setting SCFConvForced true
         You can overwrite this default with %scf ConvForced false 


================================================================================
                                       INPUT FILE
================================================================================
NAME = orca.inp
|  1> ! Engrad def2-TZVPPD wB97M-D3BJ 
|  2> %pal nprocs 8 end%pal nprocs 32 end 
|  3> %tddft Nroots 2 Iroot 1 
|  4> sf true 
|  5> end 
|  6> *xyz 0 3 
|  7> O   0.55767619 1.10696917 0.27675883
|  8> C   0.58294946 -0.21953779 0.01520749
|  9> C   -0.77350495 -0.73701747 0.02074626
| 10> H   1.24766662 -0.73818046 0.74647593
| 11> H   1.0878031 -0.35322341 -0.93846145
| 12> H   -1.19659652 -1.29803259 -0.77689403
| 13> H   -1.4251465 -0.31988453 0.76999638
| 14> *
| 15> 
| 16>                          ****END OF INPUT****
================================================================================

                     *******************************
                     * Energy+Gradient Calculation *
                     *******************************

---------------------------------
CARTESIAN COORDINATES (ANGSTROEM)
---------------------------------
  O      0.557676    1.106969    0.276759
  C      0.582949   -0.219538    0.015207
  C     -0.773505   -0.737017    0.020746
  H      1.247667   -0.738180    0.746476
  H      1.087803   -0.353223   -0.938461
  H     -1.196597   -1.298033   -0.776894
  H     -1.425147   -0.319885    0.769996

----------------------------
CARTESIAN COORDINATES (A.U.)
----------------------------
  NO LB      ZA    FRAG     MASS         X           Y           Z
   0 O     8.0000    0    15.999    1.053855    2.091869    0.522998
   1 C     6.0000    0    12.011    1.101615   -0.414866    0.028738
   2 C     6.0000    0    12.011   -1.461713   -1.392761    0.039205
   3 H     1.0000    0     1.008    2.357748   -1.394959    1.410635
   4 H     1.0000    0     1.008    2.055650   -0.667496   -1.773435
   5 H     1.0000    0     1.008   -2.261240   -2.452926   -1.468117
   6 H     1.0000    0     1.008   -2.693137   -0.604494    1.455082

--------------------------------
INTERNAL COORDINATES (ANGSTROEM)
--------------------------------
 O      0   0   0     0.000000000000     0.00000000     0.00000000
 C      1   0   0     1.352282720647     0.00000000     0.00000000
 C      2   1   0     1.451821085256   109.35628219     0.00000000
 H      2   1   3     1.116061222910   109.89222062   235.60972857
 H      2   1   3     1.087305610184   107.39324525   123.15626329
 H      3   2   1     1.063002574646   123.85699059   126.92933087
 H      3   2   1     1.077038690874   115.46095059   321.67289189

---------------------------
INTERNAL COORDINATES (A.U.)
---------------------------
 O      0   0   0     0.000000000000     0.00000000     0.00000000
 C      1   0   0     2.555443997657     0.00000000     0.00000000
 C      2   1   0     2.743544246587   109.35628219     0.00000000
 H      2   1   3     2.109050059989   109.89222062   235.60972857
 H      2   1   3     2.054709827123   107.39324525   123.15626329
 H      3   2   1     2.008783745735   123.85699059   126.92933087
 H      3   2   1     2.035308161389   115.46095059   321.67289189

---------------------
BASIS SET INFORMATION
---------------------
There are 3 groups of distinct atoms

 Group   1 Type O   : 12s7p3d1f contracted to 6s4p3d1f pattern {621111/4111/111/1}
 Group   2 Type C   : 12s6p3d1f contracted to 6s3p3d1f pattern {621111/411/111/1}
 Group   3 Type H   : 5s3p1d contracted to 3s3p1d pattern {311/111/1}

Atom   0O    basis set group =>   1
Atom   1C    basis set group =>   2
Atom   2C    basis set group =>   2
Atom   3H    basis set group =>   3
Atom   4H    basis set group =>   3
Atom   5H    basis set group =>   3
Atom   6H    basis set group =>   3
---------------------------------
AUXILIARY/J BASIS SET INFORMATION
---------------------------------
There are 3 groups of distinct atoms

 Group   1 Type O   : 12s5p4d2f1g contracted to 6s4p3d1f1g pattern {711111/2111/211/2/1}
 Group   2 Type C   : 12s5p4d2f1g contracted to 6s4p3d1f1g pattern {711111/2111/211/2/1}
 Group   3 Type H   : 5s2p1d contracted to 3s1p1d pattern {311/2/1}

Atom   0O    basis set group =>   1
Atom   1C    basis set group =>   2
Atom   2C    basis set group =>   2
Atom   3H    basis set group =>   3
Atom   4H    basis set group =>   3
Atom   5H    basis set group =>   3
Atom   6H    basis set group =>   3
[1741042336.253488] [ohm:263159:0]        ib_iface.c:1059 UCX  ERROR ibv_create_cq(cqe=256) failed: Connection timed out
[1741042336.259749] [ohm:263160:0]        ib_iface.c:1059 UCX  ERROR ibv_create_cq(cqe=256) failed: Connection timed out
[1741042336.259748] [ohm:263169:0]        ib_iface.c:1059 UCX  ERROR ibv_create_cq(cqe=256) failed: Connection timed out
[1741042336.261402] [ohm:263185:0]        ib_iface.c:1059 UCX  ERROR ibv_create_cq(cqe=256) failed: Connection timed out
[1741042336.261417] [ohm:263165:0]        ib_iface.c:1059 UCX  ERROR ibv_create_cq(cqe=256) failed: Connection timed out
[1741042336.261438] [ohm:263166:0]        ib_iface.c:1059 UCX  ERROR ibv_create_cq(cqe=256) failed: Connection timed out
[1741042336.262251] [ohm:263179:0]        ib_iface.c:1059 UCX  ERROR ibv_create_cq(cqe=256) failed: Connection timed out
[1741042336.262425] [ohm:263164:0]        ib_iface.c:1059 UCX  ERROR ibv_create_cq(cqe=256) failed: Connection timed out
[1741042336.266548] [ohm:263163:0]        ib_iface.c:1059 UCX  ERROR ibv_create_cq(cqe=256) failed: Connection timed out
[1741042336.268825] [ohm:263167:0]        ib_iface.c:1059 UCX  ERROR ibv_create_cq(cqe=256) failed: Connection timed out
[1741042336.269502] [ohm:263162:0]        ib_iface.c:1059 UCX  ERROR ibv_create_cq(cqe=256) failed: Connection timed out
[1741042336.287270] [ohm:263193:0]        ib_iface.c:1059 UCX  ERROR ibv_create_cq(cqe=256) failed: Connection timed out
[1741042336.322264] [ohm:263196:0]        ib_iface.c:1059 UCX  ERROR ibv_create_cq(cqe=256) failed: Connection timed out
[1741042336.330111] [ohm:263194:0]        ib_iface.c:1059 UCX  ERROR ibv_create_cq(cqe=256) failed: Connection timed out
[1741042336.331942] [ohm:263188:0]        ib_iface.c:1059 UCX  ERROR ibv_create_cq(cqe=256) failed: Connection timed out
[1741042336.333924] [ohm:263197:0]        ib_iface.c:1059 UCX  ERROR ibv_create_cq(cqe=256) failed: Connection timed out
[1741042336.334799] [ohm:263203:0]        ib_iface.c:1059 UCX  ERROR ibv_create_cq(cqe=256) failed: Connection timed out
[1741042336.334805] [ohm:263192:0]        ib_iface.c:1059 UCX  ERROR ibv_create_cq(cqe=256) failed: Connection timed out
[1741042336.335482] [ohm:263198:0]        ib_iface.c:1059 UCX  ERROR ibv_create_cq(cqe=256) failed: Connection timed out
[1741042336.335682] [ohm:263212:0]        ib_iface.c:1059 UCX  ERROR ibv_create_cq(cqe=256) failed: Connection timed out
[1741042336.336067] [ohm:263172:0]        ib_iface.c:1059 UCX  ERROR ibv_create_cq(cqe=256) failed: Connection timed out
[1741042336.337125] [ohm:263205:0]        ib_iface.c:1059 UCX  ERROR ibv_create_cq(cqe=256) failed: Connection timed out
[1741042336.337449] [ohm:263189:0]        ib_iface.c:1059 UCX  ERROR ibv_create_cq(cqe=256) failed: Connection timed out
[1741042336.339418] [ohm:263187:0]        ib_iface.c:1059 UCX  ERROR ibv_create_cq(cqe=256) failed: Connection timed out
[1741042336.338447] [ohm:263191:0]        ib_iface.c:1059 UCX  ERROR ibv_create_cq(cqe=256) failed: Connection timed out
[1741042336.338177] [ohm:263161:0]        ib_iface.c:1059 UCX  ERROR ibv_create_cq(cqe=256) failed: Connection timed out
[1741042336.338175] [ohm:263177:0]        ib_iface.c:1059 UCX  ERROR ibv_create_cq(cqe=256) failed: Connection timed out
[1741042336.340689] [ohm:263168:0]        ib_iface.c:1059 UCX  ERROR ibv_create_cq(cqe=256) failed: Connection timed out
[1741042336.340619] [ohm:263186:0]        ib_iface.c:1059 UCX  ERROR ibv_create_cq(cqe=256) failed: Connection timed out
[1741042336.340291] [ohm:263190:0]        ib_iface.c:1059 UCX  ERROR ibv_create_cq(cqe=256) failed: Connection timed out
[1741042336.340298] [ohm:263195:0]        ib_iface.c:1059 UCX  ERROR ibv_create_cq(cqe=256) failed: Connection timed out
[1741042336.339887] [ohm:263215:0]        ib_iface.c:1059 UCX  ERROR ibv_create_cq(cqe=256) failed: Connection timed out


           ************************************************************
           *        Program running with 32 parallel MPI-processes    *
           *              working on a common directory               *
           ************************************************************
------------------------------------------------------------------------------
                             ORCA STARTUP CALCULATIONS
                           -- RI-GTO INTEGRALS CHOSEN --
------------------------------------------------------------------------------
------------------------------------------------------------------------------
                   ___                                                        
                  /   \      - P O W E R E D   B Y -                         
                 /     \                                                     
                 |  |  |   _    _      __       _____    __    __             
                 |  |  |  | |  | |    /  \     |  _  \  |  |  /  |          
                  \  \/   | |  | |   /    \    | | | |  |  | /  /          
                 / \  \   | |__| |  /  /\  \   | |_| |  |  |/  /          
                |  |  |   |  __  | /  /__\  \  |    /   |      \           
                |  |  |   | |  | | |   __   |  |    \   |  |\   \          
                \     /   | |  | | |  |  |  |  | |\  \  |  | \   \       
                 \___/    |_|  |_| |__|  |__|  |_| \__\ |__|  \__/        
                                                                              
                      - O R C A' S   B I G   F R I E N D -                    
                                      &                                       
                       - I N T E G R A L  F E E D E R -                       
                                                                              
 v1 FN, 2020, v2 2021, v3 2022-2024                                           
------------------------------------------------------------------------------


----------------------
SHARK INTEGRAL PACKAGE
----------------------

Number of atoms                             ...      7
Number of basis functions                   ...    182
Number of shells                            ...     68
Maximum angular momentum                    ...      3
Integral batch strategy                     ... SHARK/LIBINT Hybrid
RI-J (if used) integral strategy            ... SPLIT-RIJ (Revised 2003 algorithm where possible)
Printlevel                                  ...      1
Contraction scheme used                     ... SEGMENTED contraction
Prescreening option                         ... SCHWARTZ
   Thresh                                   ... 2.500e-11
   Tcut                                     ... 2.500e-12
   Tpresel                                  ... 2.500e-12 
Coulomb Range Separation                    ... NOT USED
Exchange Range Separation                   ... Long Range
   Mu parameter                             ... 3.000e-01
   Scaling (regular/separated)              ... 1.500e-01 8.500e-01
Multipole approximations                    ... NOT USED
Finite Nucleus Model                        ... NOT USED
CABS basis                                  ... NOT available
Auxiliary Coulomb fitting basis             ... AVAILABLE
   # of basis functions in Aux-J            ...    191
   # of shells in Aux-J                     ...     65
   Maximum angular momentum in Aux-J        ...      4
Auxiliary J/K fitting basis                 ... NOT available
Auxiliary Correlation fitting basis         ... NOT available
Auxiliary 'external' fitting basis          ... NOT available

Checking pre-screening integrals            ... done (  0.0 sec) Dimension = 68
Check shell pair data                       ... done (  0.0 sec)
Shell pair information
Shell pair cut-off parameter TPreSel        ...   2.5e-12
Total number of shell pairs                 ...      2346
Shell pairs after pre-screening             ...      2332
Total number of primitive shell pairs       ...      5434
Primitive shell pairs kept                  ...      4844
          la=0 lb=0:    457 shell pairs
          la=1 lb=0:    657 shell pairs
          la=1 lb=1:    253 shell pairs
          la=2 lb=0:    387 shell pairs
          la=2 lb=1:    286 shell pairs
          la=2 lb=2:     91 shell pairs
          la=3 lb=0:     90 shell pairs
          la=3 lb=1:     66 shell pairs
          la=3 lb=2:     39 shell pairs
          la=3 lb=3:      6 shell pairs

Calculating one electron integrals          ... done (  0.0 sec)
Calculating RI/J V-Matrix + Cholesky decomp.... done (  0.0 sec)
Calculating Nuclear repulsion               ... done (  0.0 sec) ENN=     69.209545952364 Eh

Diagonalization of the overlap matrix:
Smallest eigenvalue                        ... 1.795e-05
Time for diagonalization                   ...    0.003 sec
Threshold for overlap eigenvalues          ... 1.000e-07
Number of eigenvalues below threshold      ... 0
Time for construction of square roots      ...    0.002 sec
Total time needed                          ...    0.006 sec

-------------------
DFT GRID GENERATION
-------------------

General Integration Accuracy     IntAcc      ... 4.388
Radial Grid Type                 RadialGrid  ... OptM3 with GC (2021)
Angular Grid (max. ang.)         AngularGrid ... 4 (Lebedev-302)
Angular grid pruning method      GridPruning ... 4 (adaptive)
Weight generation scheme         WeightScheme... mBecke (2022)
Basis function cutoff            BFCut       ... 1.0000e-11
Integration weight cutoff        WCut        ... 1.0000e-14
Partially contracted basis set               ... off
Rotationally invariant grid construction     ... off
Angular grids for H and He will be reduced by one unit
Diffuse basis detected: some atoms will have their outermost
                        angular grid increased by 1.

Total number of grid points                  ...    33124
Total number of batches                      ...      520
Average number of points per batch           ...       63
Average number of grid points per atom       ...     4732

--------------------
COSX GRID GENERATION
--------------------

GRIDX 1
-------
General Integration Accuracy     IntAcc      ... 3.816
Radial Grid Type                 RadialGrid  ... OptM3 with GC (2021)
Angular Grid (max. ang.)         AngularGrid ... 1 (Lebedev-50)
Angular grid pruning method      GridPruning ... 4 (adaptive)
Weight generation scheme         WeightScheme... mBecke (2022)
Basis function cutoff            BFCut       ... 1.0000e-11
Integration weight cutoff        WCut        ... 1.0000e-14
Partially contracted basis set               ... on
Rotationally invariant grid construction     ... off
Angular grids for H and He will be reduced by one unit
Diffuse basis detected: some atoms will have their outermost
                        angular grid increased by 1.

Total number of grid points                  ...     4181
Total number of batches                      ...       36
Average number of points per batch           ...      116
Average number of grid points per atom       ...      597
UseSFitting                                  ... on

GRIDX 2
-------
General Integration Accuracy     IntAcc      ... 4.020
Radial Grid Type                 RadialGrid  ... OptM3 with GC (2021)
Angular Grid (max. ang.)         AngularGrid ... 2 (Lebedev-110)
Angular grid pruning method      GridPruning ... 4 (adaptive)
Weight generation scheme         WeightScheme... mBecke (2022)
Basis function cutoff            BFCut       ... 1.0000e-11
Integration weight cutoff        WCut        ... 1.0000e-14
Partially contracted basis set               ... on
Rotationally invariant grid construction     ... off
Angular grids for H and He will be reduced by one unit
Diffuse basis detected: some atoms will have their outermost
                        angular grid increased by 1.

Total number of grid points                  ...    10281
Total number of batches                      ...       83
Average number of points per batch           ...      123
Average number of grid points per atom       ...     1469
UseSFitting                                  ... on

GRIDX 3
-------
General Integration Accuracy     IntAcc      ... 4.338
Radial Grid Type                 RadialGrid  ... OptM3 with GC (2021)
Angular Grid (max. ang.)         AngularGrid ... 3 (Lebedev-194)
Angular grid pruning method      GridPruning ... 4 (adaptive)
Weight generation scheme         WeightScheme... mBecke (2022)
Basis function cutoff            BFCut       ... 1.0000e-11
Integration weight cutoff        WCut        ... 1.0000e-14
Partially contracted basis set               ... on
Rotationally invariant grid construction     ... off
Angular grids for H and He will be reduced by one unit
Diffuse basis detected: some atoms will have their outermost
                        angular grid increased by 1.

Total number of grid points                  ...    23118
Total number of batches                      ...      185
Average number of points per batch           ...      124
Average number of grid points per atom       ...     3303
UseSFitting                                  ... on
Initializing property integral containers    ... done (  0.0 sec)

SHARK setup successfully completed in   0.3 seconds

Maximum memory used throughout the entire STARTUP-calculation: 13.8 MB
[1741042337.467941] [ohm:263335:0]        ib_iface.c:1059 UCX  ERROR ibv_create_cq(cqe=256) failed: Connection timed out
[1741042337.490889] [ohm:263340:0]        ib_iface.c:1059 UCX  ERROR ibv_create_cq(cqe=256) failed: Connection timed out
[1741042337.490887] [ohm:263331:0]        ib_iface.c:1059 UCX  ERROR ibv_create_cq(cqe=256) failed: Connection timed out
[1741042337.493222] [ohm:263328:0]        ib_iface.c:1059 UCX  ERROR ibv_create_cq(cqe=256) failed: Connection timed out
[1741042337.502637] [ohm:263355:0]        ib_iface.c:1059 UCX  ERROR ibv_create_cq(cqe=256) failed: Connection timed out
[1741042337.518348] [ohm:263336:0]        ib_iface.c:1059 UCX  ERROR ibv_create_cq(cqe=256) failed: Connection timed out
[1741042337.547155] [ohm:263339:0]        ib_iface.c:1059 UCX  ERROR ibv_create_cq(cqe=256) failed: Connection timed out
[1741042337.547451] [ohm:263350:0]        ib_iface.c:1059 UCX  ERROR ibv_create_cq(cqe=256) failed: Connection timed out
[1741042337.549004] [ohm:263347:0]        ib_iface.c:1059 UCX  ERROR ibv_create_cq(cqe=256) failed: Connection timed out
[1741042337.549326] [ohm:263346:0]        ib_iface.c:1059 UCX  ERROR ibv_create_cq(cqe=256) failed: Connection timed out
[1741042337.553232] [ohm:263341:0]        ib_iface.c:1059 UCX  ERROR ibv_create_cq(cqe=256) failed: Connection timed out
[1741042337.553778] [ohm:263366:0]        ib_iface.c:1059 UCX  ERROR ibv_create_cq(cqe=256) failed: Connection timed out
[1741042337.555461] [ohm:263349:0]        ib_iface.c:1059 UCX  ERROR ibv_create_cq(cqe=256) failed: Connection timed out
[1741042337.558775] [ohm:263343:0]        ib_iface.c:1059 UCX  ERROR ibv_create_cq(cqe=256) failed: Connection timed out
[1741042337.558814] [ohm:263342:0]        ib_iface.c:1059 UCX  ERROR ibv_create_cq(cqe=256) failed: Connection timed out
[1741042337.559270] [ohm:263327:0]        ib_iface.c:1059 UCX  ERROR ibv_create_cq(cqe=256) failed: Connection timed out
[1741042337.559335] [ohm:263362:0]        ib_iface.c:1059 UCX  ERROR ibv_create_cq(cqe=256) failed: Connection timed out
[1741042337.560448] [ohm:263332:0]        ib_iface.c:1059 UCX  ERROR ibv_create_cq(cqe=256) failed: Connection timed out
[1741042337.560935] [ohm:263345:0]        ib_iface.c:1059 UCX  ERROR ibv_create_cq(cqe=256) failed: Connection timed out
[1741042337.561830] [ohm:263333:0]        ib_iface.c:1059 UCX  ERROR ibv_create_cq(cqe=256) failed: Connection timed out
[1741042337.561832] [ohm:263337:0]        ib_iface.c:1059 UCX  ERROR ibv_create_cq(cqe=256) failed: Connection timed out
[1741042337.562751] [ohm:263382:0]        ib_iface.c:1059 UCX  ERROR ibv_create_cq(cqe=256) failed: Connection timed out
[1741042337.562806] [ohm:263348:0]        ib_iface.c:1059 UCX  ERROR ibv_create_cq(cqe=256) failed: Connection timed out
[1741042337.563081] [ohm:263326:0]        ib_iface.c:1059 UCX  ERROR ibv_create_cq(cqe=256) failed: Connection timed out
[1741042337.563587] [ohm:263354:0]        ib_iface.c:1059 UCX  ERROR ibv_create_cq(cqe=256) failed: Connection timed out
[1741042337.563734] [ohm:263338:0]        ib_iface.c:1059 UCX  ERROR ibv_create_cq(cqe=256) failed: Connection timed out
[1741042337.565020] [ohm:263329:0]        ib_iface.c:1059 UCX  ERROR ibv_create_cq(cqe=256) failed: Connection timed out
[1741042337.564184] [ohm:263330:0]        ib_iface.c:1059 UCX  ERROR ibv_create_cq(cqe=256) failed: Connection timed out
[1741042337.565018] [ohm:263334:0]        ib_iface.c:1059 UCX  ERROR ibv_create_cq(cqe=256) failed: Connection timed out
[1741042337.564681] [ohm:263351:0]        ib_iface.c:1059 UCX  ERROR ibv_create_cq(cqe=256) failed: Connection timed out
[1741042337.565355] [ohm:263375:0]        ib_iface.c:1059 UCX  ERROR ibv_create_cq(cqe=256) failed: Connection timed out
[1741042337.567518] [ohm:263344:0]        ib_iface.c:1059 UCX  ERROR ibv_create_cq(cqe=256) failed: Connection timed out


           ************************************************************
           *        Program running with 32 parallel MPI-processes    *
           *              working on a common directory               *
           ************************************************************
-------------------------------------------------------------------------------
                                 ORCA GUESS
                   Start orbitals & Density for SCF / CASSCF
-------------------------------------------------------------------------------

------------
SCF SETTINGS
------------
Hamiltonian:
 Density Functional     Method          .... DFT(GTOs)
  Functional kind                       .... Exchange-Correlation
  Functional name                       .... wB97M-V exchange-correlation functional
  Functional family                     .... Hybrid MGGA
  Functional refs                              
    [ 0] N. Mardirossian and M. Head-Gordon.,  J. Chem. Phys. 144, 214110 (2016), doi: 10.1063/1.4952647
  Fraction of HF Exchange (short range) .... 0.1500
  Fraction of HF Exchange (long range)  .... 1.0000
  Range separation parameter mu         .... 0.3000
  Functional external parameters        .... 17
    Parameter  0 _cx00      =  8.500000e-01 : u^00 coefficient for exchange
    Parameter  1 _cx01      =  1.007000e+00 : u^01 coefficient for exchange
    Parameter  2 _cx10      =  2.590000e-01 : u^10 coefficient for exchange
    Parameter  3 _css00     =  4.430000e-01 : u^00 coefficient for same-spin correlation
    Parameter  4 _css04     = -1.437000e+00 : u^04 coefficient for same-spin correlation
    Parameter  5 _css10     = -4.535000e+00 : u^10 coefficient for same-spin correlation
    Parameter  6 _css20     = -3.390000e+00 : u^20 coefficient for same-spin correlation
    Parameter  7 _css43     =  4.278000e+00 : u^43 coefficient for same-spin correlation
    Parameter  8 _cos00     =  1.000000e+00 : u^00 coefficient for opposite-spin correlation
    Parameter  9 _cos10     =  1.358000e+00 : u^10 coefficient for opposite-spin correlation
    Parameter 10 _cos20     =  2.924000e+00 : u^20 coefficient for opposite-spin correlation
    Parameter 11 _cos21     = -8.812000e+00 : u^21 coefficient for opposite-spin correlation
    Parameter 12 _cos60     = -1.390000e+00 : u^60 coefficient for opposite-spin correlation
    Parameter 13 _cos61     =  9.142000e+00 : u^61 coefficient for opposite-spin correlation
    Parameter 14 _alpha     =  1.000000e+00 : fraction of HF exchange
    Parameter 15 _beta      = -8.500000e-01 : fraction of short-range exchange
    Parameter 16 _omega     =  3.000000e-01 : range-separation constant
 Long-range corrected/Screened/Range-Separated Hybrid DFT is turned on
   Amount of maximum screened exact exchange              ....  0.850000
   Range separation parameter mu (erf(mu*r12)/r12)        ....  0.300000
 RI-approximation to the Coulomb term is turned on
   Number of AuxJ basis functions       .... 191
   RIJ-COSX (HFX calculated with COS-X)).... on


General Settings:
 Integral files         IntName         .... orca
 Hartree-Fock type      HFTyp           .... UHF
 Total Charge           Charge          ....    0
 Multiplicity           Mult            ....    3
 Number of Electrons    NEL             ....   24
 Basis Dimension        Dim             ....  182
 Nuclear Repulsion      ENuc            ....     69.2095459524 Eh

Convergence Acceleration:
 AO-DIIS                CNVDIIS         .... on
   Start iteration      DIISMaxIt       ....    12
   Startup error        DIISStart       ....  0.200000
   # of expansion vecs  DIISMaxEq       ....     5
   Bias factor          DIISBfac        ....   1.050
   Max. coefficient     DIISMaxC        ....  10.000
 MO-DIIS                CNVKDIIS        .... off
 Trust-Rad. Augm. Hess. CNVTRAH         .... auto
   Auto Start mean grad. ratio tolernc. ....  1.125000
   Auto Start start iteration           ....    50
   Auto Start num. interpolation iter.  ....    10
   Max. Number of Micro iterations      ....    24
   Max. Number of Macro iterations      .... Maxiter - #DIIS iter
   Number of Davidson start vectors     ....     2
   Converg. threshold    (grad. norm)   ....   1.000e-05
   Grad. Scal. Fac. for Micro threshold ....   0.100
   Minimum threshold for Micro iter.    ....   1.000e-02
   NR start threshold (gradient norm)   ....   1.000e-04
   Initial trust radius                 ....   0.400
   Minimum AH scaling param. (alpha)    ....   1.000
   Maximum AH scaling param. (alpha)    .... 1000.000
   Quad. conv. algorithm                .... NR
   White noise on init. David. guess    .... on
   Maximum white noise                  ....   0.010
   Pseudo random numbers                .... off
   Inactive MOs                         .... canonical
   Orbital update algorithm             .... Taylor
   Preconditioner                       .... Diag
   Full preconditioner red. dimension   ....   250
 SOSCF                  CNVSOSCF        .... on
   Start iteration      SOSCFMaxIt      ....   150
   Startup grad/error   SOSCFStart      ....  0.003300
   Hessian update       SOSCFHessUp     .... L-BFGS
 Level Shifting         CNVShift        .... on
   Level shift para.    LevelShift      ....    0.2500
   Turn off err/grad.   ShiftErr        ....    0.0010
 Zerner damping         CNVZerner       .... off
 Static damping         CNVDamp         .... on
   Fraction old density DampFac         ....    0.7000
   Max. Damping (<1)    DampMax         ....    0.9800
   Min. Damping (>=0)   DampMin         ....    0.0000
   Turn off err/grad.   DampErr         ....    0.1000

SCF Procedure:
 Maximum # iterations   MaxIter         ....   125
 SCF integral mode      SCFMode         .... Direct
   Integral package                     .... SHARK and LIBINT hybrid scheme
 Reset frequency        DirectResetFreq ....    20
 Integral Threshold     Thresh          ....  2.500e-11 Eh
 Primitive CutOff       TCut            ....  2.500e-12 Eh

Convergence Tolerance:
 Convergence Check Mode ConvCheckMode   .... Total+1el-Energy
 Convergence forced     ConvForced      .... 1
 Energy Change          TolE            ....  1.000e-08 Eh
 1-El. energy change                    ....  1.000e-05 Eh
 Orbital Gradient       TolG            ....  1.000e-05
 Orbital Rotation angle TolX            ....  1.000e-05
 DIIS Error             TolErr          ....  5.000e-07

------------------------------
INITIAL GUESS: MODEL POTENTIAL
------------------------------
Loading Hartree-Fock densities                     ... done
Calculating cut-offs                               ... done
Initializing the effective Hamiltonian             ... done
Setting up the integral package (SHARK)            ... done
Starting the Coulomb interaction                   ... done (   0.0 sec)
Making the grid                                    ... done (   0.0 sec)
Mapping shells                                     ... done
Starting the XC term evaluation                    ... done (   0.0 sec)
  promolecular density results
     # of electrons  =     23.998238397
     EX              =    -19.481434225
     EC              =     -0.768395204
     EX+EC           =    -20.249829428
Transforming the Hamiltonian                       ... done (   0.0 sec)
Diagonalizing the Hamiltonian                      ... done (   0.0 sec)
Back transforming the eigenvectors                 ... done (   0.0 sec)
Now organizing SCF variables                       ... done
                      ------------------
                      INITIAL GUESS DONE (   0.1 sec)
                      ------------------
             **** ENERGY FILE WAS UPDATED (orca.en.tmp) ****
Finished Guess after   0.7 sec
Maximum memory used throughout the entire GUESS-calculation: 9.6 MB
[1741042338.455654] [ohm:263507:0]        ib_iface.c:1059 UCX  ERROR ibv_create_cq(cqe=256) failed: Connection timed out
[1741042338.455654] [ohm:263509:0]        ib_iface.c:1059 UCX  ERROR ibv_create_cq(cqe=256) failed: Connection timed out
[1741042338.455662] [ohm:263515:0]        ib_iface.c:1059 UCX  ERROR ibv_create_cq(cqe=256) failed: Connection timed out
[1741042338.455654] [ohm:263512:0]        ib_iface.c:1059 UCX  ERROR ibv_create_cq(cqe=256) failed: Connection timed out
[1741042338.455673] [ohm:263519:0]        ib_iface.c:1059 UCX  ERROR ibv_create_cq(cqe=256) failed: Connection timed out
[1741042338.457998] [ohm:263506:0]        ib_iface.c:1059 UCX  ERROR ibv_create_cq(cqe=256) failed: Connection timed out
[1741042338.457998] [ohm:263518:0]        ib_iface.c:1059 UCX  ERROR ibv_create_cq(cqe=256) failed: Connection timed out
[1741042338.458047] [ohm:263514:0]        ib_iface.c:1059 UCX  ERROR ibv_create_cq(cqe=256) failed: Connection timed out
[1741042338.458677] [ohm:263510:0]        ib_iface.c:1059 UCX  ERROR ibv_create_cq(cqe=256) failed: Connection timed out
[1741042338.467827] [ohm:263521:0]        ib_iface.c:1059 UCX  ERROR ibv_create_cq(cqe=256) failed: Connection timed out
[1741042338.492034] [ohm:263532:0]        ib_iface.c:1059 UCX  ERROR ibv_create_cq(cqe=256) failed: Connection timed out
[1741042338.501741] [ohm:263522:0]        ib_iface.c:1059 UCX  ERROR ibv_create_cq(cqe=256) failed: Connection timed out
[1741042338.501744] [ohm:263526:0]        ib_iface.c:1059 UCX  ERROR ibv_create_cq(cqe=256) failed: Connection timed out
[1741042338.524483] [ohm:263525:0]        ib_iface.c:1059 UCX  ERROR ibv_create_cq(cqe=256) failed: Connection timed out
[1741042338.524483] [ohm:263542:0]        ib_iface.c:1059 UCX  ERROR ibv_create_cq(cqe=256) failed: Connection timed out
[1741042338.524661] [ohm:263505:0]        ib_iface.c:1059 UCX  ERROR ibv_create_cq(cqe=256) failed: Connection timed out
[1741042338.525033] [ohm:263511:0]        ib_iface.c:1059 UCX  ERROR ibv_create_cq(cqe=256) failed: Connection timed out
[1741042338.525024] [ohm:263524:0]        ib_iface.c:1059 UCX  ERROR ibv_create_cq(cqe=256) failed: Connection timed out
[1741042338.527875] [ohm:263546:0]        ib_iface.c:1059 UCX  ERROR ibv_create_cq(cqe=256) failed: Connection timed out
[1741042338.528813] [ohm:263531:0]        ib_iface.c:1059 UCX  ERROR ibv_create_cq(cqe=256) failed: Connection timed out
[1741042338.529105] [ohm:263539:0]        ib_iface.c:1059 UCX  ERROR ibv_create_cq(cqe=256) failed: Connection timed out
[1741042338.529883] [ohm:263560:0]        ib_iface.c:1059 UCX  ERROR ibv_create_cq(cqe=256) failed: Connection timed out
[1741042338.531261] [ohm:263516:0]        ib_iface.c:1059 UCX  ERROR ibv_create_cq(cqe=256) failed: Connection timed out
[1741042338.532200] [ohm:263528:0]        ib_iface.c:1059 UCX  ERROR ibv_create_cq(cqe=256) failed: Connection timed out
[1741042338.533526] [ohm:263513:0]        ib_iface.c:1059 UCX  ERROR ibv_create_cq(cqe=256) failed: Connection timed out
[1741042338.533539] [ohm:263517:0]        ib_iface.c:1059 UCX  ERROR ibv_create_cq(cqe=256) failed: Connection timed out
[1741042338.534369] [ohm:263520:0]        ib_iface.c:1059 UCX  ERROR ibv_create_cq(cqe=256) failed: Connection timed out
[1741042338.534361] [ohm:263551:0]        ib_iface.c:1059 UCX  ERROR ibv_create_cq(cqe=256) failed: Connection timed out
[1741042338.534379] [ohm:263527:0]        ib_iface.c:1059 UCX  ERROR ibv_create_cq(cqe=256) failed: Connection timed out
[1741042338.534378] [ohm:263523:0]        ib_iface.c:1059 UCX  ERROR ibv_create_cq(cqe=256) failed: Connection timed out
[1741042338.534776] [ohm:263554:0]        ib_iface.c:1059 UCX  ERROR ibv_create_cq(cqe=256) failed: Connection timed out
[1741042338.534856] [ohm:263508:0]        ib_iface.c:1059 UCX  ERROR ibv_create_cq(cqe=256) failed: Connection timed out


           ************************************************************
           *        Program running with 32 parallel MPI-processes    *
           *              working on a common directory               *
           ************************************************************

-------------------------------------------------------------------------------------------
                                      ORCA LEAN-SCF
                              memory conserving SCF solver
-------------------------------------------------------------------------------------------

----------------------------------------D-I-I-S--------------------------------------------
Iteration    Energy (Eh)           Delta-E    RMSDP     MaxDP     DIISErr   Damp  Time(sec)
-------------------------------------------------------------------------------------------
               ***  Starting incremental Fock matrix formation  ***
    1    -153.7068151850808988     0.00e+00  8.34e-04  2.06e-02  7.32e-02  0.700   0.3
    2    -153.7343258640196666    -2.75e-02  7.48e-04  1.85e-02  4.50e-02  0.700   0.3
                               ***Turning on AO-DIIS***
    3    -153.7497022426816784    -1.54e-02  6.18e-04  2.03e-02  3.01e-02  0.700   0.2
    4    -153.7592991664238582    -9.60e-03  1.56e-03  5.33e-02  2.46e-02  0.000   0.2
    5    -153.7818804134012680    -2.26e-02  1.66e-04  5.71e-03  8.85e-03  0.000   0.2
    6    -153.7824521522274779    -5.72e-04  1.08e-04  3.64e-03  4.85e-03  0.000   0.2
    7    -153.7827301849667094    -2.78e-04  6.07e-05  1.95e-03  3.62e-03  0.000   0.2
                              *** Initializing SOSCF ***
---------------------------------------S-O-S-C-F--------------------------------------
Iteration    Energy (Eh)           Delta-E    RMSDP     MaxDP     MaxGrad    Time(sec)
--------------------------------------------------------------------------------------
    8    -153.7828503389136188    -1.20e-04  3.42e-05  9.70e-04  1.54e-03     0.3
               *** Restarting incremental Fock matrix formation ***
    9    -153.7828870583352057    -3.67e-05  1.99e-05  5.02e-04  9.86e-04     0.3
   10    -153.7828968232060447    -9.76e-06  3.03e-05  7.35e-04  5.31e-04     0.3
   11    -153.7829025428108025    -5.72e-06  1.11e-05  3.65e-04  2.95e-04     0.2
   12    -153.7829041767229512    -1.63e-06  9.79e-06  3.18e-04  3.04e-04     0.2
   13    -153.7829055003344934    -1.32e-06  4.18e-05  1.62e-03  3.01e-04     0.2
   14    -153.7829101833603147    -4.68e-06  5.35e-05  2.11e-03  2.60e-04     0.2
   15    -153.7829149796907302    -4.80e-06  7.20e-05  2.73e-03  2.70e-04     0.2
   16    -153.7829199327140373    -4.95e-06  4.09e-05  1.34e-03  3.35e-04     0.2
   17    -153.7829221873347478    -2.25e-06  9.69e-06  2.26e-04  2.26e-04     0.2
   18    -153.7829227575863058    -5.70e-07  3.62e-06  1.56e-04  9.88e-05     0.2
   19    -153.7829228688287060    -1.11e-07  2.23e-06  5.66e-05  3.26e-05     0.2
   20    -153.7829228944580962    -2.56e-08  9.43e-07  2.31e-05  1.58e-05     0.2
   21    -153.7829228976107174    -3.15e-09  4.50e-07  1.60e-05  4.60e-06     0.2
                 **** Energy Check signals convergence ****

               *****************************************************
               *                     SUCCESS                       *
               *           SCF CONVERGED AFTER  21 CYCLES          *
               *****************************************************

Recomputing exchange energy using gridx3       ... done (    0.252 sec)
Old exchange energy                            :     -6.205385880 Eh
New exchange energy                            :     -6.205383404 Eh
Exchange energy change after final integration :      0.000002476 Eh
Total energy after final integration           :   -153.782920422 Eh
             **** ENERGY FILE WAS UPDATED (orca.en.tmp) ****

----------------
TOTAL SCF ENERGY
----------------

Total Energy       :       -153.78292042165361 Eh           -4184.64601 eV

Components:
Nuclear Repulsion  :         69.20954595236410 Eh            1883.28749 eV
Electronic Energy  :       -222.99246884997481 Eh           -6067.93357 eV
One Electron Energy:       -344.94497249982436 Eh           -9386.42990 eV
Two Electron Energy:        121.95250364984955 Eh            3318.49633 eV

Virial components:
Potential Energy   :       -307.23172452148623 Eh           -8360.20025 eV
Kinetic Energy     :        153.44880409983261 Eh            4175.55424 eV
Virial Ratio       :          2.00217737977028

DFT components:
N(Alpha)           :       12.999981972445 electrons
N(Beta)            :       10.999979830659 electrons
N(Total)           :       23.999961803104 electrons
E(XC)              :      -14.725953205420 Eh       

---------------
SCF CONVERGENCE
---------------

  Last Energy change         ...    3.1526e-09  Tolerance :   1.0000e-08
  Last MAX-Density change    ...    1.5979e-05  Tolerance :   1.0000e-07
  Last RMS-Density change    ...    4.5010e-07  Tolerance :   5.0000e-09
  Last DIIS Error            ...    1.5370e-03  Tolerance :   5.0000e-07
  Last Orbital Gradient      ...    4.5956e-06  Tolerance :   1.0000e-05
  Last Orbital Rotation      ...    9.3878e-05  Tolerance :   1.0000e-05


----------------------
UHF SPIN CONTAMINATION
----------------------

Warning: in a DFT calculation there is little theoretical justification to 
         calculate <S**2> as in Hartree-Fock theory. We will do it anyways
         but you should keep in mind that the values have only limited relevance

Expectation value of <S**2>     :     2.007802
Ideal value S*(S+1) for S=1.0   :     2.000000
Deviation                       :     0.007802

----------------
ORBITAL ENERGIES
----------------
                 SPIN UP ORBITALS
  NO   OCC          E(Eh)            E(eV) 
   0   1.0000     -19.386551      -527.5349 
   1   1.0000     -10.408765      -283.2369 
   2   1.0000     -10.357629      -281.8454 
   3   1.0000      -1.177375       -32.0380 
   4   1.0000      -0.878492       -23.9050 
   5   1.0000      -0.738403       -20.0930 
   6   1.0000      -0.621869       -16.9219 
   7   1.0000      -0.595800       -16.2125 
   8   1.0000      -0.555252       -15.1092 
   9   1.0000      -0.514380       -13.9970 
  10   1.0000      -0.440301       -11.9812 
  11   1.0000      -0.416261       -11.3270 
  12   1.0000      -0.319718        -8.7000 
  13   0.0000       0.041826         1.1381 
  14   0.0000       0.062074         1.6891 
  15   0.0000       0.078102         2.1253 
  16   0.0000       0.086463         2.3528 
  17   0.0000       0.112877         3.0715 
  18   0.0000       0.129831         3.5329 
  19   0.0000       0.131686         3.5834 
  20   0.0000       0.141429         3.8485 
  21   0.0000       0.174861         4.7582 
  22   0.0000       0.189305         5.1513 
  23   0.0000       0.204569         5.5666 

                 SPIN DOWN ORBITALS
  NO   OCC          E(Eh)            E(eV) 
   0   1.0000     -19.362735      -526.8868 
   1   1.0000     -10.410126      -283.2739 
   2   1.0000     -10.344589      -281.4906 
   3   1.0000      -1.124693       -30.6044 
   4   1.0000      -0.844877       -22.9903 
   5   1.0000      -0.712463       -19.3871 
   6   1.0000      -0.592395       -16.1199 
   7   1.0000      -0.552107       -15.0236 
   8   1.0000      -0.532518       -14.4906 
   9   1.0000      -0.490712       -13.3529 
  10   1.0000      -0.383614       -10.4387 
  11   0.0000      -0.055711        -1.5160 
  12   0.0000       0.002521         0.0686 
  13   0.0000       0.040609         1.1050 
  14   0.0000       0.062180         1.6920 
  15   0.0000       0.077789         2.1167 
  16   0.0000       0.088309         2.4030 
  17   0.0000       0.113555         3.0900 
  18   0.0000       0.131084         3.5670 
  19   0.0000       0.135685         3.6922 
  20   0.0000       0.143689         3.9100 
  21   0.0000       0.181454         4.9376 
*Only the first 10 virtual orbitals were printed.

                    ********************************
                    * MULLIKEN POPULATION ANALYSIS *
                    ********************************

--------------------------------------------
MULLIKEN ATOMIC CHARGES AND SPIN POPULATIONS
--------------------------------------------
   0 O :   -0.338948    0.915778
   1 C :    0.098573    0.004639
   2 C :   -0.680055    0.850126
   3 H :    0.196245    0.119840
   4 H :    0.187073    0.058509
   5 H :    0.263944    0.024686
   6 H :    0.273168    0.026421
Sum of atomic charges         :    0.0000000
Sum of atomic spin populations:    2.0000000

-----------------------------------------------------
MULLIKEN REDUCED ORBITAL CHARGES AND SPIN POPULATIONS
-----------------------------------------------------
CHARGE
  0 O s       :     4.005402  s :     4.005402
      pz      :     1.205436  p :     4.311743
      px      :     1.776866
      py      :     1.329441
      dz2     :     0.002701  d :     0.020490
      dxz     :     0.000748
      dyz     :     0.006825
      dx2y2   :     0.006944
      dxy     :     0.003271
      f0      :     0.000110  f :     0.001313
      f+1     :     0.000038
      f-1     :     0.000186
      f+2     :     0.000247
      f-2     :     0.000036
      f+3     :     0.000290
      f-3     :     0.000406

  1 C s       :     3.164002  s :     3.164002
      pz      :     1.074201  p :     2.567233
      px      :     0.867236
      py      :     0.625797
      dz2     :     0.016280  d :     0.159135
      dxz     :     0.025646
      dyz     :     0.037750
      dx2y2   :     0.023619
      dxy     :     0.055840
      f0      :     0.001053  f :     0.011056
      f+1     :     0.000584
      f-1     :     0.001105
      f+2     :     0.001665
      f-2     :     0.000569
      f+3     :     0.003943
      f-3     :     0.002138

  2 C s       :     3.619441  s :     3.619441
      pz      :     1.094414  p :     3.039836
      px      :     0.949320
      py      :     0.996102
      dz2     :     0.005498  d :     0.016795
      dxz     :     0.000382
      dyz     :     0.006559
      dx2y2   :    -0.002137
      dxy     :     0.006493
      f0      :     0.000365  f :     0.003983
      f+1     :     0.000345
      f-1     :     0.000434
      f+2     :     0.000468
      f-2     :     0.000612
      f+3     :     0.001063
      f-3     :     0.000696

  3 H s       :     0.773173  s :     0.773173
      pz      :     0.013543  p :     0.028058
      px      :     0.006756
      py      :     0.007758
      dz2     :     0.000690  d :     0.002524
      dxz     :     0.000413
      dyz     :     0.000406
      dx2y2   :     0.000605
      dxy     :     0.000410

  4 H s       :     0.766089  s :     0.766089
      pz      :     0.019772  p :     0.044065
      px      :     0.012022
      py      :     0.012272
      dz2     :     0.000788  d :     0.002773
      dxz     :     0.000598
      dyz     :     0.000882
      dx2y2   :     0.000286
      dxy     :     0.000219

  5 H s       :     0.690267  s :     0.690267
      pz      :     0.014571  p :     0.043588
      px      :     0.010018
      py      :     0.018999
      dz2     :     0.000701  d :     0.002201
      dxz     :     0.000415
      dyz     :     0.000390
      dx2y2   :     0.000385
      dxy     :     0.000310

  6 H s       :     0.684776  s :     0.684776
      pz      :     0.015067  p :     0.039667
      px      :     0.014950
      py      :     0.009651
      dz2     :     0.000679  d :     0.002389
      dxz     :     0.000458
      dyz     :     0.000389
      dx2y2   :     0.000472
      dxy     :     0.000392


SPIN
  0 O s       :     0.003412  s :     0.003412
      pz      :     0.703768  p :     0.916669
      px      :     0.155085
      py      :     0.057817
      dz2     :     0.000178  d :    -0.004119
      dxz     :     0.000131
      dyz     :    -0.003538
      dx2y2   :    -0.000213
      dxy     :    -0.000676
      f0      :    -0.000044  f :    -0.000184
      f+1     :     0.000015
      f-1     :    -0.000101
      f+2     :    -0.000024
      f-2     :     0.000004
      f+3     :    -0.000009
      f-3     :    -0.000026

  1 C s       :     0.006995  s :     0.006995
      pz      :    -0.010819  p :    -0.088469
      px      :    -0.023411
      py      :    -0.054239
      dz2     :     0.006410  d :     0.083019
      dxz     :     0.024769
      dyz     :     0.030761
      dx2y2   :     0.014303
      dxy     :     0.006776
      f0      :     0.000454  f :     0.003094
      f+1     :     0.000026
      f-1     :     0.000378
      f+2     :     0.000760
      f-2     :     0.000128
      f+3     :     0.001078
      f-3     :     0.000270

  2 C s       :    -0.034599  s :    -0.034599
      pz      :     0.259847  p :     0.896316
      px      :     0.069353
      py      :     0.567116
      dz2     :    -0.002433  d :    -0.010518
      dxz     :    -0.001809
      dyz     :    -0.002790
      dx2y2   :    -0.002864
      dxy     :    -0.000622
      f0      :     0.000019  f :    -0.001073
      f+1     :    -0.000082
      f-1     :    -0.000337
      f+2     :    -0.000057
      f-2     :    -0.000277
      f+3     :    -0.000158
      f-3     :    -0.000180

  3 H s       :     0.111599  s :     0.111599
      pz      :     0.003153  p :     0.008130
      px      :     0.002214
      py      :     0.002762
      dz2     :     0.000007  d :     0.000111
      dxz     :     0.000035
      dyz     :     0.000018
      dx2y2   :     0.000034
      dxy     :     0.000018

  4 H s       :     0.053957  s :     0.053957
      pz      :     0.003762  p :     0.004535
      px      :    -0.000132
      py      :     0.000906
      dz2     :    -0.000016  d :     0.000017
      dxz     :     0.000029
      dyz     :    -0.000013
      dx2y2   :     0.000025
      dxy     :    -0.000007

  5 H s       :    -0.003887  s :    -0.003887
      pz      :     0.009751  p :     0.027533
      px      :     0.004632
      py      :     0.013150
      dz2     :     0.000446  d :     0.001040
      dxz     :     0.000136
      dyz     :     0.000103
      dx2y2   :     0.000266
      dxy     :     0.000088

  6 H s       :     0.005114  s :     0.005114
      pz      :     0.008000  p :     0.020257
      px      :     0.002750
      py      :     0.009507
      dz2     :     0.000483  d :     0.001050
      dxz     :     0.000082
      dyz     :     0.000119
      dx2y2   :     0.000121
      dxy     :     0.000245



                     *******************************
                     * LOEWDIN POPULATION ANALYSIS *
                     *******************************

-------------------------------------------
LOEWDIN ATOMIC CHARGES AND SPIN POPULATIONS
-------------------------------------------
   0 O :    0.064818    0.853289
   1 C :   -0.275187    0.221649
   2 C :    0.250921    0.652390
   3 H :    0.055929    0.082919
   4 H :    0.019268    0.030251
   5 H :   -0.067262    0.086758
   6 H :   -0.048487    0.072745

----------------------------------------------------
LOEWDIN REDUCED ORBITAL CHARGES AND SPIN POPULATIONS
----------------------------------------------------
CHARGE
  0 O s       :     3.458342  s :     3.458342
      pz      :     1.131202  p :     4.195711
      px      :     1.612304
      py      :     1.452205
      dz2     :     0.030176  d :     0.276728
      dxz     :     0.009025
      dyz     :     0.080925
      dx2y2   :     0.063367
      dxy     :     0.093236
      f0      :     0.000448  f :     0.004401
      f+1     :     0.000107
      f-1     :     0.000693
      f+2     :     0.000829
      f-2     :     0.000152
      f+3     :     0.001252
      f-3     :     0.000920

  1 C s       :     2.648072  s :     2.648072
      pz      :     0.890433  p :     2.604898
      px      :     0.920143
      py      :     0.794321
      dz2     :     0.112816  d :     0.930450
      dxz     :     0.170838
      dyz     :     0.130779
      dx2y2   :     0.247069
      dxy     :     0.268948
      f0      :     0.008325  f :     0.091767
      f+1     :     0.006220
      f-1     :     0.010632
      f+2     :     0.013516
      f-2     :     0.007557
      f+3     :     0.026904
      f-3     :     0.018613

  2 C s       :     2.722229  s :     2.722229
      pz      :     0.887964  p :     2.595902
      px      :     0.924538
      py      :     0.783400
      dz2     :     0.041818  d :     0.405630
      dxz     :     0.145090
      dyz     :     0.039993
      dx2y2   :     0.092361
      dxy     :     0.086369
      f0      :     0.002798  f :     0.025318
      f+1     :     0.002936
      f-1     :     0.002424
      f+2     :     0.003314
      f-2     :     0.003913
      f+3     :     0.005220
      f-3     :     0.004714

  3 H s       :     0.666185  s :     0.666185
      pz      :     0.094914  p :     0.249758
      px      :     0.088395
      py      :     0.066450
      dz2     :     0.007207  d :     0.028127
      dxz     :     0.006054
      dyz     :     0.004976
      dx2y2   :     0.005114
      dxy     :     0.004777

  4 H s       :     0.683372  s :     0.683372
      pz      :     0.122101  p :     0.266169
      px      :     0.081818
      py      :     0.062251
      dz2     :     0.010431  d :     0.031191
      dxz     :     0.009095
      dyz     :     0.007133
      dx2y2   :     0.002537
      dxy     :     0.001995

  5 H s       :     0.735571  s :     0.735571
      pz      :     0.117489  p :     0.298880
      px      :     0.079970
      py      :     0.101422
      dz2     :     0.008930  d :     0.032811
      dxz     :     0.007161
      dyz     :     0.007763
      dx2y2   :     0.004604
      dxy     :     0.004353

  6 H s       :     0.721298  s :     0.721298
      pz      :     0.108985  p :     0.295374
      px      :     0.091120
      py      :     0.095269
      dz2     :     0.008008  d :     0.031815
      dxz     :     0.007772
      dyz     :     0.005699
      dx2y2   :     0.005169
      dxy     :     0.005167


SPIN
  0 O s       :     0.013661  s :     0.013661
      pz      :     0.629014  p :     0.822764
      px      :     0.148906
      py      :     0.044844
      dz2     :     0.002351  d :     0.016836
      dxz     :     0.003432
      dyz     :     0.008158
      dx2y2   :     0.000324
      dxy     :     0.002572
      f0      :     0.000034  f :     0.000027
      f+1     :     0.000039
      f-1     :    -0.000041
      f+2     :     0.000031
      f-2     :     0.000023
      f+3     :     0.000009
      f-3     :    -0.000068

  1 C s       :    -0.005128  s :    -0.005128
      pz      :     0.006677  p :    -0.016531
      px      :    -0.012111
      py      :    -0.011096
      dz2     :     0.010242  d :     0.218392
      dxz     :     0.059332
      dyz     :     0.072036
      dx2y2   :     0.037246
      dxy     :     0.039536
      f0      :     0.003243  f :     0.024915
      f+1     :     0.000228
      f-1     :     0.003213
      f+2     :     0.005918
      f-2     :     0.002169
      f+3     :     0.007887
      f-3     :     0.002258

  2 C s       :     0.012422  s :     0.012422
      pz      :     0.186922  p :     0.639796
      px      :     0.039810
      py      :     0.413064
      dz2     :    -0.000176  d :     0.000540
      dxz     :     0.004182
      dyz     :    -0.002796
      dx2y2   :     0.001533
      dxy     :    -0.002203
      f0      :     0.000113  f :    -0.000369
      f+1     :    -0.000197
      f-1     :    -0.000301
      f+2     :     0.000742
      f-2     :    -0.000367
      f+3     :    -0.000029
      f-3     :    -0.000329

  3 H s       :     0.072064  s :     0.072064
      pz      :     0.001479  p :     0.011333
      px      :     0.004924
      py      :     0.004930
      dz2     :    -0.000117  d :    -0.000478
      dxz     :    -0.000103
      dyz     :    -0.000108
      dx2y2   :    -0.000040
      dxy     :    -0.000110

  4 H s       :     0.029099  s :     0.029099
      pz      :     0.001864  p :     0.001550
      px      :    -0.001095
      py      :     0.000780
      dz2     :    -0.000170  d :    -0.000397
      dxz     :     0.000038
      dyz     :    -0.000249
      dx2y2   :     0.000097
      dxy     :    -0.000112

  5 H s       :    -0.010667  s :    -0.010667
      pz      :     0.025348  p :     0.086011
      px      :     0.005712
      py      :     0.054951
      dz2     :     0.004561  d :     0.011414
      dxz     :     0.001483
      dyz     :     0.001635
      dx2y2   :     0.002930
      dxy     :     0.000804

  6 H s       :    -0.012041  s :    -0.012041
      pz      :     0.023808  p :     0.074232
      px      :     0.004693
      py      :     0.045731
      dz2     :     0.004970  d :     0.010554
      dxz     :     0.000938
      dyz     :     0.001116
      dx2y2   :     0.000705
      dxy     :     0.002827



                      *****************************
                      * MAYER POPULATION ANALYSIS *
                      *****************************

  NA   - Mulliken gross atomic population
  ZA   - Total nuclear charge
  QA   - Mulliken gross atomic charge
  VA   - Mayer's total valence
  BVA  - Mayer's bonded valence
  FA   - Mayer's free valence

  ATOM       NA         ZA         QA         VA         BVA        FA
  0 O      8.3389     8.0000    -0.3389     1.8032     1.0466     0.7567
  1 C      5.9014     6.0000     0.0986     3.4670     3.4520     0.0150
  2 C      6.6801     6.0000    -0.6801     3.4610     2.7040     0.7570
  3 H      0.8038     1.0000     0.1962     0.9958     0.9832     0.0126
  4 H      0.8129     1.0000     0.1871     1.0441     1.0417     0.0024
  5 H      0.7361     1.0000     0.2639     0.9433     0.9427     0.0006
  6 H      0.7268     1.0000     0.2732     0.9342     0.9338     0.0003

  Mayer bond orders larger than 0.100000
B(  0-O ,  1-C ) :   0.8823 B(  1-C ,  2-C ) :   0.7361 B(  1-C ,  3-H ) :   0.9352 
B(  1-C ,  4-H ) :   0.9770 B(  2-C ,  5-H ) :   0.9577 B(  2-C ,  6-H ) :   0.9559 


-------
TIMINGS
-------

Total SCF time: 0 days 0 hours 0 min 6 sec 

Total time                  ....       6.144 sec
Sum of individual times     ....       6.133 sec  ( 99.8%)

SCF preparation             ....       0.586 sec  (  9.5%)
Fock matrix formation       ....       4.672 sec  ( 76.0%)
  Startup                   ....       0.049 sec  (  1.0% of F)
  Split-RI-J                ....       0.307 sec  (  6.6% of F)
  Chain of spheres X        ....       2.969 sec  ( 63.6% of F)
  XC integration            ....       1.172 sec  ( 25.1% of F)
    XC Preparation          ....       0.000 sec  (  0.0% of XC)
    Basis function eval.    ....       0.082 sec  (  7.0% of XC)
    Density eval.           ....       0.329 sec  ( 28.1% of XC)
    XC-Functional eval.     ....       0.028 sec  (  2.4% of XC)
    XC-Potential eval.      ....       0.567 sec  ( 48.4% of XC)
Diagonalization             ....       0.000 sec  (  0.0%)
Density matrix formation    ....       0.110 sec  (  1.8%)
Total Energy calculation    ....       0.080 sec  (  1.3%)
Population analysis         ....       0.025 sec  (  0.4%)
Orbital Transformation      ....       0.075 sec  (  1.2%)
Orbital Orthonormalization  ....       0.000 sec  (  0.0%)
DIIS solution               ....       0.349 sec  (  5.7%)
SOSCF solution              ....       0.232 sec  (  3.8%)
Finished LeanSCF after   6.2 sec

Maximum memory used throughout the entire LEANSCF-calculation: 14.6 MB
[1741042344.928631] [ohm:263704:0]        ib_iface.c:1059 UCX  ERROR ibv_create_cq(cqe=256) failed: Connection timed out
[1741042344.928785] [ohm:263698:0]        ib_iface.c:1059 UCX  ERROR ibv_create_cq(cqe=256) failed: Connection timed out
[1741042344.930699] [ohm:263706:0]        ib_iface.c:1059 UCX  ERROR ibv_create_cq(cqe=256) failed: Connection timed out
[1741042344.930761] [ohm:263703:0]        ib_iface.c:1059 UCX  ERROR ibv_create_cq(cqe=256) failed: Connection timed out
[1741042344.931308] [ohm:263697:0]        ib_iface.c:1059 UCX  ERROR ibv_create_cq(cqe=256) failed: Connection timed out
[1741042344.931845] [ohm:263711:0]        ib_iface.c:1059 UCX  ERROR ibv_create_cq(cqe=256) failed: Connection timed out
[1741042344.935836] [ohm:263710:0]        ib_iface.c:1059 UCX  ERROR ibv_create_cq(cqe=256) failed: Connection timed out
[1741042344.938812] [ohm:263700:0]        ib_iface.c:1059 UCX  ERROR ibv_create_cq(cqe=256) failed: Connection timed out
[1741042344.946319] [ohm:263701:0]        ib_iface.c:1059 UCX  ERROR ibv_create_cq(cqe=256) failed: Connection timed out
[1741042344.948958] [ohm:263707:0]        ib_iface.c:1059 UCX  ERROR ibv_create_cq(cqe=256) failed: Connection timed out
[1741042344.955177] [ohm:263708:0]        ib_iface.c:1059 UCX  ERROR ibv_create_cq(cqe=256) failed: Connection timed out
[1741042344.963345] [ohm:263724:0]        ib_iface.c:1059 UCX  ERROR ibv_create_cq(cqe=256) failed: Connection timed out
[1741042345.003619] [ohm:263717:0]        ib_iface.c:1059 UCX  ERROR ibv_create_cq(cqe=256) failed: Connection timed out
[1741042345.007639] [ohm:263720:0]        ib_iface.c:1059 UCX  ERROR ibv_create_cq(cqe=256) failed: Connection timed out
[1741042345.007658] [ohm:263715:0]        ib_iface.c:1059 UCX  ERROR ibv_create_cq(cqe=256) failed: Connection timed out
[1741042345.007757] [ohm:263733:0]        ib_iface.c:1059 UCX  ERROR ibv_create_cq(cqe=256) failed: Connection timed out
[1741042345.007880] [ohm:263702:0]        ib_iface.c:1059 UCX  ERROR ibv_create_cq(cqe=256) failed: Connection timed out
[1741042345.009794] [ohm:263716:0]        ib_iface.c:1059 UCX  ERROR ibv_create_cq(cqe=256) failed: Connection timed out
[1741042345.010123] [ohm:263744:0]        ib_iface.c:1059 UCX  ERROR ibv_create_cq(cqe=256) failed: Connection timed out
[1741042345.012149] [ohm:263709:0]        ib_iface.c:1059 UCX  ERROR ibv_create_cq(cqe=256) failed: Connection timed out
[1741042345.012333] [ohm:263735:0]        ib_iface.c:1059 UCX  ERROR ibv_create_cq(cqe=256) failed: Connection timed out
[1741042345.013327] [ohm:263713:0]        ib_iface.c:1059 UCX  ERROR ibv_create_cq(cqe=256) failed: Connection timed out
[1741042345.014683] [ohm:263699:0]        ib_iface.c:1059 UCX  ERROR ibv_create_cq(cqe=256) failed: Connection timed out
[1741042345.016867] [ohm:263723:0]        ib_iface.c:1059 UCX  ERROR ibv_create_cq(cqe=256) failed: Connection timed out
[1741042345.016896] [ohm:263760:0]        ib_iface.c:1059 UCX  ERROR ibv_create_cq(cqe=256) failed: Connection timed out
[1741042345.016918] [ohm:263696:0]        ib_iface.c:1059 UCX  ERROR ibv_create_cq(cqe=256) failed: Connection timed out
[1741042345.016866] [ohm:263718:0]        ib_iface.c:1059 UCX  ERROR ibv_create_cq(cqe=256) failed: Connection timed out
[1741042345.016868] [ohm:263712:0]        ib_iface.c:1059 UCX  ERROR ibv_create_cq(cqe=256) failed: Connection timed out
[1741042345.016866] [ohm:263748:0]        ib_iface.c:1059 UCX  ERROR ibv_create_cq(cqe=256) failed: Connection timed out
[1741042345.017514] [ohm:263714:0]        ib_iface.c:1059 UCX  ERROR ibv_create_cq(cqe=256) failed: Connection timed out
[1741042345.017582] [ohm:263705:0]        ib_iface.c:1059 UCX  ERROR ibv_create_cq(cqe=256) failed: Connection timed out
[1741042345.017896] [ohm:263756:0]        ib_iface.c:1059 UCX  ERROR ibv_create_cq(cqe=256) failed: Connection timed out


           ************************************************************
           *        Program running with 32 parallel MPI-processes    *
           *              working on a common directory               *
           ************************************************************

------------------------------------------------------------------------------
                         ORCA PROPERTY INTEGRAL CALCULATIONS
------------------------------------------------------------------------------

GBWName                                   ... orca.gbw
Number of atoms                           ...      7
Number of basis functions                 ...    182
Max core memory                           ...   1024 MB

Dipole integrals                          ... YES
Quadrupole integrals                      ...  NO
Linear momentum integrals                 ... YES
Angular momentum integrals                ... YES
Higher moments length integrals           ...  NO
Higher moments velocity integrals         ...  NO
Kinetic energy integrals                  ...  NO
GIAO right hand sides                     ...  NO
GIAO dipole derivative integrals          ...  NO
SOC integrals                             ...  NO
EPR diamagnetic integrals (GIAO)          ...  NO
EPR gauge integrals                       ...  NO
Field gradient integrals                  ...  NO (   0 nuclei)
Spin-dipole/Fermi contact integrals       ...  NO (   0 nuclei)
Contact density integrals                 ...  NO (   0 nuclei)
Nucleus-orbit integrals                   ...  NO (   0 nuclei)
Geometric perturbations                   ...  NO (   7 nuclei)

Choice of electric origin   ... Center of mass
Position of electric origin ... (  0.2722,  0.1497,  0.1999) 
Choice of magnetic origin   ... GIAO
Position of magnetic origin ... (  0.0000,  0.0000,  0.0000) 

Calculating integrals                     ... Electric Dipole (Length)     done (  0.0 sec)
Calculating integrals                     ... Linear Momentum              done (  0.0 sec)
Calculating integrals                     ... Angular Momentum  (ElOri)    done (  0.0 sec)

Property integrals calculated in   0.0 sec

Maximum memory used throughout the entire PROPINT-calculation: 10.2 MB
[1741042345.870657] [ohm:263886:0]        ib_iface.c:1059 UCX  ERROR ibv_create_cq(cqe=256) failed: Connection timed out
[1741042345.870657] [ohm:263876:0]        ib_iface.c:1059 UCX  ERROR ibv_create_cq(cqe=256) failed: Connection timed out
[1741042345.871799] [ohm:263871:0]        ib_iface.c:1059 UCX  ERROR ibv_create_cq(cqe=256) failed: Connection timed out
[1741042345.884461] [ohm:263883:0]        ib_iface.c:1059 UCX  ERROR ibv_create_cq(cqe=256) failed: Connection timed out
[1741042345.894642] [ohm:263924:0]        ib_iface.c:1059 UCX  ERROR ibv_create_cq(cqe=256) failed: Connection timed out
[1741042345.898971] [ohm:263901:0]        ib_iface.c:1059 UCX  ERROR ibv_create_cq(cqe=256) failed: Connection timed out
[1741042345.906330] [ohm:263879:0]        ib_iface.c:1059 UCX  ERROR ibv_create_cq(cqe=256) failed: Connection timed out
[1741042345.914999] [ohm:263868:0]        ib_iface.c:1059 UCX  ERROR ibv_create_cq(cqe=256) failed: Connection timed out
[1741042345.916120] [ohm:263890:0]        ib_iface.c:1059 UCX  ERROR ibv_create_cq(cqe=256) failed: Connection timed out
[1741042345.940764] [ohm:263887:0]        ib_iface.c:1059 UCX  ERROR ibv_create_cq(cqe=256) failed: Connection timed out
[1741042345.941674] [ohm:263893:0]        ib_iface.c:1059 UCX  ERROR ibv_create_cq(cqe=256) failed: Connection timed out
[1741042345.942196] [ohm:263908:0]        ib_iface.c:1059 UCX  ERROR ibv_create_cq(cqe=256) failed: Connection timed out
[1741042345.947212] [ohm:263913:0]        ib_iface.c:1059 UCX  ERROR ibv_create_cq(cqe=256) failed: Connection timed out
[1741042345.949489] [ohm:263882:0]        ib_iface.c:1059 UCX  ERROR ibv_create_cq(cqe=256) failed: Connection timed out
[1741042345.950474] [ohm:263918:0]        ib_iface.c:1059 UCX  ERROR ibv_create_cq(cqe=256) failed: Connection timed out
[1741042345.950796] [ohm:263912:0]        ib_iface.c:1059 UCX  ERROR ibv_create_cq(cqe=256) failed: Connection timed out
[1741042345.951431] [ohm:263878:0]        ib_iface.c:1059 UCX  ERROR ibv_create_cq(cqe=256) failed: Connection timed out
[1741042345.951419] [ohm:263870:0]        ib_iface.c:1059 UCX  ERROR ibv_create_cq(cqe=256) failed: Connection timed out
[1741042345.951429] [ohm:263873:0]        ib_iface.c:1059 UCX  ERROR ibv_create_cq(cqe=256) failed: Connection timed out
[1741042345.951431] [ohm:263874:0]        ib_iface.c:1059 UCX  ERROR ibv_create_cq(cqe=256) failed: Connection timed out
[1741042345.951563] [ohm:263885:0]        ib_iface.c:1059 UCX  ERROR ibv_create_cq(cqe=256) failed: Connection timed out
[1741042345.954615] [ohm:263875:0]        ib_iface.c:1059 UCX  ERROR ibv_create_cq(cqe=256) failed: Connection timed out
[1741042345.955096] [ohm:263880:0]        ib_iface.c:1059 UCX  ERROR ibv_create_cq(cqe=256) failed: Connection timed out
[1741042345.955202] [ohm:263884:0]        ib_iface.c:1059 UCX  ERROR ibv_create_cq(cqe=256) failed: Connection timed out
[1741042345.955339] [ohm:263888:0]        ib_iface.c:1059 UCX  ERROR ibv_create_cq(cqe=256) failed: Connection timed out
[1741042345.955502] [ohm:263869:0]        ib_iface.c:1059 UCX  ERROR ibv_create_cq(cqe=256) failed: Connection timed out
[1741042345.955486] [ohm:263877:0]        ib_iface.c:1059 UCX  ERROR ibv_create_cq(cqe=256) failed: Connection timed out
[1741042345.955597] [ohm:263889:0]        ib_iface.c:1059 UCX  ERROR ibv_create_cq(cqe=256) failed: Connection timed out
[1741042345.955801] [ohm:263899:0]        ib_iface.c:1059 UCX  ERROR ibv_create_cq(cqe=256) failed: Connection timed out
[1741042345.955757] [ohm:263872:0]        ib_iface.c:1059 UCX  ERROR ibv_create_cq(cqe=256) failed: Connection timed out
[1741042345.956132] [ohm:263881:0]        ib_iface.c:1059 UCX  ERROR ibv_create_cq(cqe=256) failed: Connection timed out
[1741042345.956131] [ohm:263891:0]        ib_iface.c:1059 UCX  ERROR ibv_create_cq(cqe=256) failed: Connection timed out


           ************************************************************
           *        Program running with 32 parallel MPI-processes    *
           *              working on a common directory               *
           ************************************************************
------------------------------------------------------------------------------
                        ORCA TD-DFT/TDA CALCULATION
------------------------------------------------------------------------------

Input orbitals are from        ... orca.gbw
CI-vector output               ... orca.cis
Solver                         ... FN-2001
Tamm-Dancoff approximation     ... operative
CIS-Integral strategy          ... AO-integrals
Integral handling              ... AO integral Direct
Max. core memory used          ... 512 MB
Reference state                ... UHF
Follow IRoot                   ... off
Number of operators            ... 2
Orbital ranges used for CIS calculation:
 Operator 0:  Orbitals   3... 12  to  11...181

-------------------
XC-INTEGRATION GRID
-------------------

General Integration Accuracy     IntAcc      ... 3.467
Radial Grid Type                 RadialGrid  ... OptM3 with GC (2021)
Angular Grid (max. ang.)         AngularGrid ... 1 (Lebedev-50)
Angular grid pruning method      GridPruning ... 4 (adaptive)
Weight generation scheme         WeightScheme... mBecke (2022)
Basis function cutoff            BFCut       ... 1.0000e-11
[...]
=> NOW LEAVING ORCA_CIS


-------------------------------------------------------------------------------
                          DFT DISPERSION CORRECTION                            
                                                                               
                              DFTD3 V3.1  Rev 1                                
                          USING Becke-Johnson damping                          
-------------------------------------------------------------------------------
The WB97M functional is recognized
Active option DFTDOPT                   ...         4   

molecular C6(AA) [au] = 394.698685 


            DFT-D V3
 parameters
 s6 scaling factor         :     1.0000 
 a1 scaling factor         :     0.5660 
 s8 scaling factor         :     0.3908 
 a2 scaling factor         :     3.1280 
 ad hoc parameters k1-k3   :    16.0000     1.3333    -4.0000 

 Edisp/kcal,au: -3.503122247519  -0.005582580054 
 E6   /kcal   :  -2.822207345 
 E8   /kcal   :  -0.680914903 
 % E8         :  19.437372002 

-------------------------   ----------------
Dispersion correction           -0.005582580
-------------------------   ----------------


-------------------------   --------------------
FINAL SINGLE POINT ENERGY      -153.763491936817
-------------------------   --------------------

[1741042352.239381] [ohm:264072:0]        ib_iface.c:1059 UCX  ERROR ibv_create_cq(cqe=256) failed: Connection timed out
[1741042352.241704] [ohm:264066:0]        ib_iface.c:1059 UCX  ERROR ibv_create_cq(cqe=256) failed: Connection timed out
[1741042352.248764] [ohm:264061:0]        ib_iface.c:1059 UCX  ERROR ibv_create_cq(cqe=256) failed: Connection timed out
[1741042352.272301] [ohm:264057:0]        ib_iface.c:1059 UCX  ERROR ibv_create_cq(cqe=256) failed: Connection timed out
[1741042352.272301] [ohm:264073:0]        ib_iface.c:1059 UCX  ERROR ibv_create_cq(cqe=256) failed: Connection timed out
[1741042352.278879] [ohm:264063:0]        ib_iface.c:1059 UCX  ERROR ibv_create_cq(cqe=256) failed: Connection timed out
[1741042352.280609] [ohm:264069:0]        ib_iface.c:1059 UCX  ERROR ibv_create_cq(cqe=256) failed: Connection timed out
[1741042352.280806] [ohm:264065:0]        ib_iface.c:1059 UCX  ERROR ibv_create_cq(cqe=256) failed: Connection timed out
[1741042352.281272] [ohm:264058:0]        ib_iface.c:1059 UCX  ERROR ibv_create_cq(cqe=256) failed: Connection timed out
[1741042352.281304] [ohm:264070:0]        ib_iface.c:1059 UCX  ERROR ibv_create_cq(cqe=256) failed: Connection timed out
[1741042352.281307] [ohm:264071:0]        ib_iface.c:1059 UCX  ERROR ibv_create_cq(cqe=256) failed: Connection timed out
[1741042352.282320] [ohm:264068:0]        ib_iface.c:1059 UCX  ERROR ibv_create_cq(cqe=256) failed: Connection timed out
[1741042352.286758] [ohm:264062:0]        ib_iface.c:1059 UCX  ERROR ibv_create_cq(cqe=256) failed: Connection timed out
[1741042352.287598] [ohm:264067:0]        ib_iface.c:1059 UCX  ERROR ibv_create_cq(cqe=256) failed: Connection timed out
[1741042352.288080] [ohm:264059:0]        ib_iface.c:1059 UCX  ERROR ibv_create_cq(cqe=256) failed: Connection timed out
[1741042352.290989] [ohm:264060:0]        ib_iface.c:1059 UCX  ERROR ibv_create_cq(cqe=256) failed: Connection timed out
[1741042352.291017] [ohm:264056:0]        ib_iface.c:1059 UCX  ERROR ibv_create_cq(cqe=256) failed: Connection timed out
[1741042352.291887] [ohm:264064:0]        ib_iface.c:1059 UCX  ERROR ibv_create_cq(cqe=256) failed: Connection timed out
[1741042352.292323] [ohm:264083:0]        ib_iface.c:1059 UCX  ERROR ibv_create_cq(cqe=256) failed: Connection timed out
[1741042352.294104] [ohm:264076:0]        ib_iface.c:1059 UCX  ERROR ibv_create_cq(cqe=256) failed: Connection timed out
[1741042352.297256] [ohm:264105:0]        ib_iface.c:1059 UCX  ERROR ibv_create_cq(cqe=256) failed: Connection timed out
[1741042352.297653] [ohm:264094:0]        ib_iface.c:1059 UCX  ERROR ibv_create_cq(cqe=256) failed: Connection timed out
[1741042352.297663] [ohm:264111:0]        ib_iface.c:1059 UCX  ERROR ibv_create_cq(cqe=256) failed: Connection timed out
[1741042352.297650] [ohm:264116:0]        ib_iface.c:1059 UCX  ERROR ibv_create_cq(cqe=256) failed: Connection timed out
[1741042352.298410] [ohm:264079:0]        ib_iface.c:1059 UCX  ERROR ibv_create_cq(cqe=256) failed: Connection timed out
[1741042352.298408] [ohm:264101:0]        ib_iface.c:1059 UCX  ERROR ibv_create_cq(cqe=256) failed: Connection timed out
[1741042352.301687] [ohm:264077:0]        ib_iface.c:1059 UCX  ERROR ibv_create_cq(cqe=256) failed: Connection timed out
[1741042352.302083] [ohm:264078:0]        ib_iface.c:1059 UCX  ERROR ibv_create_cq(cqe=256) failed: Connection timed out
[1741042352.302115] [ohm:264075:0]        ib_iface.c:1059 UCX  ERROR ibv_create_cq(cqe=256) failed: Connection timed out
[1741042352.302270] [ohm:264086:0]        ib_iface.c:1059 UCX  ERROR ibv_create_cq(cqe=256) failed: Connection timed out
[1741042352.302401] [ohm:264074:0]        ib_iface.c:1059 UCX  ERROR ibv_create_cq(cqe=256) failed: Connection timed out
[1741042352.306030] [ohm:264092:0]        ib_iface.c:1059 UCX  ERROR ibv_create_cq(cqe=256) failed: Connection timed out


           ************************************************************
           *        Program running with 32 parallel MPI-processes    *
           *              working on a common directory               *
           ************************************************************

------------------------------------------------------------------------------
                              ORCA PROPERTY CALCULATIONS
------------------------------------------------------------------------------

GBWName                                 ... orca.gbw
Number of atoms                         ...      7
Number of basis functions               ...    182
Max core memory                         ...   1024 MB

Electric properties:
Dipole moment                           ... YES
Quadrupole moment                       ...  NO
Static polarizability (Dipole/Dipole)   ...  NO
Static polarizability (Dipole/Quad.)    ...  NO
Static polarizability (Quad./Quad.)     ...  NO
Static polarizability (Velocity)        ...  NO

Atomic electric properties:
Dipole moment                           ...  NO
Quadrupole moment                       ...  NO
Static polarizability                   ...  NO

Choice of electric origin               ... Center of mass
Position of electric origin             ...     0.272176     0.149719     0.199865

General magnetic properties:
Magnetizability                         ...  NO

EPR properties:
g-Tensor (aka g-matrix)                 ...  NO
Zero-Field splitting spin-orbit         ...  NO
Zero-field splitting spin-spin          ...  NO
Hyperfine couplings                     ...  NO (   0 nuclei)
Quadrupole couplings                    ...  NO (   0 nuclei)
Contact density                         ...  NO (   0 nuclei)

NMR properties:
Chemical shifts                         ...  NO (   0 nuclei)
Spin-rotation constants                 ...  NO (   0 nuclei)
Spin-spin couplings                     ...  NO (   0 nuclei,    0 pairs)

Choice of magnetic origin               ... GIAO
Position of magnetic origin             ...     0.000000     0.000000     0.000000

Properties with geometric perturbations:
SCF Hessian                             ...  NO
IR spectrum                             ...  NO
VCD spectrum                            ...  NO
X-ray spectroscopy properties:
SCF XES/XAS/RIXS spectra                ...  NO


-------------
DIPOLE MOMENT
-------------

Method             : SCF
Type of density    : Electron Density
Multiplicity       :   3
Irrep              :   0
Energy             :  -153.7829204216536141 Eh
Relativity type    : 
Basis              : AO
                                X                 Y                 Z
Electronic contribution:      0.879820300       2.117486874       0.435302843
Nuclear contribution   :     -0.802958005      -2.823939815      -0.580960562
                        -----------------------------------------
Total Dipole Moment    :      0.076862295      -0.706452941      -0.145657719
                        -----------------------------------------
Magnitude (a.u.)       :      0.725396265
Magnitude (Debye)      :      1.843810775



--------------------
Rotational spectrum 
--------------------
 
Rotational constants in cm-1:             1.377685             0.383298             0.326975 
Rotational constants in MHz :         41301.959796         11490.979466          9802.466769 

Dipole components along the rotational axes: 
x,y,z [a.u.] :    -0.524264     0.499280     0.045457 
x,y,z [Debye]:    -1.332573     1.269070     0.115542 

 

-------------
DIPOLE MOMENT
-------------

Method             : TDA/CIS
Type of density    : Electron Density
Level              : Relaxed density
State              :   1
Multiplicity       :   3
Irrep              :   0
Energy             :     0.0000000000000000 Eh
Relativity type    : 
Basis              : AO
                                X                 Y                 Z
Electronic contribution:      0.317535634       1.453473511       0.287823382
Nuclear contribution   :     -0.802958005      -2.823939815      -0.580960562
                        -----------------------------------------
Total Dipole Moment    :     -0.485422371      -1.370466303      -0.293137180
                        -----------------------------------------
Magnitude (a.u.)       :      1.483152782
Magnitude (Debye)      :      3.769874774



--------------------
Rotational spectrum 
--------------------
 
Rotational constants in cm-1:             1.377685             0.383298             0.326975 
Rotational constants in MHz :         41301.959796         11490.979466          9802.466769 

Dipole components along the rotational axes: 
x,y,z [a.u.] :    -1.405148     0.474653    -0.002122 
x,y,z [Debye]:    -3.571604     1.206472    -0.005392 

 

Dipole moment calculation done in   0.0 sec 

Maximum memory used throughout the entire PROP-calculation: 7.4 MB
[1741042353.091611] [ohm:264239:0]        ib_iface.c:1059 UCX  ERROR ibv_create_cq(cqe=256) failed: Connection timed out
[1741042353.091603] [ohm:264241:0]        ib_iface.c:1059 UCX  ERROR ibv_create_cq(cqe=256) failed: Connection timed out
[1741042353.091596] [ohm:264237:0]        ib_iface.c:1059 UCX  ERROR ibv_create_cq(cqe=256) failed: Connection timed out
[1741042353.091595] [ohm:264235:0]        ib_iface.c:1059 UCX  ERROR ibv_create_cq(cqe=256) failed: Connection timed out
[1741042353.110073] [ohm:264250:0]        ib_iface.c:1059 UCX  ERROR ibv_create_cq(cqe=256) failed: Connection timed out
[1741042353.120411] [ohm:264283:0]        ib_iface.c:1059 UCX  ERROR ibv_create_cq(cqe=256) failed: Connection timed out
[1741042353.125016] [ohm:264255:0]        ib_iface.c:1059 UCX  ERROR ibv_create_cq(cqe=256) failed: Connection timed out
[1741042353.133407] [ohm:264257:0]        ib_iface.c:1059 UCX  ERROR ibv_create_cq(cqe=256) failed: Connection timed out
[1741042353.149037] [ohm:264267:0]        ib_iface.c:1059 UCX  ERROR ibv_create_cq(cqe=256) failed: Connection timed out
[1741042353.155267] [ohm:264247:0]        ib_iface.c:1059 UCX  ERROR ibv_create_cq(cqe=256) failed: Connection timed out
[1741042353.155251] [ohm:264248:0]        ib_iface.c:1059 UCX  ERROR ibv_create_cq(cqe=256) failed: Connection timed out
[1741042353.155414] [ohm:264244:0]        ib_iface.c:1059 UCX  ERROR ibv_create_cq(cqe=256) failed: Connection timed out
[1741042353.155662] [ohm:264295:0]        ib_iface.c:1059 UCX  ERROR ibv_create_cq(cqe=256) failed: Connection timed out
[1741042353.155708] [ohm:264251:0]        ib_iface.c:1059 UCX  ERROR ibv_create_cq(cqe=256) failed: Connection timed out
[1741042353.157900] [ohm:264240:0]        ib_iface.c:1059 UCX  ERROR ibv_create_cq(cqe=256) failed: Connection timed out
[1741042353.169774] [ohm:264238:0]        ib_iface.c:1059 UCX  ERROR ibv_create_cq(cqe=256) failed: Connection timed out
[1741042353.170261] [ohm:264246:0]        ib_iface.c:1059 UCX  ERROR ibv_create_cq(cqe=256) failed: Connection timed out
[1741042353.174534] [ohm:264253:0]        ib_iface.c:1059 UCX  ERROR ibv_create_cq(cqe=256) failed: Connection timed out
[1741042353.175142] [ohm:264264:0]        ib_iface.c:1059 UCX  ERROR ibv_create_cq(cqe=256) failed: Connection timed out
[1741042353.178768] [ohm:264280:0]        ib_iface.c:1059 UCX  ERROR ibv_create_cq(cqe=256) failed: Connection timed out
[1741042353.178736] [ohm:264252:0]        ib_iface.c:1059 UCX  ERROR ibv_create_cq(cqe=256) failed: Connection timed out
[1741042353.178757] [ohm:264288:0]        ib_iface.c:1059 UCX  ERROR ibv_create_cq(cqe=256) failed: Connection timed out
[1741042353.177552] [ohm:264256:0]        ib_iface.c:1059 UCX  ERROR ibv_create_cq(cqe=256) failed: Connection timed out
[1741042353.178755] [ohm:264254:0]        ib_iface.c:1059 UCX  ERROR ibv_create_cq(cqe=256) failed: Connection timed out
[1741042353.177552] [ohm:264260:0]        ib_iface.c:1059 UCX  ERROR ibv_create_cq(cqe=256) failed: Connection timed out
[1741042353.178707] [ohm:264274:0]        ib_iface.c:1059 UCX  ERROR ibv_create_cq(cqe=256) failed: Connection timed out
[1741042353.179062] [ohm:264249:0]        ib_iface.c:1059 UCX  ERROR ibv_create_cq(cqe=256) failed: Connection timed out
[1741042353.179248] [ohm:264243:0]        ib_iface.c:1059 UCX  ERROR ibv_create_cq(cqe=256) failed: Connection timed out
[1741042353.179248] [ohm:264245:0]        ib_iface.c:1059 UCX  ERROR ibv_create_cq(cqe=256) failed: Connection timed out
[1741042353.180885] [ohm:264236:0]        ib_iface.c:1059 UCX  ERROR ibv_create_cq(cqe=256) failed: Connection timed out
[1741042353.181026] [ohm:264242:0]        ib_iface.c:1059 UCX  ERROR ibv_create_cq(cqe=256) failed: Connection timed out
[1741042353.180784] [ohm:264277:0]        ib_iface.c:1059 UCX  ERROR ibv_create_cq(cqe=256) failed: Connection timed out

--------------------------------
SUGGESTED CITATIONS FOR THIS RUN
--------------------------------

Below you find a list of papers that are relevant to this ORCA run
We neither can nor want to force you to cite these papers, but we appreciate if you do
You receive ORCA, which is the product of decades of hard work by many enthusiastic individuals, for free
The only thing we kindly ask in return is that you cite our papers,
We deeply appreciate it, if you show your appreciation for ORCA by not just citing the generic ORCA reference.

Please note that relegating all ORCA citations to the supporting information does *not* help us.
SI sections are not indexed - citations you put there will not count into any citation statistics
But we need these citations in order to attract the funding resources that allow us to do what we are doing

Therefore, if you are a happy ORCA user, please consider citing a few of the papers listed below in the main body of your paper

In addition to the list printed below, the program has created the file orca.bibtex that contains the list in bibtex format
You can import this file easily into all common literature databanks and citation aid programs


List of essential papers. We consider these as the minimum necessary citations

  1. Neese,F.
     Software update: the ORCA program system, version 5.0
     WIRES Comput. Molec. Sci., 2022 12(1)e1606
     doi.org/10.1002/wcms.1606

List of papers to cite with high priority. The work reported in these papers was absolutely
necessary for this run to complete.
Our perspective: the developers of density functionals and basis sets usually get cited in chemistry papers
Good! But without the algorithms to do something with them, the functionals or basis sets would not do anything.
Hence, in our opinion, the algorithm design and method developments papers are equally worthy of getting cited

  1. Neese,F.; Olbrich,G.
     Efficient use of the resolution of the identity approximation in time-dependent density functional calculations with hybrid density functionals
     Chem. Phys. Lett., 2002 362 170-178
     doi.org/10.1016/s0009-2614(02)01053-9
  2. Neese,F.
     An improvement of the resolution of the identity approximation for the formation of the Coulomb matrix
     J. Comp. Chem., 2003 24(14)1740-1747
     doi.org/10.1002/jcc.10318
  3. Neese,F.; Wennmohs,F.; Hansen,A.; Becker,U.
     Efficient, approximate and parallel Hartree-Fock and hybrid DFT calculations. A 'chain-of-spheres' algorithm for the Hartree-Fock exchange
     Chem. Phys., 2009 356(1-3)98-109
     doi.org/10.1016/j.chemphys.2008.10.036
  4. Petrenko,T.; Kossmann,S.; Neese,F.
     Efficient time-dependent density functional theory approximations for hybrid density functionals: Analytical gradients and parallelization
     J. Chem. Phys., 2011 134 054116
     doi.org/10.1063/1.3533441
  5. Helmich-Paris,B.; de Souza,B.; Neese,F.; Izsák,R.
     An improved chain of spheres for exchange algorithm
     J. Chem. Phys., 2021 155 104109
     doi.org/doi: 10.1063/5.0058766.
  6. Neese,F.
     The SHARK Integral Generation and Digestion System
     J. Comp. Chem., 2022  1-16
     doi.org/10.1002/jcc.26942
  7. Lehtola,S.; Steigemann,C.; Oliveira,M.; Marques,M.
     Recent developments in Libxc - A comprehensive library of functionals for density functional theory
     Software X, 2018 7 
     doi.org/10.1016/j.softx.2017.11.002
  8. Grimme,S.; Antony,J.; Ehrlich,S.; Krieg,H.
     A consistent and accurate ab initio parametrization of density functional dispersion correction (DFT-D) for the 94 elements H-Pu
     J. Chem. Phys., 2010 132 154104-XXXX
     doi.org/10.1063/1.3382344
  9. Grimme,S.; Ehrlich,S.; Goerigk,L.
     Effect of the damping function in dispersion corrected density functional theory
     J. Comput. Chem., 2011 32(7)1456-1465
     doi.org/10.1002/jcc.21759

List of suggested additional citations. These are papers that are important in the 'surrounding' of 
of this run, or papers that preceded the highly important papers. If you like your results we are grateful for a citation.

  1. Izsak,R.; Neese,F.
     An overlap fitted chain of spheres exchange method
     J. Chem. Phys., 2011 135 144105
     doi.org/10.1063/1.3646921
  2. Izsak,R.; Hansen,A.; Neese,F.
     The resolution of identity and chain of spheres approximations for the LPNO-CCSD singles Fock term
     Molec. Phys., 2012 110 2413-2417
     doi.org/10.1080/00268976.2012.687466
  3. Neese,F.
     The ORCA program system
     WIRES Comput. Molec. Sci., 2012 2(1)73-78
     doi.org/10.1002/wcms.81
  4. Izsak,R.; Neese,F.; Klopper,W.
     Robust fitting techniques in the chain of spheres approximation to the Fock exchange: The role of the complementary space
     J. Chem. Phys., 2013 139 
     doi.org/10.1063/1.4819264
  5. Neese,F.
     Software update: the ORCA program system, version 4.0
     WIRES Comput. Molec. Sci., 2018 8(1)1-6
     doi.org/10.1002/wcms.1327
  6. Neese,F.; Wennmohs,F.; Becker,U.; Riplinger,C.
     The ORCA quantum chemistry program package
     J. Chem. Phys., 2020 152 Art. No. L224108
     doi.org/10.1063/5.0004608

List of optional additional citations

  1. Neese,F.
     Approximate second-order SCF convergence for spin unrestricted wavefunctions
     Chem. Phys. Lett., 2000 325(1-3)93-98
     doi.org/10.1016/s0009-2614(00)00662-x

Timings for individual modules:

Sum of individual times          ...       16.819 sec (=   0.280 min)
Startup calculation              ...        1.206 sec (=   0.020 min)   7.2 %
SCF iterations                   ...        7.484 sec (=   0.125 min)  44.5 %
Property integrals               ...        0.908 sec (=   0.015 min)   5.4 %
Property calculations            ...        0.877 sec (=   0.015 min)   5.2 %
CIS module                       ...        6.345 sec (=   0.106 min)  37.7 %
                             ****ORCA TERMINATED NORMALLY****
TOTAL RUN TIME: 0 days 0 hours 0 minutes 17 seconds 790 msec
