7
Properties=species:S:1:pos:R:3:momenta:R:3:forces:R:3 Coordinates=T from=T ORCA-job=T orca=T E=T -153.825440110646=T energy=-4183.53232311641 free_energy=-4183.53232311641 stress="1.5809512339139426e-06 -1.7754364813131327e-06 -3.2032514576244864e-06 -1.7754364813131327e-06 -3.1078809671525545e-06 -4.99857821404994e-06 -3.2032514576244864e-06 -4.99857821404994e-06 -5.218280935207846e-07" pbc="F F F"
O       -0.06720622       1.13490808       0.34774549       0.45511992       0.80309610       0.71731373       0.58199356       0.05128901      -0.20990058
C        0.59307372      -0.11826416       0.08164231      -0.94818879      -0.38882184      -0.34463630      -0.88674003       0.80041327       2.95693421
C       -0.32136745      -1.02768568      -0.51061203       0.07836667      -0.81819273      -0.96823717      -2.27893107      -1.70515948       0.04603655
H        0.78993859      -0.49071885       1.14444368       0.12321498      -0.07095641       0.19022768       0.40026790       0.39285118      -0.81631157
H        1.55720498       0.07582186      -0.33626300      -0.16250408       0.20797224       0.21718807       0.44690988      -0.02137991      -0.70306558
H       -1.29790766      -1.23874378       0.04012401       0.00853775      -0.13973811       0.01075145       1.23573224       0.58168430      -0.69971672
H       -0.13984974      -1.71510509      -1.29651031       0.44545354       0.40664075       0.17739254       0.50076752      -0.09969837      -0.57397630
